Title
82299
    1SAPS     N    1   2.335   6.149   9.955 -0.2496 -0.1749 -1.6278
    1SAPS   HN1    2   2.258   6.205   9.997  1.3542  1.5067 -0.7693
    1SAPS   HN2    3   2.419   6.148  10.016  0.1764  1.0688 -2.1432
    1SAPS   HN3    4   2.362   6.204   9.870 -1.1389 -0.4976 -2.1370
    1SAPS   C12    5   2.296   6.014   9.911 -0.4742  0.0339  0.6482
    1SAPS  H12A    6   2.383   5.977   9.858 -0.1134  0.2265  1.0936
    1SAPS   C13    7   2.249   5.911  10.020 -0.5368 -0.4459 -0.3206
    1SAPS  O13A    8   2.210   5.944  10.134 -0.2818 -0.0939 -0.3859
    1SAPS  O13B    9   2.232   5.795   9.984 -0.5018  0.4365  0.0584
    1SAPS   C11   10   2.181   6.025   9.805  0.6789  0.4322 -0.5504
    1SAPS  H11A   11   2.151   5.926   9.765 -0.4595  0.4501  0.2259
    1SAPS  H11B   12   2.228   6.081   9.721 -0.7300  0.4344 -1.3752
    1SAPS     P   13   1.923   6.039   9.867  0.0376  0.6703 -0.4658
    1SAPS   O13   14   1.910   5.972   9.996  0.0258  0.3454  0.3934
    1SAPS   O14   15   1.819   6.141   9.839 -0.0390  0.0611  0.2446
    1SAPS   O12   16   2.065   6.098   9.853  0.0121 -0.6355  0.6775
    1SAPS   O11   17   1.915   5.923   9.762 -0.1470 -0.4070  0.3668
    1SAPS    C1   18   1.847   5.953   9.638 -0.3470  0.7410  0.6891
    1SAPS    HA   19   1.871   6.059   9.617 -1.5933  1.1251  1.0972
    1SAPS    HB   20   1.888   5.884   9.562 -0.8615 -2.9124  3.4396
    1SAPS    C2   21   1.702   5.928   9.635  0.0085 -0.2957 -0.2550
    1SAPS    HS   22   1.661   5.984   9.722  0.8477 -0.6832  0.3960
    1SAPS   O21   23   1.679   5.789   9.654  0.7911  0.3373 -0.0037
    1SAPS   C21   24   1.552   5.758   9.674 -0.4637 -0.0791  0.5295
    1SAPS   O22   25   1.466   5.835   9.715 -0.5117  0.8640  0.0522
    1SAPS   C22   26   1.522   5.613   9.645  0.7974  0.0867  0.1528
    1SAPS   H2R   27   1.615   5.552   9.644 -0.3236 -1.6829 -0.4704
    1SAPS   H2S   28   1.463   5.569   9.728  0.5643 -1.1452 -0.6519
    1SAPS    C3   29   1.642   5.998   9.505 -0.0425 -0.1848  0.2125
    1SAPS    HX   30   1.649   6.109   9.514 -1.0827 -0.1665  0.9082
    1SAPS    HY   31   1.532   5.987   9.500 -0.0929  0.3832 -0.0537
    1SAPS   O31   32   1.699   5.946   9.382  0.5342 -0.4192  0.5731
    1SAPS   C31   33   1.768   6.035   9.306 -1.0851  0.3217  0.3415
    1SAPS   O32   34   1.800   6.148   9.334 -0.4334 -0.0913  0.2197
    1SAPS   C32   35   1.798   5.972   9.167 -0.7462  0.2627 -0.3733
    1SAPS   H2X   36   1.908   5.957   9.165 -0.7713 -0.2857  1.0879
    1SAPS   H2Y   37   1.764   6.043   9.089 -2.4446  1.9955  1.8194
    1SAPS   C23   38   1.449   5.585   9.509 -0.0570  0.0406 -0.0385
    1SAPS   H3R   39   1.379   5.668   9.484 -0.8898 -1.2607 -2.3145
    1SAPS   H3S   40   1.391   5.492   9.526 -1.5680  1.2743  2.0741
    1SAPS   C24   41   1.554   5.579   9.395 -0.4824  0.3074 -0.1554
    1SAPS   H4R   42   1.638   5.516   9.432 -0.6728 -0.7173 -1.3942
    1SAPS   H4S   43   1.602   5.679   9.390  0.1790  0.0486  0.7703
    1SAPS   C25   44   1.479   5.531   9.269 -0.3917  0.3618  0.2291
    1SAPS   H5R   45   1.414   5.605   9.220  0.3700 -0.2322 -1.7636
    1SAPS   C26   46   1.503   5.421   9.199  0.2989 -0.2712  0.1332
    1SAPS   H6R   47   1.430   5.397   9.121  1.4198 -0.3320 -0.9265
    1SAPS   C27   48   1.604   5.305   9.215 -0.3031  0.2937 -0.3118
    1SAPS   H7R   49   1.551   5.214   9.181 -1.0757  0.6517 -0.1101
    1SAPS   H7S   50   1.629   5.287   9.322 -2.5127  1.0163  0.3908
    1SAPS   C28   51   1.731   5.362   9.148 -0.6470  0.1576 -0.1064
    1SAPS   H8R   52   1.752   5.464   9.182  0.6399 -0.1534  0.0793
    1SAPS   C29   53   1.807   5.303   9.049 -0.3160 -0.1075 -1.0187
    1SAPS   H9R   54   1.896   5.357   9.014  2.0415 -2.7397  0.5035
    1SAPS  C210   55   1.781   5.170   8.980 -0.3796 -0.3259  0.1000
    1SAPS  H10R   56   1.814   5.187   8.875  1.8282  0.3040  0.8478
    1SAPS  H10S   57   1.671   5.157   8.979 -0.6606  0.5440  3.7398
    1SAPS  C211   58   1.856   5.051   9.029 -0.1912  0.1991  0.3821
    1SAPS  H11R   59   1.911   5.066   9.123 -1.7595 -0.1730  1.3887
    1SAPS  C212   60   1.874   4.932   8.967  0.6577 -0.2942  0.2488
    1SAPS  H12R   61   1.930   4.849   9.013 -0.3530 -1.0482  0.1644
    1SAPS  C213   62   1.816   4.904   8.827  0.1725 -0.6995  0.1188
    1SAPS  H13R   63   1.907   4.854   8.787  0.2450 -1.2628  0.9593
    1SAPS  H13S   64   1.805   5.003   8.777 -2.1302 -0.6935  0.5166
    1SAPS  C214   65   1.696   4.816   8.826  0.3915  0.0385 -0.4146
    1SAPS  H14R   66   1.680   4.763   8.921  1.1095  1.1090  0.3136
    1SAPS  C215   67   1.599   4.821   8.727  0.3205  0.1761 -0.2369
    1SAPS  H15R   68   1.509   4.760   8.742  0.8133 -0.3545  0.6372
    1SAPS  C216   69   1.606   4.902   8.597 -0.2958 -0.0163  0.5066
    1SAPS  H16R   70   1.698   4.964   8.590 -0.0429  0.1386  3.5793
    1SAPS  H16S   71   1.520   4.972   8.599 -0.5336 -0.1916 -1.6753
    1SAPS  C217   72   1.614   4.814   8.469  0.1738  0.2213 -0.1976
    1SAPS  H17R   73   1.544   4.728   8.481  0.1709  0.3304  0.6047
    1SAPS  H17S   74   1.720   4.778   8.464  1.0076  2.4091  0.7388
    1SAPS  C218   75   1.602   4.893   8.340 -0.4833  0.9475  0.2511
    1SAPS  H18R   76   1.680   4.972   8.335  0.8658 -0.4343 -3.1487
    1SAPS  H18S   77   1.508   4.949   8.324 -0.6729  0.8049  0.8373
    1SAPS  C219   78   1.610   4.798   8.216  0.1736  0.2857 -0.2928
    1SAPS  H19R   79   1.548   4.710   8.242 -1.1332  0.9904 -0.9312
    1SAPS  H19S   80   1.714   4.761   8.205  0.0300 -0.2810  0.1890
    1SAPS  C220   81   1.559   4.862   8.085  0.4232  0.8151  0.0942
    1SAPS  H20R   82   1.454   4.897   8.094  1.1237  3.8935 -1.9855
    1SAPS  H20S   83   1.572   4.791   8.001  0.7302 -1.9771  2.3331
    1SAPS  H20T   84   1.616   4.951   8.051  1.1245 -0.2155 -1.5428
    1SAPS   C33   85   1.745   5.825   9.143  0.6756  0.4906  0.8697
    1SAPS   H3X   86   1.637   5.828   9.171  0.8506 -2.0390  2.1168
    1SAPS   H3Y   87   1.788   5.742   9.203 -0.5307 -2.3559 -1.8676
    1SAPS   C34   88   1.747   5.792   8.997  0.8086  0.2341  0.3125
    1SAPS   H4X   89   1.761   5.878   8.927  0.2323 -1.4743 -2.0525
    1SAPS   H4Y   90   1.648   5.747   8.976  0.3754  1.1947  0.2169
    1SAPS   C35   91   1.845   5.681   8.959 -0.0809  0.1044  0.2166
    1SAPS   H5X   92   1.843   5.606   9.041 -0.1183 -1.7387 -1.4107
    1SAPS   H5Y   93   1.941   5.737   8.959 -0.5881  1.0432  1.3108
    1SAPS   C36   94   1.801   5.621   8.826  0.3841 -0.2077 -0.1122
    1SAPS   H6X   95   1.790   5.703   8.752 -0.9001  0.8540  1.1911
    1SAPS   H6Y   96   1.700   5.577   8.841  0.4864 -0.3876  0.0562
    1SAPS   C37   97   1.900   5.519   8.767  0.0360  0.0280 -0.8945
    1SAPS   H7X   98   1.865   5.483   8.668 -1.7072  0.8843 -0.6251
    1SAPS   H7Y   99   1.899   5.423   8.824 -2.2831  1.3701  1.5581
    1SAPS   C38  100   2.038   5.567   8.761 -0.1529 -0.1536 -0.7093
    1SAPS   H8X  101   2.105   5.498   8.706  0.4263 -0.7143  0.6529
    1SAPS   H8Y  102   2.074   5.563   8.866 -1.5225  0.6245 -0.1830
    1SAPS   C39  103   2.070   5.706   8.704 -0.4311 -0.1916 -1.2791
    1SAPS   H9X  104   2.175   5.720   8.736 -1.0460  2.1685 -0.0437
    1SAPS   H9Y  105   2.006   5.790   8.739  1.4090  1.4128 -1.6309
    1SAPS  C310  106   2.054   5.704   8.546 -0.2812 -0.4710  0.3686
    1SAPS  H10X  107   1.945   5.695   8.528 -0.4562  2.5324 -0.5761
    1SAPS  H10Y  108   2.102   5.611   8.508 -0.2081 -0.0695 -0.5488
    1SAPS  C311  109   2.117   5.828   8.475  0.2782 -0.1903 -0.4434
    1SAPS  H11X  110   2.228   5.826   8.481  0.2915  1.2667  0.4223
    1SAPS  H11Y  111   2.083   5.923   8.522  1.0748  0.1526 -0.5443
    1SAPS  C312  112   2.101   5.830   8.322 -0.2759 -0.1496 -0.2143
    1SAPS  H12X  113   1.993   5.846   8.297 -0.6620 -0.0468  1.4090
    1SAPS  H12Y  114   2.137   5.731   8.287 -0.4255  0.0832 -1.0484
    1SAPS  C313  115   2.177   5.940   8.259  0.2275  0.4012  0.7249
    1SAPS  H13X  116   2.287   5.935   8.273  0.0805 -1.2744  1.5890
    1SAPS  H13Y  117   2.140   6.036   8.301  0.6332  0.9293 -0.1011
    1SAPS  C314  118   2.145   5.950   8.108  0.2756 -0.0860  0.0329
    1SAPS  H14X  119   2.035   5.950   8.096  0.0457  0.2685  1.7798
    1SAPS  H14Y  120   2.173   5.850   8.067  0.5369 -0.8524  1.9289
    1SAPS  C315  121   2.209   6.072   8.036  0.5819 -0.1848 -0.1745
    1SAPS  H15X  122   2.312   6.087   8.075  1.0585 -2.9640 -0.1997
    1SAPS  H15Y  123   2.148   6.163   8.054  1.4274  0.0435  1.7032
    1SAPS  C316  124   2.234   6.059   7.888 -0.2299  0.5253  0.3976
    1SAPS  H16X  125   2.272   5.958   7.863 -0.2434  0.5948  0.1011
    1SAPS  H16Y  126   2.310   6.134   7.857  1.0600  0.1159  2.3556
    1SAPS  C317  127   2.110   6.078   7.796 -0.0549  0.4119  0.0520
    1SAPS  H17X  128   2.083   6.185   7.798 -1.0783  0.1549  2.1035
    1SAPS  H17Y  129   2.031   6.015   7.842  0.0378 -1.8572 -2.6189
    1SAPS  C318  130   2.146   6.038   7.653 -0.3833  0.2108  0.2872
    1SAPS  H18X  131   2.114   5.932   7.647  2.7084 -0.9120  1.8438
    1SAPS  H18Y  132   2.253   6.047   7.624  0.0620  0.6400  1.9457
    1SAPS  H18Z  133   2.081   6.100   7.586  1.4871  1.2131 -0.6766
    2SAPS     N  134   6.151   5.823  10.494 -0.6771 -0.5447 -0.0784
    2SAPS   HN1  135   6.054   5.861  10.502 -0.3812  0.0588  1.0189
    2SAPS   HN2  136   6.172   5.823  10.392 -1.2191  0.0222 -0.1942
    2SAPS   HN3  137   6.149   5.724  10.524 -1.5189 -0.3932  0.3991
    2SAPS   C12  138   6.255   5.898  10.567  0.2356 -0.0180  0.5974
    2SAPS  H12A  139   6.255   5.996  10.522  2.1564 -0.4514 -0.4656
    2SAPS   C13  140   6.216   5.922  10.712  0.0079  0.4783  0.0178
    2SAPS  O13A  141   6.089   5.900  10.755 -0.1268 -0.1030  0.2003
    2SAPS  O13B  142   6.298   5.976  10.794  0.5320  0.0256  0.1145
    2SAPS   C11  143   6.396   5.818  10.562 -0.4732 -0.3357  0.1785
    2SAPS  H11A  144   6.391   5.743  10.643 -0.1238 -2.0459 -1.3179
    2SAPS  H11B  145   6.475   5.894  10.579  0.5236 -1.7047  2.0406
    2SAPS     P  146   6.536   5.673  10.384  0.3762 -0.0780  0.0671
    2SAPS   O13  147   6.660   5.716  10.457 -0.1116 -0.3645 -0.1433
    2SAPS   O14  148   6.506   5.531  10.384  0.1316 -0.0235 -0.1079
    2SAPS   O12  149   6.415   5.756  10.439  0.3119 -0.6704  0.7500
    2SAPS   O11  150   6.552   5.717  10.235 -0.1023 -1.1284  0.3659
    2SAPS    C1  151   6.434   5.719  10.152 -0.4122 -0.4053 -0.7825
    2SAPS    HA  152   6.360   5.643  10.186  0.7889 -0.1415  2.7525
    2SAPS    HB  153   6.393   5.819  10.176 -1.8211 -0.8412 -1.2445
    2SAPS    C2  154   6.452   5.715   9.990 -0.0990 -0.1985  0.7138
    2SAPS    HS  155   6.357   5.683   9.943  0.0035 -2.2622  1.7987
    2SAPS   O21  156   6.555   5.619   9.961  0.0648 -0.1474  0.1080
    2SAPS   C21  157   6.520   5.494   9.983 -0.2203  0.8475  0.0102
    2SAPS   O22  158   6.420   5.453  10.035 -0.3854  0.4849 -1.2886
    2SAPS   C22  159   6.636   5.405   9.942  0.0085  0.0529  0.5790
    2SAPS   H2R  160   6.601   5.305   9.909 -2.0950  0.2998  1.8814
    2SAPS   H2S  161   6.684   5.464   9.861  2.2645 -1.9223  0.3653
    2SAPS    C3  162   6.496   5.847   9.933  0.1378 -0.0331 -0.1190
    2SAPS    HX  163   6.600   5.867   9.966 -0.0131 -0.4369  0.6237
    2SAPS    HY  164   6.436   5.924   9.988  1.8927  0.0380  1.7928
    2SAPS   O31  165   6.470   5.844   9.790  0.2455 -0.9256  0.2137
    2SAPS   C31  166   6.488   5.965   9.725  0.1722  0.3555 -0.0653
    2SAPS   O32  167   6.508   6.071   9.782 -0.0522  0.9975 -0.5576
    2SAPS   C32  168   6.482   5.932   9.579 -0.1475 -0.6043 -0.1251
    2SAPS   H2X  169   6.391   5.983   9.542 -1.0167 -1.3409  0.9280
    2SAPS   H2Y  170   6.469   5.822   9.570  0.3325 -0.6236 -0.6715
    2SAPS   C23  171   6.743   5.393  10.054  0.2432 -0.2201 -0.0758
    2SAPS   H3R  172   6.802   5.309  10.009  0.6015  0.2496 -0.4896
    2SAPS   H3S  173   6.701   5.369  10.154 -0.4888  1.1932 -0.0281
    2SAPS   C24  174   6.838   5.523  10.071 -0.3924 -0.3065  1.0580
    2SAPS   H4R  175   6.792   5.595  10.141  2.0184  1.6054  0.8038
    2SAPS   H4S  176   6.835   5.560   9.966 -1.4488 -1.0102  0.8109
    2SAPS   C25  177   6.976   5.479  10.124  0.0740  0.5384  0.0674
    2SAPS   H5R  178   6.969   5.398  10.198  0.0494  1.2898  0.8963
    2SAPS   C26  179   7.097   5.523  10.082 -0.1182 -0.0131  1.1064
    2SAPS   H6R  180   7.194   5.493  10.125  0.1408  0.2800  0.7378
    2SAPS   C27  181   7.117   5.626   9.979  0.1732  0.5707  0.5136
    2SAPS   H7R  182   7.059   5.605   9.887  1.3634  0.8499 -0.3115
    2SAPS   H7S  183   7.223   5.631   9.946 -0.0954 -3.1425 -1.4232
    2SAPS   C28  184   7.087   5.769  10.018  0.4383 -0.4689  0.7191
    2SAPS   H8R  185   7.144   5.814  10.100  1.9411  0.8823 -0.9819
    2SAPS   C29  186   7.025   5.853   9.931 -0.6657 -0.5180  0.2374
    2SAPS   H9R  187   6.999   5.946   9.984 -2.6637 -2.3065  2.6496
    2SAPS  C210  188   6.965   5.837   9.790 -0.4609  0.3019  0.4120
    2SAPS  H10R  189   6.911   5.925   9.748 -0.8306 -1.7560 -4.0153
    2SAPS  H10S  190   6.889   5.756   9.799  0.4229 -0.6983 -0.7458
    2SAPS  C211  191   7.057   5.784   9.679 -0.0886 -0.0112 -0.7229
    2SAPS  H11R  192   7.160   5.825   9.677 -0.0133 -0.2238 -2.5220
    2SAPS  C212  193   7.021   5.712   9.574  0.0843  0.2569  0.2749
    2SAPS  H12R  194   7.093   5.674   9.500 -2.4326 -2.2443 -1.0627
    2SAPS  C213  195   6.880   5.655   9.549 -0.5577  0.1544 -0.6188
    2SAPS  H13R  196   6.815   5.739   9.515  1.3579  1.5328 -1.0413
    2SAPS  H13S  197   6.835   5.628   9.646  1.4555  0.3698  0.4382
    2SAPS  C214  198   6.878   5.534   9.461 -0.5915 -0.4100  0.4518
    2SAPS  H14R  199   6.938   5.450   9.502  1.4523  0.0878 -1.3094
    2SAPS  C215  200   6.828   5.521   9.336  0.2054  0.3215 -0.4441
    2SAPS  H15R  201   6.843   5.419   9.297  1.6108 -0.1217  1.1034
    2SAPS  C216  202   6.744   5.613   9.257  0.1078  0.2923 -0.0428
    2SAPS  H16R  203   6.728   5.711   9.306  1.0593  0.5240 -0.1815
    2SAPS  H16S  204   6.646   5.563   9.238  0.6319 -0.7810 -0.0362
    2SAPS  C217  205   6.795   5.646   9.119  0.2242 -0.7405  0.8061
    2SAPS  H17R  206   6.828   5.550   9.072  1.3369  0.2845 -0.6035
    2SAPS  H17S  207   6.884   5.713   9.121  0.2871 -0.6519 -1.6923
    2SAPS  C218  208   6.697   5.723   9.032  0.4763  0.2954 -0.2207
    2SAPS  H18R  209   6.661   5.818   9.078 -5.3645 -0.6091 -2.0561
    2SAPS  H18S  210   6.602   5.671   9.009  0.5165  0.9463 -1.9633
    2SAPS  C219  211   6.768   5.755   8.903  0.8630  0.3042  0.3261
    2SAPS  H19R  212   6.800   5.662   8.852 -2.6504 -3.6570  4.4759
    2SAPS  H19S  213   6.859   5.815   8.923  0.4910  1.8460 -2.1852
    2SAPS  C220  214   6.682   5.841   8.812 -0.1034  0.5373  0.8065
    2SAPS  H20R  215   6.582   5.802   8.783  0.2688 -0.5959  1.0147
    2SAPS  H20S  216   6.729   5.868   8.715 -0.3532  1.5597  0.9565
    2SAPS  H20T  217   6.667   5.936   8.868 -0.3509  0.2480  1.2386
    2SAPS   C33  218   6.617   5.965   9.510 -0.6385  0.6428  0.6200
    2SAPS   H3X  219   6.600   5.904   9.418 -0.5232 -2.0567  2.2950
    2SAPS   H3Y  220   6.704   5.923   9.564  0.5091  0.2098 -1.4336
    2SAPS   C34  221   6.631   6.114   9.467  0.3151 -0.0691  0.1318
    2SAPS   H4X  222   6.731   6.135   9.424  0.4526  0.8365  0.8546
    2SAPS   H4Y  223   6.634   6.181   9.556 -2.6715 -0.0317  0.3009
    2SAPS   C35  224   6.532   6.170   9.362  0.1745 -0.2055 -0.4020
    2SAPS   H5X  225   6.553   6.278   9.354 -0.8195 -0.0439 -0.9844
    2SAPS   H5Y  226   6.428   6.141   9.392  0.5553  0.0556  1.2765
    2SAPS   C36  227   6.528   6.094   9.225 -0.1663 -0.2696  1.3898
    2SAPS   H6X  228   6.534   5.984   9.241  0.5919 -0.7189 -1.5410
    2SAPS   H6Y  229   6.612   6.122   9.158 -0.5540  0.8175  1.3408
    2SAPS   C37  230   6.394   6.119   9.159  0.2208  0.1350 -0.2476
    2SAPS   H7X  231   6.375   6.228   9.157 -2.4022 -0.1604  2.0369
    2SAPS   H7Y  232   6.320   6.073   9.228  1.1093 -0.6722  0.1934
    2SAPS   C38  233   6.381   6.065   9.013 -0.1203  0.1716  0.0544
    2SAPS   H8X  234   6.425   5.963   9.015  0.0267  0.2465  0.8673
    2SAPS   H8Y  235   6.450   6.124   8.950  0.5041  0.8275  1.3207
    2SAPS   C39  236   6.230   6.073   8.966  0.6727 -1.0888  0.3111
    2SAPS   H9X  237   6.173   6.138   9.035  1.4606 -0.5915  0.4973
    2SAPS   H9Y  238   6.187   5.970   8.965  0.4242 -1.1072 -3.5992
    2SAPS  C310  239   6.231   6.132   8.818 -0.2145  0.2193  0.4167
    2SAPS  H10X  240   6.300   6.219   8.809 -1.1547  1.4141  3.4866
    2SAPS  H10Y  241   6.131   6.172   8.793 -0.6527 -0.1085  1.5566
    2SAPS  C311  242   6.250   6.016   8.717  0.3396 -0.2097 -0.6299
    2SAPS  H11X  243   6.171   5.938   8.727  0.4551 -0.2666 -0.1071
    2SAPS  H11Y  244   6.344   5.964   8.745 -1.7312 -2.9221  1.9599
    2SAPS  C312  245   6.231   6.051   8.572 -0.3812  0.0134  0.4963
    2SAPS  H12X  246   6.278   6.150   8.554 -1.8877  0.3429 -2.3379
    2SAPS  H12Y  247   6.121   6.062   8.556 -0.5532 -1.5543  0.4444
    2SAPS  C313  248   6.274   5.935   8.482 -0.2141 -0.1458  0.5307
    2SAPS  H13X  249   6.240   5.841   8.532 -0.7597 -1.7391 -2.5670
    2SAPS  H13Y  250   6.384   5.937   8.470 -0.1442 -0.7155  1.0107
    2SAPS  C314  251   6.193   5.940   8.351  0.1932 -0.2817 -0.2940
    2SAPS  H14X  252   6.085   5.949   8.375  0.0481  3.5742 -1.7822
    2SAPS  H14Y  253   6.191   5.846   8.291  0.7271 -0.7858  0.4749
    2SAPS  C315  254   6.240   6.059   8.266 -0.2815 -0.3504 -0.6385
    2SAPS  H15X  255   6.345   6.053   8.229 -0.4918  1.1628 -1.5890
    2SAPS  H15Y  256   6.244   6.149   8.330  1.7027 -0.6718 -0.2480
    2SAPS  C316  257   6.153   6.085   8.149  0.1408  0.3131 -0.6138
    2SAPS  H16X  258   6.053   6.108   8.192 -0.8510 -3.4208 -0.5895
    2SAPS  H16Y  259   6.150   5.992   8.089  3.0783  0.0835 -0.5493
    2SAPS  C317  260   6.190   6.213   8.065  0.4791  0.8616 -0.3535
    2SAPS  H17X  261   6.291   6.192   8.023  0.9114  0.5608  0.8157
    2SAPS  H17Y  262   6.184   6.308   8.122  1.2240  0.5973  0.1822
    2SAPS  C318  263   6.100   6.228   7.938  0.2124 -0.3818 -0.5928
    2SAPS  H18X  264   6.004   6.276   7.967  0.3826 -0.3104 -0.1304
    2SAPS  H18Y  265   6.079   6.133   7.885 -0.2853 -0.1951 -0.7371
    2SAPS  H18Z  266   6.146   6.291   7.858 -1.1315 -0.2840 -1.3109
    3SAPS     N  267   0.220   0.033  10.202 -0.0898  0.4208 -0.0234
    3SAPS   HN1  268   0.218   0.085  10.112 -1.6079  0.1653 -0.1655
    3SAPS   HN2  269   0.316   0.023  10.241 -0.2724 -0.9811  0.1428
    3SAPS   HN3  270   0.179  -0.061  10.185 -1.6914  1.4171 -2.1227
    3SAPS   C12  271   0.143   0.100  10.309 -0.4546  0.0304 -0.2312
    3SAPS  H12A  272   0.156   0.051  10.404 -2.7704  2.3469  1.4246
    3SAPS   C13  273   0.203   0.243  10.345  0.7902 -0.2840 -0.4262
    3SAPS  O13A  274   0.305   0.283  10.279  0.7494  0.0139  0.4450
    3SAPS  O13B  275   0.156   0.306  10.439 -0.3234 -0.2488  0.4868
    3SAPS   C11  276  -0.004   0.115  10.269 -0.3418  0.3500  0.2517
    3SAPS  H11A  277  -0.067   0.178  10.336 -2.4946  0.7403 -1.9762
    3SAPS  H11B  278  -0.048   0.013  10.270  0.9110 -0.2726 -2.3845
    3SAPS     P  279  -0.100   0.277  10.086  0.2899 -0.1934  0.2682
    3SAPS   O13  280  -0.241   0.243  10.123 -0.4960 -0.0374  0.1099
    3SAPS   O14  281  -0.043   0.402  10.144  0.2169  0.4504  0.9463
    3SAPS   O12  282  -0.017   0.158  10.136 -0.3669 -0.0138 -0.1488
    3SAPS   O11  283  -0.080   0.271   9.927  0.5639 -0.3572  0.5143
    3SAPS    C1  284  -0.188   0.310   9.842 -0.2164 -1.0602  0.2237
    3SAPS    HA  285  -0.252   0.389   9.887  1.5391  1.1495 -0.9298
    3SAPS    HB  286  -0.149   0.348   9.745 -1.8206 -3.1744 -1.3546
    3SAPS    C2  287  -0.292   0.202   9.796 -0.7610  0.1708  0.0339
    3SAPS    HS  288  -0.340   0.160   9.887 -2.8007  1.5314 -0.3457
    3SAPS   O21  289  -0.217   0.095   9.728 -0.0564 -0.3228  0.2388
    3SAPS   C21  290  -0.295  -0.013   9.698  0.2110  0.3546 -0.4362
    3SAPS   O22  291  -0.411  -0.027   9.733 -0.0401 -0.1065 -0.0701
    3SAPS   C22  292  -0.214  -0.117   9.626  0.4219 -0.0265 -0.1929
    3SAPS   H2R  293  -0.152  -0.075   9.545  1.7422 -1.4892  0.0145
    3SAPS   H2S  294  -0.147  -0.171   9.696  0.4475  0.2149 -0.0299
    3SAPS    C3  295  -0.393   0.265   9.710  0.1539  0.5501 -0.3340
    3SAPS    HX  296  -0.456   0.333   9.770  0.7427  1.0848 -0.3108
    3SAPS    HY  297  -0.473   0.197   9.673  0.0596  1.1741 -1.3053
    3SAPS   O31  298  -0.329   0.344   9.609  0.0201 -0.8519  0.5869
    3SAPS   C31  299  -0.314   0.281   9.494  0.3494 -0.2782  0.6311
    3SAPS   O32  300  -0.359   0.169   9.466  0.0208  0.2152  0.9320
    3SAPS   C32  301  -0.242   0.370   9.396  0.6558  0.4085  0.0390
    3SAPS   H2X  302  -0.258   0.477   9.419 -3.4959  0.1168 -0.5579
    3SAPS   H2Y  303  -0.276   0.350   9.292 -1.5594  0.5651  0.6646
    3SAPS   C23  304  -0.322  -0.207   9.566  0.4406 -0.0624 -0.1173
    3SAPS   H3R  305  -0.394  -0.252   9.637  1.9832 -1.3734  0.6887
    3SAPS   H3S  306  -0.270  -0.297   9.527 -1.5094 -2.1864  1.8889
    3SAPS   C24  307  -0.405  -0.145   9.454  0.4481  0.2611  0.6870
    3SAPS   H4R  308  -0.335  -0.093   9.385  1.7201 -3.5257 -1.1713
    3SAPS   H4S  309  -0.475  -0.075   9.504 -0.3812  0.9041 -1.2623
    3SAPS   C25  310  -0.484  -0.242   9.372 -0.4443  0.6451 -0.5402
    3SAPS   H5R  311  -0.494  -0.345   9.410  1.4590  0.6299  0.0091
    3SAPS   C26  312  -0.503  -0.219   9.241  0.3975  0.4958 -0.4337
    3SAPS   H6R  313  -0.542  -0.309   9.193  0.4750 -0.9976  2.1338
    3SAPS   C27  314  -0.485  -0.094   9.157 -0.1917 -0.4590  0.8453
    3SAPS   H7R  315  -0.393  -0.099   9.096 -1.4106 -1.8478 -0.9877
    3SAPS   H7S  316  -0.472   0.000   9.214 -0.8012 -0.5103  1.0756
    3SAPS   C28  317  -0.594  -0.071   9.054 -0.9914  0.5017  0.5228
    3SAPS   H8R  318  -0.691  -0.072   9.104 -0.8102 -0.3355  0.8711
    3SAPS   C29  319  -0.583  -0.025   8.926  0.6242  0.4275 -0.2264
    3SAPS   H9R  320  -0.676  -0.014   8.869  0.6858  0.3873 -0.3359
    3SAPS  C210  321  -0.450  -0.003   8.854 -0.9173 -0.1122 -0.4728
    3SAPS  H10R  322  -0.416  -0.103   8.819  1.2249  0.8622 -1.3563
    3SAPS  H10S  323  -0.367   0.020   8.925 -1.2972  2.2639 -0.7218
    3SAPS  C211  324  -0.459   0.090   8.740  0.2425  0.3906  0.3172
    3SAPS  H11R  325  -0.422   0.193   8.748 -1.8487  1.5717 -3.2217
    3SAPS  C212  326  -0.522   0.069   8.633 -0.2137 -0.8361 -0.0035
    3SAPS  H12R  327  -0.508   0.148   8.558  2.7648 -0.0767  1.2178
    3SAPS  C213  328  -0.596  -0.054   8.587  0.1714  0.3977 -0.6383
    3SAPS  H13R  329  -0.704  -0.028   8.588 -0.3603 -1.5754  1.0876
    3SAPS  H13S  330  -0.585  -0.140   8.657  0.4776 -1.0051 -2.3554
    3SAPS  C214  331  -0.566  -0.096   8.448 -0.6894  0.0308  0.0428
    3SAPS  H14R  332  -0.469  -0.061   8.410 -0.4600 -1.6508 -1.0654
    3SAPS  C215  333  -0.631  -0.180   8.367 -0.2346  0.2028  0.3976
    3SAPS  H15R  334  -0.596  -0.180   8.262 -1.5154 -1.1023 -0.0680
    3SAPS  C216  335  -0.766  -0.248   8.388  0.0712  0.1034  0.7430
    3SAPS  H16R  336  -0.820  -0.185   8.461 -1.1885  1.4023 -1.2093
    3SAPS  H16S  337  -0.756  -0.357   8.411 -0.6050 -0.2365 -0.4439
    3SAPS  C217  338  -0.851  -0.228   8.258 -0.7148  0.7629  0.3625
    3SAPS  H17R  339  -0.808  -0.303   8.188 -0.2627  0.1380  1.2982
    3SAPS  H17S  340  -0.833  -0.125   8.219 -0.2538  1.0162  1.2214
    3SAPS  C218  341  -1.004  -0.242   8.273  0.0612  0.4013  0.5370
    3SAPS  H18R  342  -1.044  -0.145   8.310 -3.1711 -0.4704 -0.3394
    3SAPS  H18S  343  -1.021  -0.318   8.353  0.3584  1.2983  1.4796
    3SAPS  C219  344  -1.086  -0.278   8.145 -0.0002  0.0246  0.4881
    3SAPS  H19R  345  -1.098  -0.189   8.079  0.1732  0.0153  0.4444
    3SAPS  H19S  346  -1.192  -0.300   8.171 -0.3920 -0.3741 -1.3321
    3SAPS  C220  347  -1.034  -0.393   8.065 -0.4822 -0.2342  0.4140
    3SAPS  H20R  348  -0.942  -0.368   8.009 -0.4420 -0.3640  0.4201
    3SAPS  H20S  349  -1.111  -0.432   7.995 -0.5286  1.1888 -0.3683
    3SAPS  H20T  350  -1.006  -0.476   8.134  1.2291  0.6579  0.8374
    3SAPS   C33  351  -0.089   0.339   9.414 -0.1833 -0.1089 -1.0131
    3SAPS   H3X  352  -0.060   0.287   9.508 -1.4998  3.9229  1.8953
    3SAPS   H3Y  353  -0.042   0.439   9.424 -2.6978  0.9439  1.8108
    3SAPS   C34  354  -0.031   0.264   9.296 -0.3410 -0.9821  0.4496
    3SAPS   H4X  355   0.077   0.282   9.316 -0.7754 -0.7997  2.8783
    3SAPS   H4Y  356  -0.060   0.319   9.204 -2.1854 -0.1111  1.5052
    3SAPS   C35  357  -0.079   0.119   9.288 -0.3381  0.3438 -0.4834
    3SAPS   H5X  358  -0.190   0.108   9.290 -0.1043 -2.7835 -0.2251
    3SAPS   H5Y  359  -0.046   0.081   9.387 -0.0242  1.6503 -0.0655
    3SAPS   C36  360  -0.022   0.031   9.177  0.3661 -0.4084  0.1111
    3SAPS   H6X  361  -0.021  -0.080   9.190  2.2382 -0.3337  1.0161
    3SAPS   H6Y  362   0.085   0.058   9.185  0.4498 -0.6459 -0.1789
    3SAPS   C37  363  -0.065   0.061   9.029 -0.6793  0.3018 -0.2193
    3SAPS   H7X  364  -0.041   0.165   8.997 -0.3024 -0.4496 -2.5597
    3SAPS   H7Y  365  -0.175   0.050   9.018 -0.8556  0.8285  0.8677
    3SAPS   C38  366   0.018  -0.036   8.946 -0.1617 -0.3896  1.9677
    3SAPS   H8X  367  -0.004  -0.139   8.983 -1.0321 -1.0593 -0.2672
    3SAPS   H8Y  368   0.127  -0.018   8.960  0.3400  0.0007 -1.4630
    3SAPS   C39  369  -0.025  -0.030   8.793  0.1409  0.1847  0.2417
    3SAPS   H9X  370  -0.031   0.077   8.764  1.5287  0.1371 -0.2545
    3SAPS   H9Y  371  -0.128  -0.073   8.788 -0.4375  1.5623 -0.1216
    3SAPS  C310  372   0.067  -0.101   8.686  0.0276 -0.3287 -0.4745
    3SAPS  H10X  373   0.080  -0.209   8.705 -0.0599 -0.3965 -0.7955
    3SAPS  H10Y  374   0.169  -0.058   8.680  0.4543 -1.1289  0.6604
    3SAPS  C311  375   0.017  -0.090   8.541  0.9476  0.6972  0.4064
    3SAPS  H11X  376   0.079  -0.144   8.467 -0.7866  2.1493 -2.2624
    3SAPS  H11Y  377   0.020   0.016   8.507  1.7475 -0.0356 -1.9675
    3SAPS  C312  378  -0.125  -0.144   8.514  0.3666  0.4267  0.5525
    3SAPS  H12X  379  -0.199  -0.108   8.589 -0.2106  0.7134 -0.1342
    3SAPS  H12Y  380  -0.125  -0.254   8.531  0.2091  0.5208  1.1781
    3SAPS  C313  381  -0.187  -0.113   8.372  0.6136  0.0677  0.8289
    3SAPS  H13X  382  -0.280  -0.174   8.369  0.6951  0.0049 -0.9376
    3SAPS  H13Y  383  -0.109  -0.130   8.295  1.6502  0.1068  1.8393
    3SAPS  C314  384  -0.223   0.036   8.372 -0.0660  0.2957 -0.4759
    3SAPS  H14X  385  -0.135   0.101   8.388  0.7127 -0.5508 -1.2155
    3SAPS  H14Y  386  -0.296   0.047   8.455 -0.7797 -1.7401 -0.7646
    3SAPS  C315  387  -0.290   0.081   8.242  1.1085  0.2543  0.1087
    3SAPS  H15X  388  -0.364   0.006   8.209  1.2650 -0.2553  0.8948
    3SAPS  H15Y  389  -0.214   0.087   8.161  1.4003 -0.3384  0.3289
    3SAPS  C316  390  -0.366   0.213   8.263 -0.1458  0.2916 -0.2031
    3SAPS  H16X  391  -0.302   0.293   8.305 -0.0919 -0.3902  1.0527
    3SAPS  H16Y  392  -0.442   0.192   8.341  1.5572 -3.3196  0.7010
    3SAPS  C317  393  -0.453   0.260   8.144  0.6406  0.3648  0.2455
    3SAPS  H17X  394  -0.535   0.186   8.139  0.4197  0.3962  2.4275
    3SAPS  H17Y  395  -0.385   0.253   8.056 -0.9099 -0.5799 -0.9161
    3SAPS  C318  396  -0.509   0.402   8.153  0.2923  1.0761 -0.2632
    3SAPS  H18X  397  -0.577   0.421   8.238  1.0074  0.1711  0.5240
    3SAPS  H18Y  398  -0.561   0.425   8.057 -0.6826  0.0643  0.0012
    3SAPS  H18Z  399  -0.422   0.470   8.168  1.4655  0.3284 -3.0441
    4SAPS     N  400   3.572   1.560  10.610  0.0448  0.3626 -0.5367
    4SAPS   HN1  401   3.626   1.647  10.592 -0.7798  0.8052 -0.9675
    4SAPS   HN2  402   3.621   1.488  10.554 -2.2891 -0.7413 -1.2695
    4SAPS   HN3  403   3.473   1.571  10.578  0.3177  3.0808 -0.7250
    4SAPS   C12  404   3.578   1.511  10.750 -0.4145  0.3229 -0.5988
    4SAPS  H12A  405   3.539   1.411  10.754  0.0256  0.1056 -1.5308
    4SAPS   C13  406   3.721   1.516  10.811 -0.1977  0.3974 -0.0663
    4SAPS  O13A  407   3.821   1.560  10.752 -0.0238 -0.6311  0.6456
    4SAPS  O13B  408   3.732   1.439  10.909  0.6955  0.7909  0.6078
    4SAPS   C11  409   3.489   1.600  10.839  0.0561 -0.3949  0.0398
    4SAPS  H11A  410   3.530   1.701  10.818  0.1234 -0.5319 -0.5213
    4SAPS  H11B  411   3.497   1.586  10.949 -0.6416  1.4632  0.3630
    4SAPS     P  412   3.253   1.689  10.762 -0.6967 -0.3253 -0.1495
    4SAPS   O13  413   3.127   1.632  10.711 -0.4644 -0.1055 -0.0523
    4SAPS   O14  414   3.245   1.778  10.880 -1.1454 -0.1423 -0.4055
    4SAPS   O12  415   3.358   1.572  10.795 -0.4388 -0.3940 -0.0852
    4SAPS   O11  416   3.315   1.759  10.637 -1.8700  0.3392  0.6763
    4SAPS    C1  417   3.371   1.892  10.635  0.3670 -0.4627 -0.0362
    4SAPS    HA  418   3.447   1.895  10.717  1.6795  0.2479 -1.2340
    4SAPS    HB  419   3.441   1.904  10.549  1.2434 -3.0945  0.2070
    4SAPS    C2  420   3.260   2.006  10.628  0.0714  0.1831 -0.2666
    4SAPS    HS  421   3.204   2.003  10.724  1.4075 -1.3067  0.5007
    4SAPS   O21  422   3.166   1.977  10.520 -0.1362  0.0707  0.1039
    4SAPS   C21  423   3.050   2.049  10.521 -1.1519  0.5419  0.2816
    4SAPS   O22  424   3.026   2.129  10.607 -0.4841 -0.6658  0.4520
    4SAPS   C22  425   2.964   2.009  10.404 -0.5232 -0.4565  0.3751
    4SAPS   H2R  426   2.867   1.980  10.449  0.3789 -1.1568  1.9564
    4SAPS   H2S  427   2.959   2.101  10.343 -0.0651 -1.1535 -0.7454
    4SAPS    C3  428   3.322   2.146  10.601  0.5791 -0.5894  0.1442
    4SAPS    HX  429   3.367   2.193  10.691  1.8544 -0.2465 -0.6336
    4SAPS    HY  430   3.240   2.220  10.594 -1.7351 -2.7080  2.6959
    4SAPS   O31  431   3.416   2.145  10.492  0.6018 -0.5915 -0.0797
    4SAPS   C31  432   3.370   2.187  10.380 -0.5353 -0.2292 -0.1449
    4SAPS   O32  433   3.262   2.239  10.365  0.1345  0.1063 -0.3310
    4SAPS   C32  434   3.468   2.146  10.269 -0.2979 -0.0621 -0.5117
    4SAPS   H2X  435   3.461   2.036  10.259 -0.7550 -0.0875  0.0635
    4SAPS   H2Y  436   3.570   2.156  10.312 -0.7289  0.3990  0.4296
    4SAPS   C23  437   3.013   1.887  10.333  0.1907  0.4961  0.2710
    4SAPS   H3R  438   3.016   1.791  10.389 -0.3236 -0.6011 -1.5165
    4SAPS   H3S  439   3.119   1.911  10.310  0.0673  1.5662  0.7441
    4SAPS   C24  440   2.938   1.852  10.195 -0.1887 -0.0020  0.1660
    4SAPS   H4R  441   2.832   1.824  10.216  0.2751 -0.4094  2.2138
    4SAPS   H4S  442   2.989   1.757  10.167  0.1845  0.2422  0.0166
    4SAPS   C25  443   2.946   1.966  10.096 -0.4343  0.7011  0.3392
    4SAPS   H5R  444   2.911   2.064  10.129 -0.4466  0.5276  0.8500
    4SAPS   C26  445   2.998   1.952   9.972  0.0126  0.3563 -0.9173
    4SAPS   H6R  446   2.991   2.034   9.898  1.0830  0.1663 -1.2409
    4SAPS   C27  447   3.043   1.829   9.901 -0.4858  0.8232  0.1340
    4SAPS   H7R  448   3.083   1.751   9.970 -1.9201 -0.1773 -0.1182
    4SAPS   H7S  449   3.134   1.861   9.846  1.1357 -3.3173  0.0136
    4SAPS   C28  450   2.944   1.753   9.818 -0.1055 -0.4234  0.3795
    4SAPS   H8R  451   2.896   1.672   9.874  0.8864 -0.6258  0.9567
    4SAPS   C29  452   2.923   1.769   9.684  0.3052  0.3220  0.5212
    4SAPS   H9R  453   2.847   1.705   9.637  1.1043 -0.3690  0.1419
    4SAPS  C210  454   2.985   1.877   9.599  0.1727 -1.0959 -0.0994
    4SAPS  H10R  455   3.080   1.832   9.563  0.0594 -0.6817 -0.9432
    4SAPS  H10S  456   3.024   1.957   9.666 -0.1151 -0.9054 -0.1553
    4SAPS  C211  457   2.913   1.939   9.483  0.2111 -0.5104  0.1389
    4SAPS  H11R  458   2.853   2.026   9.516 -3.2098 -2.1353 -1.3074
    4SAPS  C212  459   2.899   1.894   9.357  0.1701 -0.1958 -0.6559
    4SAPS  H12R  460   2.835   1.958   9.293 -1.4987  0.8685  1.8838
    4SAPS  C213  461   2.957   1.770   9.294  0.3111 -0.0321 -0.3611
    4SAPS  H13R  462   2.956   1.687   9.368  1.2255 -2.7936 -3.2490
    4SAPS  H13S  463   3.062   1.783   9.260  0.4320  1.4608  0.4901
    4SAPS  C214  464   2.858   1.723   9.193 -0.1622 -0.4493 -0.0863
    4SAPS  H14R  465   2.802   1.637   9.232  0.8597 -1.0929  0.0020
    4SAPS  C215  466   2.851   1.758   9.064  0.1894  0.2705  0.2638
    4SAPS  H15R  467   2.782   1.701   9.001  1.6124 -1.6953  0.3993
    4SAPS  C216  468   2.928   1.867   8.996 -0.0649 -0.2968  0.1464
    4SAPS  H16R  469   3.015   1.815   8.950 -1.0508 -3.2663  1.3732
    4SAPS  H16S  470   2.974   1.944   9.061  1.6309 -0.6153 -0.6208
    4SAPS  C217  471   2.836   1.924   8.887 -0.0865  0.1332 -0.3821
    4SAPS  H17R  472   2.743   1.967   8.930  0.4457  1.8764 -0.9058
    4SAPS  H17S  473   2.804   1.845   8.817  2.9718 -0.4385 -1.2671
    4SAPS  C218  474   2.891   2.043   8.800 -0.4769  0.4676  0.0121
    4SAPS  H18R  475   2.978   2.015   8.738 -1.6531 -2.6519 -0.3895
    4SAPS  H18S  476   2.922   2.118   8.876  0.3079 -2.7634  3.1260
    4SAPS  C219  477   2.797   2.101   8.693  0.1233 -0.0449 -0.9945
    4SAPS  H19R  478   2.815   2.207   8.666 -3.3907  1.0690  0.4850
    4SAPS  H19S  479   2.696   2.098   8.740  0.4604 -0.6390 -0.2744
    4SAPS  C220  480   2.808   2.022   8.560 -0.3902  0.0849  0.1344
    4SAPS  H20R  481   2.909   2.038   8.516 -0.4093 -0.9595 -0.3183
    4SAPS  H20S  482   2.729   2.053   8.489  0.1793 -0.0503 -0.5793
    4SAPS  H20T  483   2.807   1.912   8.579  0.4617  0.1685  0.7305
    4SAPS   C33  484   3.443   2.228  10.142  0.2358 -0.6390  0.5242
    4SAPS   H3X  485   3.540   2.231  10.087  0.2072 -1.2322  0.4393
    4SAPS   H3Y  486   3.416   2.334  10.163 -0.6763 -0.3383 -1.8396
    4SAPS   C34  487   3.347   2.170  10.043 -0.2420  0.0079 -0.6512
    4SAPS   H4X  488   3.248   2.199  10.084 -0.0082  0.8266 -0.6536
    4SAPS   H4Y  489   3.359   2.060  10.037  0.8921  0.1516 -1.4297
    4SAPS   C35  490   3.377   2.214   9.900  0.1623 -0.0254 -0.1873
    4SAPS   H5X  491   3.485   2.194   9.883  0.6584  1.3117  1.1144
    4SAPS   H5Y  492   3.354   2.323   9.906 -3.6109 -0.7188  0.2373
    4SAPS   C36  493   3.279   2.159   9.790  0.6688  0.9411 -0.5678
    4SAPS   H6X  494   3.173   2.184   9.810  0.2693 -1.1171  0.1352
    4SAPS   H6Y  495   3.288   2.049   9.790 -0.7870  0.8026 -0.4444
    4SAPS   C37  496   3.320   2.208   9.649 -0.3238 -0.4535 -0.2012
    4SAPS   H7X  497   3.420   2.165   9.629 -0.4912 -0.9323 -0.0187
    4SAPS   H7Y  498   3.320   2.319   9.653  0.4515 -0.4956  2.0032
    4SAPS   C38  499   3.212   2.183   9.545  0.0266  0.6346  0.5825
    4SAPS   H8X  500   3.115   2.228   9.575  0.8180  2.4543  0.5586
    4SAPS   H8Y  501   3.212   2.072   9.536  2.3864  0.5973  0.2245
    4SAPS   C39  502   3.248   2.234   9.402  0.5617  0.9638  0.0128
    4SAPS   H9X  503   3.351   2.198   9.382 -0.3656 -0.8066 -2.1154
    4SAPS   H9Y  504   3.261   2.344   9.400  0.4337  0.9726 -0.4961
    4SAPS  C310  505   3.151   2.197   9.288 -0.4200 -0.0267  0.4205
    4SAPS  H10X  506   3.109   2.094   9.293 -1.6086  0.4805  1.2832
    4SAPS  H10Y  507   3.202   2.193   9.189  2.6543 -0.9783  1.9346
    4SAPS  C311  508   3.026   2.287   9.269  0.3737  0.8337 -0.1574
    4SAPS  H11X  509   3.061   2.392   9.256 -0.1953  0.9945 -0.4223
    4SAPS  H11Y  510   2.964   2.287   9.362 -1.2886 -1.2876 -1.1717
    4SAPS  C312  511   2.939   2.256   9.142 -0.2737  0.3765  1.0977
    4SAPS  H12X  512   2.914   2.147   9.140  0.5454  0.1672 -1.0363
    4SAPS  H12Y  513   3.002   2.260   9.051 -0.9385  1.7550  0.6629
    4SAPS  C313  514   2.821   2.349   9.127 -0.1144  0.3868 -0.8152
    4SAPS  H13X  515   2.854   2.454   9.141 -0.9388  0.7298 -1.3904
    4SAPS  H13Y  516   2.756   2.335   9.216  2.2747 -0.4105  0.9407
    4SAPS  C314  517   2.744   2.334   8.993 -0.4638  0.0106 -0.2875
    4SAPS  H14X  518   2.742   2.224   8.976 -0.1450 -0.0970  0.3350
    4SAPS  H14Y  519   2.806   2.371   8.908  2.7139 -1.7880  1.0753
    4SAPS  C315  520   2.607   2.414   8.978 -0.5273 -0.1079 -1.0568
    4SAPS  H15X  521   2.630   2.522   8.986 -0.6836 -0.1832  1.1800
    4SAPS  H15Y  522   2.540   2.382   9.061 -1.2114  1.1232 -1.1230
    4SAPS  C316  523   2.527   2.378   8.845 -0.4829 -0.9664 -0.5719
    4SAPS  H16X  524   2.422   2.408   8.866 -0.3611 -0.8063 -0.1835
    4SAPS  H16Y  525   2.544   2.269   8.836  1.0826 -0.9588  1.5137
    4SAPS  C317  526   2.578   2.441   8.712 -0.0356 -0.7493 -0.1078
    4SAPS  H17X  527   2.686   2.432   8.685  0.1987  1.6465 -0.2196
    4SAPS  H17Y  528   2.576   2.552   8.722 -0.6405 -0.7664 -0.0520
    4SAPS  C318  529   2.494   2.399   8.596 -0.3453 -0.4957  0.6929
    4SAPS  H18X  530   2.388   2.416   8.623 -0.2012 -0.6952  1.3951
    4SAPS  H18Y  531   2.501   2.294   8.562 -1.1693 -0.7817  1.3809
    4SAPS  H18Z  532   2.522   2.462   8.508  1.6531 -0.1927  1.4819
    5SAPS     N  533   5.908   0.600  10.566  0.4757  0.1946 -0.5461
    5SAPS   HN1  534   5.817   0.580  10.614 -0.1122 -0.6182 -1.9253
    5SAPS   HN2  535   5.875   0.624  10.470  0.8484  1.8460 -0.2971
    5SAPS   HN3  536   5.961   0.511  10.569 -0.1104 -0.1459 -0.1414
    5SAPS   C12  537   5.976   0.709  10.637 -0.1764 -0.3029  0.0076
    5SAPS  H12A  538   5.950   0.805  10.594  0.4301 -0.5767 -1.0096
    5SAPS   C13  539   5.939   0.715  10.782 -0.6414 -0.1551  0.1282
    5SAPS  O13A  540   5.857   0.632  10.830  0.2856  0.2170  0.0287
    5SAPS  O13B  541   6.003   0.792  10.858 -0.3617 -0.7305  0.6474
    5SAPS   C11  542   6.130   0.696  10.616 -0.4149 -0.2123  0.1551
    5SAPS  H11A  543   6.168   0.606  10.668  1.1250  0.4812  0.2897
    5SAPS  H11B  544   6.166   0.780  10.680 -0.4277 -1.7326  2.2756
    5SAPS     P  545   6.195   0.841  10.409 -0.0702 -0.0526  0.0849
    5SAPS   O13  546   6.060   0.907  10.401 -0.2160  0.4119  0.3535
    5SAPS   O14  547   6.304   0.908  10.477  0.3421  0.1508 -0.2083
    5SAPS   O12  548   6.178   0.700  10.479 -0.3851 -0.3557 -0.1984
    5SAPS   O11  549   6.243   0.790  10.265  0.5383 -0.3149 -0.2940
    5SAPS    C1  550   6.195   0.666  10.207 -0.0137 -0.3451  0.3103
    5SAPS    HA  551   6.280   0.599  10.234  1.4914  1.2468 -0.2426
    5SAPS    HB  552   6.103   0.623  10.250 -0.2403 -2.2802 -1.9322
    5SAPS    C2  553   6.179   0.676  10.053  0.1063  0.0661  0.1011
    5SAPS    HS  554   6.145   0.578  10.013 -1.1949  1.0292 -1.2659
    5SAPS   O21  555   6.307   0.717   9.992  0.1084  0.0119 -0.0493
    5SAPS   C21  556   6.395   0.621   9.981  0.5095  0.0217  0.1558
    5SAPS   O22  557   6.392   0.516  10.037  0.1281  0.0681 -0.5205
    5SAPS   C22  558   6.496   0.663   9.872  0.5040 -0.5977 -0.1263
    5SAPS   H2R  559   6.515   0.772   9.880  2.2170 -0.5606 -3.1293
    5SAPS   H2S  560   6.594   0.617   9.900  0.5959  0.9235  2.3619
    5SAPS    C3  561   6.076   0.789  10.027  0.5021 -0.0107  0.2547
    5SAPS    HX  562   6.127   0.884  10.053 -0.5038  0.0793  2.0360
    5SAPS    HY  563   5.988   0.787  10.095  1.1948  0.7201  1.2088
    5SAPS   O31  564   6.026   0.790   9.887  0.0705  0.2999  0.1272
    5SAPS   C31  565   5.927   0.703   9.864  0.9290  0.9643 -0.2830
    5SAPS   O32  566   5.884   0.629   9.953 -0.5716  0.0595  0.7774
    5SAPS   C32  567   5.885   0.697   9.725 -0.0454 -0.4141 -0.8831
    5SAPS   H2X  568   5.976   0.715   9.664 -0.3488  1.4440 -0.8419
    5SAPS   H2Y  569   5.820   0.780   9.692 -0.8670 -0.9759 -0.7148
    5SAPS   C23  570   6.428   0.651   9.730 -0.3177  0.0485  0.2217
    5SAPS   H3R  571   6.338   0.714   9.716 -0.3776 -0.3519 -1.4462
    5SAPS   H3S  572   6.389   0.548   9.715 -0.1085 -0.4693  2.7974
    5SAPS   C24  573   6.528   0.664   9.613 -0.9032  0.9675  0.0019
    5SAPS   H4R  574   6.485   0.619   9.522 -0.7974 -1.1937  0.9493
    5SAPS   H4S  575   6.623   0.609   9.635 -0.7658  1.1954 -0.0143
    5SAPS   C25  576   6.561   0.806   9.586 -0.0882 -0.4385 -0.2263
    5SAPS   H5R  577   6.597   0.857   9.676  0.8849 -1.1504 -0.1933
    5SAPS   C26  578   6.589   0.867   9.469  0.0521 -0.4109  0.1862
    5SAPS   H6R  579   6.600   0.976   9.464 -1.4447 -0.2487 -0.2669
    5SAPS   C27  580   6.591   0.800   9.330 -0.3049 -0.1617 -0.5429
    5SAPS   H7R  581   6.533   0.865   9.261  0.1344  0.4471 -0.3524
    5SAPS   H7S  582   6.539   0.703   9.317 -0.7456  0.4749 -5.3667
    5SAPS   C28  583   6.734   0.797   9.279  0.3022  0.0450  0.1839
    5SAPS   H8R  584   6.811   0.814   9.355 -0.8140 -1.0783  1.6427
    5SAPS   C29  585   6.773   0.775   9.145 -0.0718  0.0119 -0.0771
    5SAPS   H9R  586   6.878   0.792   9.118 -0.0737 -0.7427 -0.6001
    5SAPS  C210  587   6.686   0.727   9.035  0.3679 -0.5937  1.0390
    5SAPS  H10R  588   6.590   0.783   9.026 -0.0322 -1.4952 -0.7256
    5SAPS  H10S  589   6.648   0.623   9.042 -2.1332 -0.0059 -1.7574
    5SAPS  C211  590   6.753   0.750   8.899  0.4931  0.3884 -0.1908
    5SAPS  H11R  591   6.775   0.856   8.882 -1.2156  0.7020 -0.6044
    5SAPS  C212  592   6.795   0.663   8.807 -0.2622  0.3125  0.0187
    5SAPS  H12R  593   6.860   0.697   8.725 -1.2644  2.8257  0.1893
    5SAPS  C213  594   6.774   0.512   8.807  0.0426 -0.2647 -0.1136
    5SAPS  H13R  595   6.670   0.497   8.841  0.2276 -2.1224 -0.3069
    5SAPS  H13S  596   6.839   0.461   8.881  0.0418 -0.1434 -0.0279
    5SAPS  C214  597   6.786   0.442   8.671  0.2870 -0.4528 -0.2545
    5SAPS  H14R  598   6.859   0.359   8.674 -0.0587 -0.7371  0.4818
    5SAPS  C215  599   6.710   0.465   8.559 -0.3508 -0.1841  0.0747
    5SAPS  H15R  600   6.721   0.399   8.472  1.4422 -1.2608  1.0645
    5SAPS  C216  601   6.607   0.582   8.534  0.5119 -0.0498  0.1967
    5SAPS  H16R  602   6.577   0.568   8.428  0.6202 -2.1538  0.4024
    5SAPS  H16S  603   6.660   0.679   8.540  2.9568 -1.3568  1.6040
    5SAPS  C217  604   6.486   0.612   8.628 -0.1822  0.3416 -0.7959
    5SAPS  H17R  605   6.433   0.692   8.572 -0.8720 -0.0521 -0.7190
    5SAPS  H17S  606   6.529   0.638   8.727 -1.5375 -0.9232  0.1592
    5SAPS  C218  607   6.391   0.497   8.650  0.0934  0.2222  0.0431
    5SAPS  H18R  608   6.377   0.453   8.549 -1.2628  1.2417 -0.2418
    5SAPS  H18S  609   6.428   0.424   8.725 -1.0154  2.1265  2.6145
    5SAPS  C219  610   6.251   0.548   8.703  0.0771  0.0086  0.6036
    5SAPS  H19R  611   6.229   0.618   8.619  1.6322 -0.5573 -0.3086
    5SAPS  H19S  612   6.260   0.608   8.796  1.3249 -0.9157  1.1075
    5SAPS  C220  613   6.149   0.437   8.723 -0.0786 -0.5461 -0.1200
    5SAPS  H20R  614   6.046   0.471   8.747 -0.2886 -0.0984 -1.5635
    5SAPS  H20S  615   6.180   0.365   8.802 -0.6009 -2.9053 -1.9372
    5SAPS  H20T  616   6.142   0.382   8.627  0.2422 -1.7537  0.5310
    5SAPS   C33  617   5.803   0.569   9.700 -0.2057 -0.2088  0.7156
    5SAPS   H3X  618   5.700   0.577   9.741 -0.8232  5.3426 -1.1062
    5SAPS   H3Y  619   5.853   0.485   9.753 -1.2969  0.1082  2.3099
    5SAPS   C34  620   5.798   0.527   9.556  0.3263 -0.4362 -0.0290
    5SAPS   H4X  621   5.758   0.423   9.558 -0.8034 -0.0488  3.4926
    5SAPS   H4Y  622   5.903   0.531   9.517  0.6900  3.1440  0.9836
    5SAPS   C35  623   5.722   0.625   9.464 -0.3310 -0.4767  0.0694
    5SAPS   H5X  624   5.785   0.713   9.439  0.0591 -0.6300  0.5070
    5SAPS   H5Y  625   5.638   0.666   9.524 -0.1810 -2.0502  1.4297
    5SAPS   C36  626   5.657   0.564   9.334 -0.3091 -0.4843 -0.6099
    5SAPS   H6X  627   5.585   0.630   9.281  0.2307 -0.4931 -1.3736
    5SAPS   H6Y  628   5.611   0.469   9.368  0.4691 -0.7127 -0.1710
    5SAPS   C37  629   5.774   0.532   9.233  0.3649  0.8545  0.6090
    5SAPS   H7X  630   5.837   0.454   9.282 -0.3164  0.0604  0.2585
    5SAPS   H7Y  631   5.849   0.613   9.225  0.2706  1.4227  3.9047
    5SAPS   C38  632   5.714   0.479   9.100  0.3137  0.2807  0.1359
    5SAPS   H8X  633   5.641   0.401   9.130 -0.1937  1.1019  1.1140
    5SAPS   H8Y  634   5.796   0.438   9.038 -0.2378  0.8546 -0.9998
    5SAPS   C39  635   5.649   0.593   9.009  0.1057 -0.3030 -0.4337
    5SAPS   H9X  636   5.715   0.682   9.017 -0.0212 -0.2079 -0.4451
    5SAPS   H9Y  637   5.544   0.619   9.032 -0.7138 -2.1796 -1.7450
    5SAPS  C310  638   5.663   0.559   8.857  0.1413 -1.1090 -1.2936
    5SAPS  H10X  639   5.770   0.545   8.832  0.3295  0.5240 -1.5750
    5SAPS  H10Y  640   5.649   0.660   8.813  1.6144  0.3709  1.3836
    5SAPS  C311  641   5.579   0.443   8.804 -0.1750  0.9112  0.4241
    5SAPS  H11X  642   5.481   0.461   8.854 -0.9187  2.2036 -1.4274
    5SAPS  H11Y  643   5.633   0.352   8.838 -0.8494 -0.4975 -2.0417
    5SAPS  C312  644   5.559   0.451   8.656  0.3800  0.3747  0.2553
    5SAPS  H12X  645   5.659   0.454   8.607  0.2812 -0.4122  0.0002
    5SAPS  H12Y  646   5.508   0.543   8.619  1.5974  1.1479  0.4327
    5SAPS  C313  647   5.482   0.322   8.599  0.3105  0.0214  0.1323
    5SAPS  H13X  648   5.377   0.340   8.631  0.3374  1.1886 -0.3766
    5SAPS  H13Y  649   5.516   0.224   8.638  2.3638  0.2053 -1.0560
    5SAPS  C314  650   5.470   0.311   8.450  0.2089 -0.0827  0.4820
    5SAPS  H14X  651   5.566   0.285   8.400  1.1349  0.2894  2.0189
    5SAPS  H14Y  652   5.431   0.406   8.408  0.3988 -0.4794 -0.6512
    5SAPS  C315  653   5.377   0.197   8.406 -0.2944  0.1640  0.2310
    5SAPS  H15X  654   5.383   0.118   8.484  0.7453  1.9932  2.0967
    5SAPS  H15Y  655   5.408   0.147   8.311 -1.2181 -2.1866  1.0830
    5SAPS  C316  656   5.231   0.237   8.375 -0.0808 -0.6586 -0.7550
    5SAPS  H16X  657   5.231   0.313   8.294 -1.3196 -0.2216 -0.3710
    5SAPS  H16Y  658   5.180   0.290   8.458 -1.2280 -0.6391 -1.4487
    5SAPS  C317  659   5.147   0.110   8.350  0.3785  0.3208  0.4932
    5SAPS  H17X  660   5.203   0.037   8.288  0.6529  0.0165  1.0914
    5SAPS  H17Y  661   5.048   0.122   8.301 -1.1970 -1.1679  3.0756
    5SAPS  C318  662   5.115   0.035   8.475  0.0707 -0.6392  0.5850
    5SAPS  H18X  663   5.083   0.121   8.538 -0.6939  2.1533 -3.1838
    5SAPS  H18Y  664   5.204  -0.017   8.517  0.5183  1.3963  2.3191
    5SAPS  H18Z  665   5.022  -0.024   8.466 -0.4822  0.3574 -0.4530
    6SAPS     N  666   4.839   5.071  10.585  0.3405 -0.1556  0.1974
    6SAPS   HN1  667   4.925   5.067  10.526 -1.4165 -1.9035 -2.4233
    6SAPS   HN2  668   4.846   5.145  10.659 -2.4067  0.0912  0.3122
    6SAPS   HN3  669   4.841   4.978  10.632  1.3780 -1.3162 -2.0243
    6SAPS   C12  670   4.718   5.097  10.508  0.3979  0.4198 -0.5990
    6SAPS  H12A  671   4.699   5.006  10.453 -1.0053 -1.3855  2.6254
    6SAPS   C13  672   4.592   5.109  10.600  0.3876  0.6369  0.2348
    6SAPS  O13A  673   4.597   5.087  10.726  0.4939  0.0735  0.0450
    6SAPS  O13B  674   4.492   5.168  10.544 -0.2226  0.6122  0.0279
    6SAPS   C11  675   4.731   5.230  10.423  0.1178 -0.2602  0.1885
    6SAPS  H11A  676   4.730   5.317  10.491  0.1821 -0.8805  1.0056
    6SAPS  H11B  677   4.640   5.237  10.360 -0.7556 -1.4774  1.2599
    6SAPS     P  678   4.874   5.352  10.233 -0.7105  0.4315  0.2535
    6SAPS   O13  679   4.806   5.471  10.287 -0.4939  0.6867 -0.6955
    6SAPS   O14  680   5.016   5.358  10.199 -0.6006 -0.4366 -0.1803
    6SAPS   O12  681   4.855   5.242  10.340  0.1373  0.3582 -0.2545
    6SAPS   O11  682   4.796   5.288  10.118 -0.0456 -0.4979 -0.1394
    6SAPS    C1  683   4.809   5.149  10.082  0.0467 -0.0734  0.0328
    6SAPS    HA  684   4.913   5.134  10.044  0.3417  0.4813  0.6044
    6SAPS    HB  685   4.797   5.081  10.169  1.0329  0.9993  1.0452
    6SAPS    C2  686   4.698   5.121   9.973 -0.1294 -0.5156  0.1704
    6SAPS    HS  687   4.704   5.010   9.971 -2.7373 -0.7060 -0.1999
    6SAPS   O21  688   4.742   5.168   9.852 -0.1572 -0.9156 -0.7381
    6SAPS   C21  689   4.835   5.113   9.768 -0.1937 -0.4286  0.1887
    6SAPS   O22  690   4.888   5.006   9.784 -0.2155 -0.4730 -0.2352
    6SAPS   C22  691   4.855   5.212   9.653  0.6771 -0.0004  0.2904
    6SAPS   H2R  692   4.762   5.239   9.598  1.8741  2.4795 -0.7050
    6SAPS   H2S  693   4.875   5.308   9.706 -0.7895  1.4221 -1.5865
    6SAPS    C3  694   4.550   5.164  10.008  0.5620 -0.0322  0.0186
    6SAPS    HX  695   4.543   5.274  10.021  0.1325 -0.2317  1.6839
    6SAPS    HY  696   4.516   5.120  10.104 -1.2341  2.4587  0.6358
    6SAPS   O31  697   4.464   5.119   9.905  0.0274  0.0684  0.1379
    6SAPS   C31  698   4.460   5.203   9.802 -0.2176  0.0669  0.0470
    6SAPS   O32  699   4.506   5.320   9.802 -0.8789  0.5017  0.1752
    6SAPS   C32  700   4.399   5.134   9.684 -0.2087 -0.5025 -0.0712
    6SAPS   H2X  701   4.400   5.210   9.603  0.4919 -0.0028  0.3918
    6SAPS   H2Y  702   4.290   5.117   9.701 -0.6098  2.0173  0.2136
    6SAPS   C23  703   4.977   5.162   9.571 -0.5692  0.1734 -0.0713
    6SAPS   H3R  704   4.957   5.065   9.521  2.5157 -0.4661 -0.2351
    6SAPS   H3S  705   5.057   5.134   9.642  0.4242 -0.0692 -1.2612
    6SAPS   C24  706   5.014   5.271   9.470 -1.0715 -0.3817 -0.4201
    6SAPS   H4R  707   5.105   5.239   9.415  1.2885 -1.0861  3.4765
    6SAPS   H4S  708   5.034   5.373   9.508  0.0896 -1.0803  0.9086
    6SAPS   C25  709   4.899   5.288   9.372 -0.2856  0.6197  0.1932
    6SAPS   H5R  710   4.823   5.358   9.409  0.3068  1.8037 -0.7541
    6SAPS   C26  711   4.889   5.227   9.253  0.0649 -0.0784  0.5030
    6SAPS   H6R  712   4.794   5.251   9.202 -0.8244 -0.9148  1.6995
    6SAPS   C27  713   4.979   5.130   9.182 -0.0276  0.3083  0.5117
    6SAPS   H7R  714   4.929   5.038   9.147  3.2263 -2.6477  2.9193
    6SAPS   H7S  715   5.056   5.090   9.252  0.6503 -0.0187 -0.3978
    6SAPS   C28  716   5.055   5.193   9.070 -0.1130  0.3720 -0.3596
    6SAPS   H8R  717   5.115   5.276   9.108  0.4990 -0.9100  1.6405
    6SAPS   C29  718   5.068   5.160   8.938  0.0529  0.2386  0.6125
    6SAPS   H9R  719   5.128   5.223   8.871  0.4182  0.8405  1.5028
    6SAPS  C210  720   4.995   5.049   8.861  0.4940 -0.5580  0.8381
    6SAPS  H10R  721   4.969   5.095   8.763  0.7309  0.3018  1.1644
    6SAPS  H10S  722   4.902   5.019   8.913 -0.5526 -0.1848 -0.7613
    6SAPS  C211  723   5.080   4.926   8.839 -0.4957  0.6803 -0.0096
    6SAPS  H11R  724   5.177   4.914   8.889  0.8714  0.3872 -2.5445
    6SAPS  C212  725   5.044   4.833   8.750 -0.6986  0.4866 -0.3710
    6SAPS  H12R  726   5.103   4.740   8.752  1.6732  1.9217  1.0497
    6SAPS  C213  727   4.917   4.835   8.667 -0.0300  0.0394 -0.1943
    6SAPS  H13R  728   4.845   4.894   8.727  0.2802  0.6731 -0.4340
    6SAPS  H13S  729   4.865   4.738   8.656 -0.7741  0.2427  1.2428
    6SAPS  C214  730   4.943   4.884   8.531 -0.4361  0.5255 -0.2199
    6SAPS  H14R  731   4.938   4.994   8.522  1.7987  0.6011 -1.3958
    6SAPS  C215  732   4.980   4.811   8.422  0.1208  0.1367 -0.1268
    6SAPS  H15R  733   5.000   4.866   8.329 -1.3337 -1.1338 -1.2248
    6SAPS  C216  734   5.015   4.665   8.426 -0.1775  0.9427  0.5434
    6SAPS  H16R  735   5.001   4.623   8.528 -0.1322  1.1798  0.6479
    6SAPS  H16S  736   5.118   4.647   8.389  0.3041  1.7228  1.4709
    6SAPS  C217  737   4.930   4.578   8.336 -0.1445 -0.2761  0.2815
    6SAPS  H17R  738   4.823   4.595   8.361 -0.3843  0.1888 -1.0010
    6SAPS  H17S  739   4.962   4.473   8.354 -1.2689 -0.6299  0.3168
    6SAPS  C218  740   4.950   4.600   8.184  1.0430  0.1542 -0.3505
    6SAPS  H18R  741   5.043   4.551   8.146  0.1778  0.2299 -2.7233
    6SAPS  H18S  742   4.971   4.708   8.164  2.0553 -0.1220 -0.8503
    6SAPS  C219  743   4.824   4.545   8.117  0.5648  0.0181  0.2767
    6SAPS  H19R  744   4.741   4.611   8.149  0.6181  0.7567 -1.0316
    6SAPS  H19S  745   4.802   4.449   8.169 -0.1984 -0.2291 -0.4726
    6SAPS  C220  746   4.829   4.520   7.966  0.6062  0.0970 -0.5245
    6SAPS  H20R  747   4.922   4.466   7.940  2.4695  1.1013  3.2615
    6SAPS  H20S  748   4.826   4.614   7.907 -1.1416  0.8369  0.6636
    6SAPS  H20T  749   4.747   4.456   7.928 -1.4096  2.4232 -0.3376
    6SAPS   C33  750   4.480   5.003   9.654 -0.2549 -0.1952  0.3085
    6SAPS   H3X  751   4.489   4.940   9.746  0.8983  0.5037  0.6995
    6SAPS   H3Y  752   4.579   5.037   9.616  0.1761 -0.7042  0.9460
    6SAPS   C34  753   4.426   4.917   9.533  0.2691  0.2978 -0.0023
    6SAPS   H4X  754   4.320   4.892   9.554  0.5220 -0.7017  0.1723
    6SAPS   H4Y  755   4.469   4.814   9.539 -2.1066 -0.7292  0.7936
    6SAPS   C35  756   4.434   4.979   9.394  0.1573  0.0065  0.1565
    6SAPS   H5X  757   4.411   5.088   9.400 -2.0701 -0.3946 -0.3450
    6SAPS   H5Y  758   4.349   4.937   9.336 -0.7963  2.0807 -0.0368
    6SAPS   C36  759   4.565   4.949   9.316 -0.1969  0.4582 -0.1859
    6SAPS   H6X  760   4.639   4.909   9.388 -0.1929 -2.3521 -1.5958
    6SAPS   H6Y  761   4.601   5.046   9.276 -1.7767  1.9364  1.7477
    6SAPS   C37  762   4.541   4.843   9.211 -0.0619  0.6966  0.4125
    6SAPS   H7X  763   4.462   4.876   9.140 -0.6260  1.1482  1.2318
    6SAPS   H7Y  764   4.512   4.750   9.264  1.3099  0.1480  0.2349
    6SAPS   C38  765   4.663   4.799   9.130  0.0982 -0.8460  0.9609
    6SAPS   H8X  766   4.754   4.778   9.191  0.5456 -1.7911  0.0077
    6SAPS   H8Y  767   4.694   4.877   9.057  1.6567 -2.2405  0.0475
    6SAPS   C39  768   4.625   4.669   9.049 -0.1901 -0.7445 -0.1586
    6SAPS   H9X  769   4.544   4.698   8.978  0.8180  0.9630 -0.6687
    6SAPS   H9Y  770   4.587   4.589   9.116 -0.6920  0.3434  0.8864
    6SAPS  C310  771   4.739   4.609   8.961  0.5099  0.5767  0.0239
    6SAPS  H10X  772   4.802   4.543   9.025 -0.5804 -0.5886 -0.0710
    6SAPS  H10Y  773   4.805   4.690   8.923 -0.2379  0.4222 -1.7343
    6SAPS  C311  774   4.681   4.540   8.837 -0.0838 -0.1569  0.2151
    6SAPS  H11X  775   4.631   4.618   8.776  0.0418  1.9669  2.6593
    6SAPS  H11Y  776   4.605   4.468   8.875  2.3127 -1.3656  3.0899
    6SAPS  C312  777   4.789   4.470   8.756  0.8204 -0.4300  0.1251
    6SAPS  H12X  778   4.838   4.393   8.819 -0.6544 -0.0427  1.8429
    6SAPS  H12Y  779   4.863   4.549   8.731  2.2436 -2.4728 -2.6498
    6SAPS  C313  780   4.735   4.401   8.633  0.4121  0.3221 -0.4074
    6SAPS  H13X  781   4.708   4.489   8.571 -1.9027  0.3793  0.5727
    6SAPS  H13Y  782   4.642   4.348   8.664 -0.2760  0.3978 -2.2140
    6SAPS  C314  783   4.825   4.299   8.573 -0.1330  0.2157 -0.8655
    6SAPS  H14X  784   4.829   4.222   8.653  0.9202  0.5537 -0.5824
    6SAPS  H14Y  785   4.924   4.347   8.555 -0.2137  0.0490 -1.7952
    6SAPS  C315  786   4.765   4.218   8.452 -0.3549  0.3142 -0.3665
    6SAPS  H15X  787   4.739   4.293   8.374 -1.0492 -0.1183 -0.5547
    6SAPS  H15Y  788   4.665   4.176   8.473 -1.1127  1.5010 -1.4468
    6SAPS  C316  789   4.857   4.105   8.409 -0.4975 -0.2182  0.5440
    6SAPS  H16X  790   4.836   4.015   8.471  0.3333 -2.1649 -1.8099
    6SAPS  H16Y  791   4.964   4.135   8.416 -1.1078  2.0228  0.9176
    6SAPS  C317  792   4.849   4.069   8.264 -0.3266 -0.0384 -0.2380
    6SAPS  H17X  793   4.940   4.007   8.244  0.5337  1.2060 -0.2953
    6SAPS  H17Y  794   4.858   4.154   8.193 -2.5509 -0.0819 -0.6399
    6SAPS  C318  795   4.717   3.997   8.227  0.1161 -0.4378 -0.5627
    6SAPS  H18X  796   4.720   3.896   8.275  2.0732 -0.7802 -1.3101
    6SAPS  H18Y  797   4.713   3.963   8.121  0.3377 -0.7405 -0.4770
    6SAPS  H18Z  798   4.638   4.056   8.279  1.4752 -0.7229  1.9954
    7SAPS     N  799   0.463   1.888  10.549  0.0459 -0.1535 -0.2339
    7SAPS   HN1  800   0.565   1.908  10.545 -0.3127  1.8888 -0.3272
    7SAPS   HN2  801   0.442   1.893  10.651 -1.2488 -1.2291 -0.4248
    7SAPS   HN3  802   0.435   1.796  10.511 -1.7902 -0.2725  1.2436
    7SAPS   C12  803   0.398   1.995  10.484 -0.0694 -0.5374  0.0241
    7SAPS  H12A  804   0.293   1.970  10.481  0.8749 -5.3338 -0.0298
    7SAPS   C13  805   0.397   2.138  10.551 -0.0965 -0.5011 -0.3394
    7SAPS  O13A  806   0.450   2.156  10.661  0.0385 -0.3720 -0.1640
    7SAPS  O13B  807   0.314   2.225  10.507  0.6784 -0.0769 -0.1641
    7SAPS   C11  808   0.455   2.009  10.341 -0.5525  0.1385 -0.1828
    7SAPS  H11A  809   0.557   2.054  10.353 -0.3385 -0.5580  0.7076
    7SAPS  H11B  810   0.397   2.081  10.279 -1.5464 -0.0616  0.4913
    7SAPS     P  811   0.509   1.861  10.125  0.0625 -0.2001  0.3175
    7SAPS   O13  812   0.606   1.969  10.097  0.2217  0.1574 -0.2790
    7SAPS   O14  813   0.552   1.721  10.122  0.4690 -0.2520  0.5258
    7SAPS   O12  814   0.459   1.880  10.269 -0.2771  0.3008 -0.0126
    7SAPS   O11  815   0.381   1.878  10.046  0.6783 -0.1795  0.0889
    7SAPS    C1  816   0.317   2.006  10.022  0.4583 -0.1680  0.0973
    7SAPS    HA  817   0.363   2.092  10.076 -0.4168  1.9941 -2.4014
    7SAPS    HB  818   0.324   2.028   9.914  1.8106 -0.6040  0.0696
    7SAPS    C2  819   0.167   1.992  10.071  0.0260  0.2999  1.0293
    7SAPS    HS  820   0.161   1.968  10.179  1.6490 -0.5290  0.9717
    7SAPS   O21  821   0.084   1.890  10.006  0.6314  0.0638  0.7496
    7SAPS   C21  822  -0.040   1.884  10.057  0.1650  0.1117 -0.0503
    7SAPS   O22  823  -0.073   1.940  10.162  0.1109  0.8463  0.6947
    7SAPS   C22  824  -0.129   1.793   9.968 -0.1467 -0.8117 -0.4004
    7SAPS   H2R  825  -0.060   1.754   9.890 -1.2085 -1.0245 -1.2587
    7SAPS   H2S  826  -0.181   1.719  10.033  1.9200 -2.6282 -0.7114
    7SAPS    C3  827   0.106   2.134  10.055 -0.0332  0.8547 -0.5148
    7SAPS    HX  828   0.189   2.195  10.097  0.2956 -1.1415  2.0183
    7SAPS    HY  829   0.011   2.161  10.107  0.7470  3.4693 -0.2909
    7SAPS   O31  830   0.093   2.148   9.909  0.0110  0.2278 -0.6148
    7SAPS   C31  831   0.072   2.270   9.864 -0.5367  0.0183 -0.7909
    7SAPS   O32  832   0.075   2.373   9.924 -0.6006  0.8445  0.2820
    7SAPS   C32  833   0.051   2.277   9.713  0.2683 -0.2816 -0.2812
    7SAPS   H2X  834   0.056   2.383   9.681  2.5530 -0.1308  0.3810
    7SAPS   H2Y  835  -0.046   2.229   9.686 -1.1570  3.4877 -2.7607
    7SAPS   C23  836  -0.243   1.867   9.887  0.1476 -0.2080 -1.3383
    7SAPS   H3R  837  -0.288   1.925   9.970  1.4204  0.6022 -1.1790
    7SAPS   H3S  838  -0.319   1.794   9.853 -1.8861  0.5065  1.3583
    7SAPS   C24  839  -0.190   1.962   9.776  0.5107 -0.5555 -0.2434
    7SAPS   H4R  840  -0.133   2.045   9.823 -2.4634  0.4690  1.8719
    7SAPS   H4S  841  -0.281   2.013   9.738 -0.7171 -3.1102 -0.9432
    7SAPS   C25  842  -0.103   1.911   9.657  0.5075 -1.1742 -0.9423
    7SAPS   H5R  843  -0.017   1.848   9.683 -0.1391 -1.4137  0.7191
    7SAPS   C26  844  -0.137   1.905   9.528 -0.1466 -0.0570  0.4679
    7SAPS   H6R  845  -0.050   1.878   9.466 -0.4259 -1.3688  0.6029
    7SAPS   C27  846  -0.258   1.956   9.455 -0.0431  0.1246  0.4780
    7SAPS   H7R  847  -0.321   2.010   9.529  1.2344  0.0825  1.6497
    7SAPS   H7S  848  -0.311   1.874   9.403  0.1791 -0.4944  1.2076
    7SAPS   C28  849  -0.227   2.065   9.353 -0.4875  0.5684  0.8446
    7SAPS   H8R  850  -0.198   2.160   9.400 -1.0008  1.6433 -0.8994
    7SAPS   C29  851  -0.246   2.079   9.216  0.4840 -0.3194  0.2771
    7SAPS   H9R  852  -0.211   2.169   9.165 -1.3739 -0.2327 -0.9319
    7SAPS  C210  853  -0.312   1.985   9.122 -0.7174 -0.2931  0.1115
    7SAPS  H10R  854  -0.351   2.043   9.036 -1.6632  0.1537  0.8243
    7SAPS  H10S  855  -0.406   1.943   9.164 -0.0159 -1.8342  0.2299
    7SAPS  C211  856  -0.227   1.864   9.087  0.4245  0.7746  0.7380
    7SAPS  H11R  857  -0.134   1.854   9.145  0.1800  1.1183  1.1970
    7SAPS  C212  858  -0.248   1.797   8.973 -0.0003 -0.5218  0.4697
    7SAPS  H12R  859  -0.184   1.709   8.954 -0.3022 -0.4247 -1.0795
    7SAPS  C213  860  -0.352   1.822   8.871  0.1026  0.4161  0.9784
    7SAPS  H13R  861  -0.456   1.835   8.908 -0.1961 -1.3660  0.8317
    7SAPS  H13S  862  -0.356   1.730   8.809 -0.5675  0.4417  0.9675
    7SAPS  C214  863  -0.324   1.935   8.774 -0.2361  0.2722  0.1429
    7SAPS  H14R  864  -0.265   2.020   8.812 -0.7814  1.1076 -0.8549
    7SAPS  C215  865  -0.376   1.937   8.651 -0.6380 -0.7436  0.0389
    7SAPS  H15R  866  -0.339   2.013   8.581 -2.0872 -0.7456 -0.7738
    7SAPS  C216  867  -0.459   1.825   8.579 -0.6235 -0.0713 -0.0406
    7SAPS  H16R  868  -0.566   1.850   8.564 -0.7569 -0.3455  0.4354
    7SAPS  H16S  869  -0.462   1.723   8.624 -1.6045  1.8929  4.8681
    7SAPS  C217  870  -0.412   1.798   8.431 -0.6553  0.6598  0.6165
    7SAPS  H17R  871  -0.429   1.886   8.365 -0.6200  0.0510 -0.2265
    7SAPS  H17S  872  -0.477   1.714   8.398  2.2994 -1.2261 -0.8993
    7SAPS  C218  873  -0.268   1.753   8.411  0.0535  0.0734 -0.1517
    7SAPS  H18R  874  -0.200   1.830   8.452 -0.8745  2.1149 -2.2652
    7SAPS  H18S  875  -0.239   1.734   8.306 -1.2935  2.0484 -0.9331
    7SAPS  C219  876  -0.243   1.618   8.478  1.1463  0.1088 -0.0545
    7SAPS  H19R  877  -0.328   1.559   8.438  0.7709  0.6495 -0.0773
    7SAPS  H19S  878  -0.237   1.631   8.588 -1.2703  0.6874  0.0700
    7SAPS  C220  879  -0.120   1.541   8.419 -0.2642  0.1491 -0.3505
    7SAPS  H20R  880  -0.036   1.604   8.456 -1.0856  0.0877  1.7624
    7SAPS  H20S  881  -0.123   1.541   8.308 -3.1449 -1.7005 -0.3479
    7SAPS  H20T  882  -0.117   1.438   8.460 -1.1652  0.3855  0.3551
    7SAPS   C33  883   0.162   2.207   9.631  0.2355  0.2617 -1.0460
    7SAPS   H3X  884   0.171   2.106   9.675 -0.9712  0.4844 -0.2300
    7SAPS   H3Y  885   0.252   2.272   9.638 -0.6989  1.5499 -0.4414
    7SAPS   C34  886   0.124   2.189   9.490  0.0365 -0.2615 -0.1673
    7SAPS   H4X  887   0.125   2.289   9.440 -1.1727 -0.4976 -0.6952
    7SAPS   H4Y  888   0.022   2.147   9.477 -1.5286  3.0139  0.3460
    7SAPS   C35  889   0.216   2.099   9.408  0.0091 -0.6946 -0.4824
    7SAPS   H5X  890   0.235   2.007   9.468 -3.3224  0.3699  2.6311
    7SAPS   H5Y  891   0.308   2.158   9.393 -1.0476  1.1475 -0.0051
    7SAPS   C36  892   0.159   2.045   9.274  0.4130 -0.1758 -1.0432
    7SAPS   H6X  893   0.066   1.985   9.285  1.2977 -1.4507 -0.1473
    7SAPS   H6Y  894   0.233   1.978   9.225  0.4993 -0.7770 -0.1249
    7SAPS   C37  895   0.139   2.157   9.172  0.1235  0.1951  0.1924
    7SAPS   H7X  896   0.236   2.200   9.138 -0.3725  0.9588 -0.2728
    7SAPS   H7Y  897   0.075   2.238   9.212  1.3177  2.1625 -1.6592
    7SAPS   C38  898   0.083   2.113   9.036  0.5539  0.2594 -0.5215
    7SAPS   H8X  899  -0.021   2.074   9.046  0.7016 -0.1224 -0.4629
    7SAPS   H8Y  900   0.143   2.039   8.980  1.2478  0.8743 -0.6176
    7SAPS   C39  901   0.080   2.233   8.939  0.4122  0.4559  0.1072
    7SAPS   H9X  902   0.172   2.294   8.951 -0.1079  0.9706  1.6772
    7SAPS   H9Y  903   0.007   2.312   8.967  1.5903  1.2563  1.0334
    7SAPS  C310  904   0.062   2.201   8.795 -0.0956  0.5422  0.0748
    7SAPS  H10X  905   0.003   2.113   8.760 -0.2702  1.3747 -1.8824
    7SAPS  H10Y  906   0.158   2.184   8.741 -0.5650 -0.3497 -0.5211
    7SAPS  C311  907  -0.007   2.317   8.720  0.1778 -0.1018 -0.9365
    7SAPS  H11X  908   0.044   2.409   8.755 -0.0871 -0.6982  1.1516
    7SAPS  H11Y  909  -0.106   2.318   8.770  0.4599 -2.4664 -0.2079
    7SAPS  C312  910  -0.011   2.326   8.567  0.1496 -0.5170 -0.1226
    7SAPS  H12X  911   0.097   2.326   8.542  0.5296  2.1135  1.1264
    7SAPS  H12Y  912  -0.054   2.417   8.518  0.8082  0.1331  0.4974
    7SAPS  C313  913  -0.090   2.208   8.509  0.3805  0.2677 -1.1321
    7SAPS  H13X  914  -0.197   2.220   8.536  0.7361 -0.4565  0.8265
    7SAPS  H13Y  915  -0.043   2.122   8.562 -1.5487  0.1068  0.4436
    7SAPS  C314  916  -0.077   2.203   8.351 -0.0761  0.2075 -0.2757
    7SAPS  H14X  917   0.030   2.221   8.325 -0.4120  0.2177 -1.7248
    7SAPS  H14Y  918  -0.131   2.291   8.311  1.8102  0.1215 -3.3488
    7SAPS  C315  919  -0.148   2.079   8.290  0.7843 -0.8246 -0.4546
    7SAPS  H15X  920  -0.241   2.060   8.347  0.6791 -1.1979 -0.7445
    7SAPS  H15Y  921  -0.085   1.988   8.307  0.9395 -0.4786  0.8561
    7SAPS  C316  922  -0.200   2.101   8.146 -0.4819 -0.0902 -0.0723
    7SAPS  H16X  923  -0.108   2.120   8.087 -0.3085 -1.7671 -0.3709
    7SAPS  H16Y  924  -0.262   2.193   8.153 -0.2850 -0.0653  2.0733
    7SAPS  C317  925  -0.270   1.980   8.079 -0.7052 -0.6353  0.0915
    7SAPS  H17X  926  -0.300   2.021   7.981  2.0744  0.0545 -0.5542
    7SAPS  H17Y  927  -0.359   1.943   8.136 -0.5923 -1.0294  0.0175
    7SAPS  C318  928  -0.169   1.866   8.050  0.0629 -0.1499  0.3485
    7SAPS  H18X  929  -0.134   1.823   8.147  0.8900 -0.5049 -0.0923
    7SAPS  H18Y  930  -0.083   1.913   7.999 -0.6520  0.1669 -0.5790
    7SAPS  H18Z  931  -0.212   1.781   7.993 -0.8846 -1.0831  2.3358
    8SAPS     N  932   4.095   1.312  10.857  0.0613 -0.0312  0.5077
    8SAPS   HN1  933   4.169   1.385  10.848  0.2875 -0.2484  0.5843
    8SAPS   HN2  934   4.072   1.311  10.756 -0.7417 -0.2196  0.6812
    8SAPS   HN3  935   4.010   1.340  10.911 -0.9371 -2.0476  0.1029
    8SAPS   C12  936   4.164   1.188  10.882 -0.1458 -0.3891  0.4947
    8SAPS  H12A  937   4.246   1.228  10.940 -2.1719  1.3169  2.3597
    8SAPS   C13  938   4.103   1.077  10.969 -0.3709 -0.9137  0.3047
    8SAPS  O13A  939   4.004   1.117  11.040 -0.7748  0.3935 -0.1702
    8SAPS  O13B  940   4.162   0.964  10.989  0.2252 -0.3180  0.1636
    8SAPS   C11  941   4.213   1.128  10.743 -0.9676  0.3226 -0.5326
    8SAPS  H11A  942   4.283   1.045  10.766 -1.5774 -0.7749 -2.4276
    8SAPS  H11B  943   4.273   1.197  10.680 -1.3169  1.1952  0.0631
    8SAPS     P  944   4.032   1.123  10.556 -0.0051 -0.4124  0.1448
    8SAPS   O13  945   3.916   1.039  10.519 -0.8617 -0.8190  0.3963
    8SAPS   O14  946   4.003   1.268  10.591 -0.2775 -0.4495  0.6284
    8SAPS   O12  947   4.101   1.066  10.684  0.2740  0.4339  0.0706
    8SAPS   O11  948   4.135   1.114  10.446  0.2958  0.2917 -0.5234
    8SAPS    C1  949   4.227   1.003  10.444  0.7916 -0.0688 -0.5595
    8SAPS    HA  950   4.315   1.017  10.511  0.9183  0.6054 -0.8659
    8SAPS    HB  951   4.180   0.903  10.454  0.8307 -0.2084 -1.7004
    8SAPS    C2  952   4.291   0.995  10.300 -0.0660  0.1355 -0.0592
    8SAPS    HS  953   4.356   1.082  10.279  0.8732 -0.9769 -2.0336
    8SAPS   O21  954   4.188   0.975  10.195 -0.7367  0.1606 -0.1563
    8SAPS   C21  955   4.153   1.080  10.122 -0.2472  0.4432  0.7361
    8SAPS   O22  956   4.202   1.194  10.127  0.1267  0.4556 -0.0285
    8SAPS   C22  957   4.047   1.035  10.019  0.0126 -1.3458 -0.0359
    8SAPS   H2R  958   4.094   0.977   9.936 -2.2808 -2.2297 -0.8073
    8SAPS   H2S  959   3.991   0.962  10.081  1.7096 -1.3701  1.5731
    8SAPS    C3  960   4.391   0.873  10.285  0.3772  0.2109 -0.7183
    8SAPS    HX  961   4.359   0.794  10.356  2.9162 -0.5458 -0.3068
    8SAPS    HY  962   4.495   0.895  10.317  0.4148 -0.2753 -0.4885
    8SAPS   O31  963   4.399   0.812  10.155  0.0055 -0.2912  0.3963
    8SAPS   C31  964   4.467   0.893  10.072  0.5060 -0.1588  0.5040
    8SAPS   O32  965   4.538   0.986  10.110 -0.1375 -0.2778  0.4798
    8SAPS   C32  966   4.442   0.859   9.929  1.0497  0.1750 -0.2884
    8SAPS   H2X  967   4.339   0.817   9.917  1.3651 -0.8659  0.4279
    8SAPS   H2Y  968   4.502   0.769   9.902 -0.3527 -0.4794 -1.3756
    8SAPS   C23  969   3.966   1.157   9.966  0.2215 -0.0807  0.4723
    8SAPS   H3R  970   3.931   1.215  10.054 -1.8750 -0.5909  0.0334
    8SAPS   H3S  971   3.879   1.117   9.910  0.9251  0.9921 -1.4880
    8SAPS   C24  972   4.045   1.249   9.866  0.2917 -0.5988 -0.5519
    8SAPS   H4R  973   4.134   1.301   9.908  1.9273 -1.7134 -2.4299
    8SAPS   H4S  974   3.973   1.325   9.829  0.0908 -0.5166  0.0006
    8SAPS   C25  975   4.086   1.181   9.742  0.1013 -0.3062  0.4906
    8SAPS   H5R  976   4.178   1.122   9.755  0.2353 -0.5706 -1.4215
    8SAPS   C26  977   4.026   1.183   9.623  0.8376  0.1233 -0.5537
    8SAPS   H6R  978   4.072   1.132   9.537 -0.9248  0.1359 -1.5576
    8SAPS   C27  979   3.901   1.256   9.580  0.1296 -0.4369 -0.2551
    8SAPS   H7R  980   3.917   1.366   9.568 -1.7653  0.1704  2.1571
    8SAPS   H7S  981   3.830   1.249   9.664  0.1129  1.1044 -0.1024
    8SAPS   C28  982   3.836   1.211   9.456 -0.5683  0.0337 -0.0675
    8SAPS   H8R  983   3.751   1.141   9.461  0.7024 -1.6580 -1.0371
    8SAPS   C29  984   3.886   1.231   9.332 -0.0356  0.2089  0.9390
    8SAPS   H9R  985   3.845   1.175   9.248  0.8250  0.4134  0.3669
    8SAPS  C210  986   4.006   1.317   9.290 -0.2646  0.5537 -0.6549
    8SAPS  H10R  987   4.045   1.384   9.370 -0.2967  1.0941 -1.0900
    8SAPS  H10S  988   3.951   1.386   9.223 -1.7053 -0.0814 -0.1786
    8SAPS  C211  989   4.116   1.242   9.223  0.8996 -0.2246  0.7032
    8SAPS  H11R  990   4.186   1.203   9.299  3.0828  0.1345 -1.0375
    8SAPS  C212  991   4.139   1.218   9.095 -0.2700  0.0322 -0.0428
    8SAPS  H12R  992   4.228   1.160   9.067 -0.7528 -1.6614  1.7440
    8SAPS  C213  993   4.046   1.258   8.981  0.3786  0.4737  0.4314
    8SAPS  H13R  994   3.986   1.345   9.013  1.0203  2.0745 -2.4348
    8SAPS  H13S  995   3.991   1.171   8.939  1.2174 -1.3222  2.7978
    8SAPS  C214  996   4.139   1.314   8.879  0.4251 -0.5266 -0.5546
    8SAPS  H14R  997   4.217   1.384   8.912 -2.1469  2.2965  0.0079
    8SAPS  C215  998   4.120   1.302   8.745 -0.2153  0.2190  0.5464
    8SAPS  H15R  999   4.196   1.359   8.691  3.3262 -3.1378  1.5128
    8SAPS  C216 1000   4.012   1.232   8.672 -0.4279 -0.3767  0.1427
    8SAPS  H16R 1001   3.965   1.318   8.619  1.7594  0.9548  0.2722
    8SAPS  H16S 1002   3.930   1.193   8.737 -1.6247  2.6404  0.6031
    8SAPS  C217 1003   4.037   1.136   8.554 -0.6836  0.2295  0.2586
    8SAPS  H17R 1004   3.945   1.117   8.495 -1.5318  3.6374  0.3136
    8SAPS  H17S 1005   4.074   1.042   8.602  0.9959  0.7620  0.0989
    8SAPS  C218 1006   4.147   1.170   8.456 -0.3619 -0.0382 -0.8322
    8SAPS  H18R 1007   4.240   1.113   8.473  0.4088  1.4486  0.1187
    8SAPS  H18S 1008   4.158   1.281   8.452 -1.7723  0.1205 -0.9185
    8SAPS  C219 1009   4.110   1.144   8.312  0.2246 -0.0938  0.3092
    8SAPS  H19R 1010   4.035   1.216   8.272 -0.6242 -0.9639  0.2978
    8SAPS  H19S 1011   4.042   1.057   8.311 -0.8976  0.7473 -1.1514
    8SAPS  C220 1012   4.231   1.116   8.228 -0.3526 -0.0193  0.5471
    8SAPS  H20R 1013   4.299   1.042   8.276 -0.1298  0.7668  1.4832
    8SAPS  H20S 1014   4.287   1.212   8.225  3.0173 -1.8263 -0.0063
    8SAPS  H20T 1015   4.209   1.089   8.123 -1.0192  0.4415  0.5704
    8SAPS   C33 1016   4.464   0.975   9.827 -0.2716  0.3073  0.2511
    8SAPS   H3X 1017   4.570   1.002   9.810 -0.6091  1.1448 -0.6214
    8SAPS   H3Y 1018   4.416   1.069   9.863 -0.1330  0.7938 -0.8006
    8SAPS   C34 1019   4.418   0.950   9.679  0.6643  0.6296 -0.4842
    8SAPS   H4X 1020   4.403   1.045   9.623 -1.8833 -1.5399 -3.8560
    8SAPS   H4Y 1021   4.315   0.912   9.693  0.8103 -0.5372 -2.2929
    8SAPS   C35 1022   4.502   0.848   9.599  0.7658  0.3252 -0.7600
    8SAPS   H5X 1023   4.496   0.756   9.662  0.2052  0.7736 -0.1285
    8SAPS   H5Y 1024   4.610   0.870   9.604  0.7450  0.2383  0.2884
    8SAPS   C36 1025   4.440   0.804   9.462 -0.2778  0.1788 -0.4181
    8SAPS   H6X 1026   4.332   0.777   9.460 -0.5013  0.6016  2.2290
    8SAPS   H6Y 1027   4.493   0.713   9.427  0.3311  0.4831 -0.3115
    8SAPS   C37 1028   4.467   0.902   9.347  0.8199 -0.2675 -0.0188
    8SAPS   H7X 1029   4.575   0.908   9.324  0.5369  0.7989 -1.1593
    8SAPS   H7Y 1030   4.412   0.995   9.375  1.8540  0.0098  1.1570
    8SAPS   C38 1031   4.399   0.849   9.215  0.0065 -0.7341 -0.8534
    8SAPS   H8X 1032   4.290   0.838   9.228  0.0028 -2.5996 -2.0714
    8SAPS   H8Y 1033   4.446   0.755   9.180  4.8427  1.4817 -1.2752
    8SAPS   C39 1034   4.432   0.949   9.099 -0.5277 -0.6343  0.3328
    8SAPS   H9X 1035   4.538   0.930   9.073 -0.4511  0.1955  0.0046
    8SAPS   H9Y 1036   4.430   1.050   9.144 -0.3026 -0.6295  0.3337
    8SAPS  C310 1037   4.346   0.924   8.972 -0.9029  0.4704 -0.0025
    8SAPS  H10X 1038   4.366   1.018   8.916  1.3028  0.7108  1.0698
    8SAPS  H10Y 1039   4.236   0.920   8.988 -0.7429 -1.6183  0.8322
    8SAPS  C311 1040   4.391   0.806   8.885  0.0319 -0.7270 -0.7157
    8SAPS  H11X 1041   4.368   0.715   8.945 -4.1487  0.2963 -0.4334
    8SAPS  H11Y 1042   4.498   0.816   8.859 -0.1714  4.3633 -0.6219
    8SAPS  C312 1043   4.303   0.793   8.754 -0.3022  0.0249  0.4259
    8SAPS  H12X 1044   4.297   0.893   8.705 -0.3833 -0.4062 -0.4598
    8SAPS  H12Y 1045   4.204   0.761   8.792  0.4812 -1.4807  1.2980
    8SAPS  C313 1046   4.356   0.683   8.657  0.0671 -0.8007 -0.1155
    8SAPS  H13X 1047   4.287   0.691   8.570  0.0508 -0.9330 -0.1154
    8SAPS  H13Y 1048   4.351   0.585   8.709 -1.3298 -2.0213 -2.4019
    8SAPS  C314 1049   4.502   0.708   8.616 -0.1566  0.1198 -0.5516
    8SAPS  H14X 1050   4.570   0.689   8.702 -0.5612 -0.1748 -0.2893
    8SAPS  H14Y 1051   4.512   0.815   8.587 -0.1328 -0.0909 -1.3523
    8SAPS  C315 1052   4.556   0.615   8.510  0.4067  0.6359 -0.2932
    8SAPS  H15X 1053   4.494   0.524   8.515 -0.2273  0.9788 -1.6045
    8SAPS  H15Y 1054   4.661   0.578   8.521  0.1757 -0.1801 -0.7724
    8SAPS  C316 1055   4.559   0.680   8.367 -0.6521 -0.3774 -0.4788
    8SAPS  H16X 1056   4.605   0.604   8.301  1.4415  1.0474 -0.7625
    8SAPS  H16Y 1057   4.629   0.766   8.381  3.2606 -3.4794  0.6843
    8SAPS  C317 1058   4.430   0.717   8.299 -0.0733 -0.1672 -0.3154
    8SAPS  H17X 1059   4.383   0.795   8.363 -0.3165 -0.3691 -0.2441
    8SAPS  H17Y 1060   4.360   0.631   8.292 -0.6013  0.1377  0.9093
    8SAPS  C318 1061   4.461   0.778   8.164 -0.0990  0.3065  0.3541
    8SAPS  H18X 1062   4.531   0.715   8.105  0.5633 -0.4349  1.8733
    8SAPS  H18Y 1063   4.514   0.876   8.169  0.0706  0.1541  2.0798
    8SAPS  H18Z 1064   4.365   0.809   8.116  0.1458  1.6682  0.7197
    9SAPS     N 1065   4.717   3.974   5.943  0.2349  0.4891 -0.3112
    9SAPS   HN1 1066   4.683   4.069   5.917  0.2506  0.4487 -0.4766
    9SAPS   HN2 1067   4.718   3.916   5.857 -0.6655  1.8044 -1.2449
    9SAPS   HN3 1068   4.642   3.945   6.009  1.1981  2.2949  1.6977
    9SAPS   C12 1069   4.842   3.987   6.017  0.4556 -0.5749 -0.2754
    9SAPS  H12A 1070   4.895   3.893   6.015  0.5348 -0.7034  2.6180
    9SAPS   C13 1071   4.939   4.086   5.967 -0.1596 -0.6862 -0.0019
    9SAPS  O13A 1072   4.941   4.095   5.843 -0.2276  0.1963  0.0579
    9SAPS  O13B 1073   5.028   4.145   6.037 -0.3976  0.3987  0.1659
    9SAPS   C11 1074   4.808   4.022   6.169  0.3950 -0.4869  0.1959
    9SAPS  H11A 1075   4.738   4.108   6.176  0.9246  0.1788 -1.8704
    9SAPS  H11B 1076   4.903   4.049   6.219 -0.9635  1.8827  1.6924
    9SAPS     P 1077   4.848   3.797   6.300 -0.0701  0.3108  0.2710
    9SAPS   O13 1078   4.770   3.670   6.279  0.0261  0.1493  0.2240
    9SAPS   O14 1079   4.982   3.799   6.241  0.6713  0.2740 -0.3823
    9SAPS   O12 1080   4.751   3.906   6.237 -0.1695  0.1434 -0.2851
    9SAPS   O11 1081   4.850   3.831   6.459 -0.3026  0.7548  0.2344
    9SAPS    C1 1082   4.829   3.958   6.518 -0.4172  0.4942 -0.9362
    9SAPS    HA 1083   4.866   4.044   6.458 -2.9605  1.2880 -1.4806
    9SAPS    HB 1084   4.722   3.973   6.543  0.3289  1.2288  2.2744
    9SAPS    C2 1085   4.916   3.960   6.654 -0.3408 -0.6540  0.3109
    9SAPS    HS 1086   5.022   3.948   6.624 -0.7071  0.2350 -1.5117
    9SAPS   O21 1087   4.867   3.854   6.732  0.0939 -0.0295  0.2221
    9SAPS   C21 1088   4.936   3.808   6.834  0.6446  0.3184  0.4219
    9SAPS   O22 1089   5.047   3.849   6.865  0.4630  0.1308  0.0913
    9SAPS   C22 1090   4.847   3.702   6.909 -0.1926  0.0489  0.0845
    9SAPS   H2R 1091   4.740   3.726   6.894 -0.5411 -1.4913 -0.1280
    9SAPS   H2S 1092   4.874   3.601   6.870 -1.4271 -0.4969  0.5791
    9SAPS    C3 1093   4.883   4.105   6.711 -0.0811  0.6474  0.9083
    9SAPS    HX 1094   4.783   4.138   6.673  0.8805  2.1190 -0.4615
    9SAPS    HY 1095   4.954   4.175   6.663  1.5522 -1.1978  0.5355
    9SAPS   O31 1096   4.891   4.113   6.853  0.3621 -0.3813 -0.4560
    9SAPS   C31 1097   5.006   4.159   6.905  0.2680  0.1662  0.0653
    9SAPS   O32 1098   5.096   4.217   6.841  0.7297 -0.0902 -1.0158
    9SAPS   C32 1099   5.016   4.117   7.049  0.0811 -0.0599  0.5208
    9SAPS   H2X 1100   4.931   4.046   7.062 -0.4091  0.2057 -0.9967
    9SAPS   H2Y 1101   4.999   4.205   7.114  0.3369  2.5378 -2.6690
    9SAPS   C23 1102   4.877   3.697   7.067  0.7830  0.7935  0.6464
    9SAPS   H3R 1103   4.845   3.792   7.115 -0.2208  1.5389 -1.3338
    9SAPS   H3S 1104   4.986   3.691   7.085  0.5106 -0.4794  2.0438
    9SAPS   C24 1105   4.818   3.574   7.138  0.2623  0.1674  0.1534
    9SAPS   H4R 1106   4.831   3.582   7.248  0.5830  1.6196  0.0294
    9SAPS   H4S 1107   4.891   3.493   7.115  1.2484  0.8395  0.8248
    9SAPS   C25 1108   4.671   3.542   7.106 -0.9083  0.1801 -0.6258
    9SAPS   H5R 1109   4.656   3.499   7.006 -1.3745  0.2715 -0.5977
    9SAPS   C26 1110   4.565   3.538   7.193 -0.0171  0.3891  0.2546
    9SAPS   H6R 1111   4.467   3.512   7.150  0.3486 -0.5444 -0.0520
    9SAPS   C27 1112   4.577   3.574   7.344  0.1752  0.0952  0.3225
    9SAPS   H7R 1113   4.478   3.605   7.385 -1.4254 -0.8925 -2.5287
    9SAPS   H7S 1114   4.628   3.672   7.355  0.0168 -0.1036  4.0615
    9SAPS   C28 1115   4.638   3.466   7.437 -0.0428 -0.4677  1.0050
    9SAPS   H8R 1116   4.673   3.372   7.392 -2.4703  0.0492 -2.4151
    9SAPS   C29 1117   4.649   3.483   7.569 -0.4351  0.5238  0.3537
    9SAPS   H9R 1118   4.694   3.397   7.621 -0.2981  1.2283  1.4545
    9SAPS  C210 1119   4.611   3.608   7.648 -0.2643  0.2842 -0.9320
    9SAPS  H10R 1120   4.573   3.685   7.578  2.2967  0.4056 -2.2948
    9SAPS  H10S 1121   4.704   3.650   7.693 -0.9590 -1.6774  2.7930
    9SAPS  C211 1122   4.506   3.578   7.754  0.1710 -0.2026  0.8459
    9SAPS  H11R 1123   4.416   3.531   7.713  0.6649 -0.8728  0.5224
    9SAPS  C212 1124   4.515   3.597   7.886  0.4065  0.3758  0.3812
    9SAPS  H12R 1125   4.425   3.581   7.947 -0.5012  2.8740 -0.1773
    9SAPS  C213 1126   4.641   3.645   7.961  0.2550  0.0194  0.2699
    9SAPS  H13R 1127   4.617   3.726   8.033 -2.1137  0.2517 -0.7031
    9SAPS  H13S 1128   4.714   3.704   7.902 -0.5987  2.3395  1.4177
    9SAPS  C214 1129   4.710   3.528   8.028 -0.2400  0.1141 -0.5983
    9SAPS  H14R 1130   4.814   3.505   7.999  1.1684  2.7495  1.8601
    9SAPS  C215 1131   4.662   3.454   8.133 -0.3102 -0.7406 -0.1994
    9SAPS  H15R 1132   4.729   3.380   8.179  0.3427  0.6400  1.1562
    9SAPS  C216 1133   4.525   3.464   8.203  0.1056  0.0436  0.3778
    9SAPS  H16R 1134   4.486   3.360   8.202 -0.8160  0.3236  2.2370
    9SAPS  H16S 1135   4.449   3.529   8.156 -2.2840 -2.9969 -0.2710
    9SAPS  C217 1136   4.518   3.492   8.349  0.0635 -0.5310  0.3165
    9SAPS  H17R 1137   4.557   3.596   8.359  0.1085 -0.4008 -1.0127
    9SAPS  H17S 1138   4.588   3.441   8.419 -1.0653  0.0350  1.8960
    9SAPS  C218 1139   4.374   3.485   8.407 -0.2800  0.2023  0.0538
    9SAPS  H18R 1140   4.338   3.382   8.385  1.4459 -0.5945  0.7989
    9SAPS  H18S 1141   4.304   3.559   8.362 -2.0610 -0.8748  0.9063
    9SAPS  C219 1142   4.370   3.506   8.561 -0.5227  0.1364  0.3381
    9SAPS  H19R 1143   4.411   3.607   8.580  0.1806 -0.3712  1.6523
    9SAPS  H19S 1144   4.454   3.444   8.599 -0.2281 -1.1312 -2.1769
    9SAPS  C220 1145   4.237   3.489   8.627  0.3454 -0.2693 -0.3060
    9SAPS  H20R 1146   4.175   3.574   8.591 -0.9758 -1.5459 -1.1345
    9SAPS  H20S 1147   4.237   3.481   8.738 -4.3711 -1.7103 -0.1725
    9SAPS  H20T 1148   4.193   3.392   8.595 -0.5853  0.4829 -1.3556
    9SAPS   C33 1149   5.147   4.054   7.093  0.1796 -0.1072 -0.3009
    9SAPS   H3X 1150   5.228   4.117   7.050  0.3253  0.0326  0.1790
    9SAPS   H3Y 1151   5.157   3.953   7.048  1.3379 -0.2874  0.3445
    9SAPS   C34 1152   5.160   4.045   7.241  0.7455  0.3908  0.3916
    9SAPS   H4X 1153   5.102   4.131   7.281  0.3491  0.4179 -0.2313
    9SAPS   H4Y 1154   5.265   4.069   7.269  0.0573  0.1954  3.5902
    9SAPS   C35 1155   5.112   3.906   7.282 -0.2705  0.2492  0.3983
    9SAPS   H5X 1156   5.183   3.837   7.232 -0.4386 -0.0603  0.5787
    9SAPS   H5Y 1157   5.012   3.867   7.252  0.8214 -1.9871 -0.5406
    9SAPS   C36 1158   5.131   3.891   7.439 -0.1874  0.4948  0.4971
    9SAPS   H6X 1159   5.062   3.965   7.485  1.8256  2.0906  1.0996
    9SAPS   H6Y 1160   5.236   3.914   7.467  1.0392 -2.9508 -0.7132
    9SAPS   C37 1161   5.091   3.758   7.496  0.6667  0.2487  0.4332
    9SAPS   H7X 1162   5.155   3.677   7.454  0.0249  0.5389 -1.2055
    9SAPS   H7Y 1163   4.987   3.728   7.469 -0.2308  1.0543  2.8057
    9SAPS   C38 1164   5.109   3.747   7.648  0.6610  0.2778  0.2231
    9SAPS   H8X 1165   5.091   3.841   7.703 -0.7255  0.4125 -0.4117
    9SAPS   H8Y 1166   5.214   3.728   7.677  0.5262  1.9321  1.9364
    9SAPS   C39 1167   5.017   3.624   7.704  0.2421 -1.3940 -0.6700
    9SAPS   H9X 1168   5.063   3.532   7.661 -0.3446 -1.9726 -0.0857
    9SAPS   H9Y 1169   4.924   3.649   7.650 -0.8820 -1.2511  1.2158
    9SAPS  C310 1170   5.008   3.611   7.854 -0.7086 -1.0050 -0.2959
    9SAPS  H10X 1171   4.953   3.515   7.868 -2.1427 -0.4530 -1.7813
    9SAPS  H10Y 1172   4.941   3.694   7.886  1.5168  1.1798 -1.0486
    9SAPS  C311 1173   5.147   3.595   7.922  0.5863 -0.7818 -0.6810
    9SAPS  H11X 1174   5.230   3.659   7.886  0.0191  0.3094 -0.1165
    9SAPS  H11Y 1175   5.175   3.493   7.888  1.1214 -0.8605 -0.0185
    9SAPS  C312 1176   5.133   3.610   8.078 -0.2199  0.3098  0.4002
    9SAPS  H12X 1177   5.112   3.507   8.114  3.2026 -1.3955 -1.8742
    9SAPS  H12Y 1178   5.059   3.690   8.096 -2.9953 -1.8070 -0.9126
    9SAPS  C313 1179   5.261   3.650   8.154 -0.3169  0.6321  0.2422
    9SAPS  H13X 1180   5.305   3.723   8.083 -1.5225  1.1201 -0.0348
    9SAPS  H13Y 1181   5.338   3.570   8.157  0.2514  1.0985 -1.1818
    9SAPS  C314 1182   5.246   3.715   8.287  0.3082  0.3826 -0.1003
    9SAPS  H14X 1183   5.161   3.787   8.283  0.0111 -0.0034 -0.9640
    9SAPS  H14Y 1184   5.341   3.765   8.315 -0.7763  1.2557  2.3904
    9SAPS  C315 1185   5.211   3.611   8.401 -0.2254  0.2245 -0.4457
    9SAPS  H15X 1186   5.303   3.553   8.422  0.4774  1.8008  1.0561
    9SAPS  H15Y 1187   5.127   3.547   8.366 -1.1008 -0.3051  2.4122
    9SAPS  C316 1188   5.163   3.662   8.539  0.1540 -0.3566 -0.1828
    9SAPS  H16X 1189   5.241   3.733   8.575 -1.0588  1.5950 -1.2949
    9SAPS  H16Y 1190   5.145   3.572   8.602 -0.8355  0.9161  1.4201
    9SAPS  C317 1191   5.032   3.748   8.539  0.0199  0.5504  0.7168
    9SAPS  H17X 1192   5.042   3.819   8.454 -0.1758  1.6374  1.5878
    9SAPS  H17Y 1193   5.011   3.801   8.633 -2.9858  0.0933  0.4084
    9SAPS  C318 1194   4.913   3.666   8.495 -0.3203  0.0458 -0.2153
    9SAPS  H18X 1195   4.827   3.734   8.479 -0.2960  0.0917 -0.1525
    9SAPS  H18Y 1196   4.884   3.590   8.571  0.4776 -0.4723 -0.4140
    9SAPS  H18Z 1197   4.924   3.618   8.395 -2.5046  0.5307 -0.7387
   10SAPS     N 1198   2.667   1.858   6.185 -0.2394 -0.3778 -0.0092
   10SAPS   HN1 1199   2.722   1.806   6.256 -0.6526 -0.9933 -0.1277
   10SAPS   HN2 1200   2.659   1.952   6.228  1.5678  0.2039 -0.8617
   10SAPS   HN3 1201   2.578   1.809   6.163  0.0145 -0.7011 -0.3244
   10SAPS   C12 1202   2.736   1.874   6.049  0.1725  0.1774  0.0092
   10SAPS  H12A 1203   2.782   1.778   6.032  1.0209  0.4776  0.5752
   10SAPS   C13 1204   2.631   1.902   5.932 -0.3186 -0.5316 -0.3820
   10SAPS  O13A 1205   2.511   1.862   5.952  0.3445  0.6394 -0.1013
   10SAPS  O13B 1206   2.666   1.942   5.818 -0.5563 -0.5535  0.2411
   10SAPS   C11 1207   2.846   1.984   6.064 -0.1240  0.0146 -0.0857
   10SAPS  H11A 1208   2.793   2.078   6.091  0.5094  0.5362 -0.6221
   10SAPS  H11B 1209   2.894   2.022   5.972  1.9717  0.4679  1.1408
   10SAPS     P 1210   3.049   2.058   6.218 -0.0281  0.4760 -0.2647
   10SAPS   O13 1211   3.191   2.018   6.195 -0.5323 -0.4378  0.0630
   10SAPS   O14 1212   3.007   2.190   6.172 -0.6338 -0.3469 -0.1132
   10SAPS   O12 1213   2.961   1.949   6.149  0.1876  0.1697  0.3976
   10SAPS   O11 1214   3.003   2.032   6.366 -0.4695 -0.2940  0.7320
   10SAPS    C1 1215   3.019   2.131   6.476 -0.4187  0.1808  0.1855
   10SAPS    HA 1216   3.109   2.194   6.466 -1.7719  1.9676 -1.2721
   10SAPS    HB 1217   2.935   2.204   6.480 -1.4463 -0.9608  0.2598
   10SAPS    C2 1218   3.021   2.069   6.619  0.5943  0.4196  0.5437
   10SAPS    HS 1219   3.048   2.157   6.682  1.3956  0.6220 -0.0619
   10SAPS   O21 1220   3.118   1.958   6.615 -0.0545 -0.5778 -0.4409
   10SAPS   C21 1221   3.167   1.933   6.737 -0.5608 -0.1156  0.3786
   10SAPS   O22 1222   3.139   1.999   6.836 -0.1876  0.6111  0.2266
   10SAPS   C22 1223   3.258   1.811   6.722 -0.0736  0.4814  0.7207
   10SAPS   H2R 1224   3.208   1.729   6.667 -1.1466  1.4936  0.1463
   10SAPS   H2S 1225   3.352   1.834   6.667 -0.6126 -0.9682 -0.8862
   10SAPS    C3 1226   2.880   2.014   6.662 -0.4850 -0.0286 -0.6938
   10SAPS    HX 1227   2.868   1.915   6.613  0.7362 -0.4055 -0.2481
   10SAPS    HY 1228   2.801   2.085   6.630  1.4893  3.5580  1.6573
   10SAPS   O31 1229   2.874   1.997   6.810 -0.4587 -0.1900  0.9871
   10SAPS   C31 1230   2.863   2.108   6.887  0.1945 -0.0931  0.7005
   10SAPS   O32 1231   2.820   2.215   6.844 -0.2318 -0.2959 -1.1466
   10SAPS   C32 1232   2.874   2.068   7.025  0.4583 -0.7293 -0.7383
   10SAPS   H2X 1233   2.976   2.030   7.046  0.1582 -0.9137  0.4600
   10SAPS   H2Y 1234   2.809   1.984   7.058  1.5358 -1.8909 -1.5158
   10SAPS   C23 1235   3.301   1.761   6.863 -0.1725 -0.1858 -0.0789
   10SAPS   H3R 1236   3.215   1.753   6.933  0.6548 -0.7736  0.8968
   10SAPS   H3S 1237   3.367   1.838   6.907 -1.1580 -0.5996  2.3156
   10SAPS   C24 1238   3.358   1.620   6.864  0.0676 -0.3325  0.2124
   10SAPS   H4R 1239   3.418   1.604   6.957  2.1435 -3.1314 -1.4493
   10SAPS   H4S 1240   3.438   1.618   6.787  1.4099 -1.5310  1.5609
   10SAPS   C25 1241   3.261   1.509   6.851 -0.6084 -0.5466  0.2597
   10SAPS   H5R 1242   3.253   1.464   6.751 -1.9227 -0.1823  0.1760
   10SAPS   C26 1243   3.184   1.457   6.952 -0.0533  0.1816 -0.0098
   10SAPS   H6R 1244   3.119   1.371   6.928  0.7473 -0.3501 -0.3256
   10SAPS   C27 1245   3.183   1.507   7.089 -0.5987  0.6289 -0.3550
   10SAPS   H7R 1246   3.084   1.481   7.132  0.8722 -1.4900  2.0445
   10SAPS   H7S 1247   3.198   1.617   7.081  3.3433  0.2612  0.0285
   10SAPS   C28 1248   3.300   1.460   7.175  0.7693 -0.4520  0.1495
   10SAPS   H8R 1249   3.341   1.359   7.159  0.0769 -0.7001 -0.1006
   10SAPS   C29 1250   3.384   1.543   7.241 -0.4631 -0.7223 -0.0503
   10SAPS   H9R 1251   3.474   1.510   7.293  1.0901  2.2223 -0.6578
   10SAPS  C210 1252   3.347   1.687   7.271  0.0617  0.6640  0.3432
   10SAPS  H10R 1253   3.294   1.692   7.369 -0.4872  0.8827  0.0383
   10SAPS  H10S 1254   3.284   1.736   7.194  1.9955 -0.6162 -2.1781
   10SAPS  C211 1255   3.468   1.780   7.277  0.8733  0.3790 -0.2512
   10SAPS  H11R 1256   3.505   1.808   7.178 -0.5543  0.6570 -0.7313
   10SAPS  C212 1257   3.529   1.819   7.387  0.2377 -0.0415  0.4760
   10SAPS  H12R 1258   3.615   1.887   7.379 -0.5647  0.8835 -0.6988
   10SAPS  C213 1259   3.498   1.772   7.530  0.5301 -0.4135 -0.4006
   10SAPS  H13R 1260   3.597   1.744   7.570  1.3557 -0.5051 -2.4083
   10SAPS  H13S 1261   3.436   1.680   7.537 -1.9046  1.2110  1.2898
   10SAPS  C214 1262   3.420   1.875   7.602  0.1588 -0.5967  0.0170
   10SAPS  H14R 1263   3.347   1.931   7.541 -0.0038 -0.0591  0.6935
   10SAPS  C215 1264   3.432   1.918   7.731  0.2361 -0.2291  0.2377
   10SAPS  H15R 1265   3.355   1.991   7.762 -1.5600 -2.0391  0.2277
   10SAPS  C216 1266   3.526   1.859   7.840  0.1274 -0.4747  0.3298
   10SAPS  H16R 1267   3.606   1.932   7.865 -0.2785  0.9419 -2.1827
   10SAPS  H16S 1268   3.577   1.766   7.808  0.3625  0.1058 -1.0322
   10SAPS  C217 1269   3.449   1.839   7.977 -0.3431 -0.3682  0.9161
   10SAPS  H17R 1270   3.426   1.940   8.018  1.9734  0.9268 -0.7381
   10SAPS  H17S 1271   3.526   1.801   8.048  0.6468 -1.7619 -0.8176
   10SAPS  C218 1272   3.332   1.738   7.979  0.4794 -0.2831 -0.3189
   10SAPS  H18R 1273   3.373   1.642   7.941  1.5138  0.4362 -1.0842
   10SAPS  H18S 1274   3.256   1.787   7.915  0.1699  1.8047  1.5412
   10SAPS  C219 1275   3.271   1.716   8.119  0.1067 -0.2478 -0.1284
   10SAPS  H19R 1276   3.352   1.676   8.185 -0.1055 -0.6105 -0.0857
   10SAPS  H19S 1277   3.192   1.639   8.113  0.7006 -0.9996  1.1569
   10SAPS  C220 1278   3.220   1.831   8.202 -0.6034  0.3323 -0.7492
   10SAPS  H20R 1279   3.132   1.874   8.149  0.5475  0.9619 -2.2138
   10SAPS  H20S 1280   3.294   1.913   8.212 -1.2831  0.8690  0.0531
   10SAPS  H20T 1281   3.201   1.795   8.305  1.0853  0.0054 -0.5282
   10SAPS   C33 1282   2.838   2.194   7.113 -0.7650 -0.1027 -0.4212
   10SAPS   H3X 1283   2.745   2.245   7.079  0.1040  1.3579 -0.6789
   10SAPS   H3Y 1284   2.916   2.272   7.100  0.4920 -1.3705 -0.6095
   10SAPS   C34 1285   2.818   2.166   7.260 -0.3986 -0.5091  0.0764
   10SAPS   H4X 1286   2.899   2.103   7.303  0.1114  1.0793  1.5961
   10SAPS   H4Y 1287   2.719   2.123   7.286 -1.5753  2.5724  1.1401
   10SAPS   C35 1288   2.833   2.294   7.348  0.5257  0.2136 -0.2541
   10SAPS   H5X 1289   2.770   2.379   7.314  1.1390  0.2803 -1.2583
   10SAPS   H5Y 1290   2.940   2.320   7.333  0.4571  1.9882  1.8572
   10SAPS   C36 1291   2.813   2.277   7.499 -0.2563 -0.3271  0.2228
   10SAPS   H6X 1292   2.856   2.365   7.551  1.9056 -0.6556 -0.8838
   10SAPS   H6Y 1293   2.880   2.193   7.529 -1.5989 -2.2375 -1.8365
   10SAPS   C37 1294   2.676   2.245   7.551  0.1623 -0.6589  1.1175
   10SAPS   H7X 1295   2.642   2.155   7.494  1.8032 -1.2890  1.0911
   10SAPS   H7Y 1296   2.608   2.324   7.513 -1.4149 -2.1618  0.6586
   10SAPS   C38 1297   2.655   2.223   7.700  0.2857  0.1120 -0.2113
   10SAPS   H8X 1298   2.547   2.198   7.708 -0.1216  2.1903  1.4816
   10SAPS   H8Y 1299   2.676   2.321   7.747  1.3448 -0.4944  0.6093
   10SAPS   C39 1300   2.737   2.112   7.764 -0.0065 -0.0697  0.5636
   10SAPS   H9X 1301   2.846   2.126   7.779  0.1832 -2.5648  2.1245
   10SAPS   H9Y 1302   2.734   2.029   7.691  0.3891 -2.2018  2.8269
   10SAPS  C310 1303   2.686   2.054   7.894 -0.4571 -0.7748  0.4052
   10SAPS  H10X 1304   2.750   1.964   7.904  0.1433 -0.5465 -1.0601
   10SAPS  H10Y 1305   2.587   2.009   7.873 -0.1293 -0.3747 -2.4660
   10SAPS  C311 1306   2.684   2.132   8.026 -0.1333 -0.0650  1.0179
   10SAPS  H11X 1307   2.632   2.230   8.017 -1.0505 -0.6434 -0.2632
   10SAPS  H11Y 1308   2.795   2.139   8.035  0.4179 -1.7009 -2.6253
   10SAPS  C312 1309   2.617   2.056   8.138 -0.0868 -0.1175 -0.4375
   10SAPS  H12X 1310   2.507   2.054   8.123 -0.0936  0.1954 -0.4304
   10SAPS  H12Y 1311   2.637   2.098   8.239  0.6155  0.5086 -0.8275
   10SAPS  C313 1312   2.669   1.907   8.150  0.3214  0.0479 -0.3990
   10SAPS  H13X 1313   2.636   1.855   8.057  0.1738  0.7933 -0.7755
   10SAPS  H13Y 1314   2.621   1.858   8.237  2.5746 -2.7375 -0.5953
   10SAPS  C314 1315   2.817   1.881   8.169 -0.4259 -0.0136 -0.2597
   10SAPS  H14X 1316   2.853   1.925   8.265  1.7607  0.5027 -1.2430
   10SAPS  H14Y 1317   2.881   1.939   8.099 -0.2401  0.1305  0.0255
   10SAPS  C315 1318   2.862   1.730   8.164 -0.4364 -0.2663 -1.0463
   10SAPS  H15X 1319   2.972   1.724   8.167 -0.2888  0.9735 -2.6716
   10SAPS  H15Y 1320   2.820   1.696   8.067 -2.6970 -0.6193 -0.0211
   10SAPS  C316 1321   2.803   1.640   8.279 -0.2908 -0.1583 -0.9168
   10SAPS  H16X 1322   2.692   1.633   8.276 -0.2212 -2.3122 -0.6237
   10SAPS  H16Y 1323   2.828   1.702   8.367 -1.3622 -1.2885  0.2276
   10SAPS  C317 1324   2.858   1.496   8.294 -0.7912 -0.8261  0.3081
   10SAPS  H17X 1325   2.804   1.450   8.380 -2.0452  0.1492  0.0870
   10SAPS  H17Y 1326   2.965   1.505   8.320  0.0315  1.1031 -3.1346
   10SAPS  C318 1327   2.842   1.404   8.173  0.1926 -0.2466 -0.4891
   10SAPS  H18X 1328   2.747   1.347   8.166 -0.2910  0.7254 -2.1326
   10SAPS  H18Y 1329   2.921   1.327   8.185 -1.4088 -1.9421 -0.3473
   10SAPS  H18Z 1330   2.868   1.450   8.076  0.5164  0.7332  0.0520
   11SAPS     N 1331   4.529   0.678   5.974  0.3263 -0.2916 -0.3637
   11SAPS   HN1 1332   4.543   0.740   6.056 -0.8035 -1.2302  0.5713
   11SAPS   HN2 1333   4.510   0.585   6.017  2.8940 -0.3564  0.8320
   11SAPS   HN3 1334   4.621   0.655   5.931 -0.4957  1.3997 -3.3284
   11SAPS   C12 1335   4.415   0.723   5.885  0.1932  0.6612 -0.3363
   11SAPS  H12A 1336   4.450   0.817   5.845  0.0255  0.2792 -1.3858
   11SAPS   C13 1337   4.396   0.633   5.764  0.0470  0.0330  0.2561
   11SAPS  O13A 1338   4.467   0.535   5.742 -0.2157 -0.3199  0.1696
   11SAPS  O13B 1339   4.306   0.658   5.685  0.2171  0.0160 -0.3295
   11SAPS   C11 1340   4.289   0.749   5.965  0.4014  0.0107  0.9942
   11SAPS  H11A 1341   4.241   0.662   6.015  1.5865 -1.4355 -0.3025
   11SAPS  H11B 1342   4.211   0.774   5.889 -2.1684 -2.6635  2.5577
   11SAPS     P 1343   4.203   0.965   6.086 -0.1207  0.3420  0.3378
   11SAPS   O13 1344   4.263   1.081   6.010  0.0041  0.0985 -0.0714
   11SAPS   O14 1345   4.072   0.912   6.036  0.1938 -0.1811 -0.2541
   11SAPS   O12 1346   4.315   0.847   6.067  0.5436  0.4888  0.3023
   11SAPS   O11 1347   4.182   1.001   6.239 -0.1414  0.1202 -0.5598
   11SAPS    C1 1348   4.269   0.968   6.342 -0.3310  0.0054 -0.4024
   11SAPS    HA 1349   4.370   1.012   6.323 -0.1540  0.2097  0.9227
   11SAPS    HB 1350   4.221   1.022   6.426  0.4450 -0.7420  0.5427
   11SAPS    C2 1351   4.284   0.818   6.389  0.3807 -0.5651  0.4045
   11SAPS    HS 1352   4.374   0.778   6.338  1.9378  1.8431  1.1222
   11SAPS   O21 1353   4.166   0.752   6.337 -0.9064 -0.4774 -0.1103
   11SAPS   C21 1354   4.176   0.620   6.339  0.6528 -0.5864  0.4707
   11SAPS   O22 1355   4.274   0.562   6.379  0.2828 -0.0323 -0.3343
   11SAPS   C22 1356   4.043   0.562   6.294 -0.8825  0.1446  0.8119
   11SAPS   H2R 1357   3.954   0.618   6.332 -1.0320 -0.1580  0.9153
   11SAPS   H2S 1358   4.034   0.593   6.188  2.2870  0.5871  0.5810
   11SAPS    C3 1359   4.324   0.805   6.547 -0.1718  0.0237  0.7806
   11SAPS    HX 1360   4.339   0.698   6.572  0.2845  0.0464  0.6097
   11SAPS    HY 1361   4.239   0.845   6.607  1.1368 -0.5116  3.0899
   11SAPS   O31 1362   4.431   0.891   6.591  0.1749 -0.3414  0.6011
   11SAPS   C31 1363   4.552   0.848   6.575 -0.1032  0.2199  0.3906
   11SAPS   O32 1364   4.587   0.746   6.527 -0.0612 -0.2206 -0.0355
   11SAPS   C32 1365   4.657   0.946   6.647  0.3090 -0.1070 -0.3707
   11SAPS   H2X 1366   4.746   0.941   6.580  1.5259  1.0573  1.0653
   11SAPS   H2Y 1367   4.677   0.905   6.748 -1.0212 -2.2567 -0.9207
   11SAPS   C23 1368   4.031   0.411   6.313 -0.2473 -0.0096 -0.3239
   11SAPS   H3R 1369   4.128   0.366   6.285 -1.2453 -2.3573 -0.2412
   11SAPS   H3S 1370   3.955   0.376   6.241  0.3289 -0.3230 -0.7855
   11SAPS   C24 1371   3.999   0.384   6.461 -0.6145  0.0504 -0.2789
   11SAPS   H4R 1372   3.912   0.443   6.496 -0.1228 -0.4443  1.9854
   11SAPS   H4S 1373   4.084   0.423   6.522 -1.3971  1.1267  0.1519
   11SAPS   C25 1374   3.974   0.237   6.491  0.1842 -0.4664  0.6538
   11SAPS   H5R 1375   3.870   0.203   6.481 -0.1637 -0.3677  3.4088
   11SAPS   C26 1376   4.063   0.143   6.530 -0.1768  0.0472  0.2141
   11SAPS   H6R 1377   4.024   0.042   6.549  0.1252 -0.3937 -1.3794
   11SAPS   C27 1378   4.211   0.159   6.573  0.9750  0.4982 -0.2273
   11SAPS   H7R 1379   4.220   0.158   6.684 -1.0807 -0.4588 -0.0215
   11SAPS   H7S 1380   4.247   0.260   6.545  2.0763  0.1175 -0.2063
   11SAPS   C28 1381   4.287   0.054   6.509 -0.3216 -0.2617 -0.2003
   11SAPS   H8R 1382   4.292   0.065   6.399  0.9736  0.9520 -0.0479
   11SAPS   C29 1383   4.355  -0.044   6.568 -0.0858 -0.0632 -0.0822
   11SAPS   H9R 1384   4.398  -0.123   6.504 -0.1751 -1.7686  1.8438
   11SAPS  C210 1385   4.361  -0.073   6.715  0.2787 -0.4764  0.4653
   11SAPS  H10R 1386   4.260  -0.046   6.753  1.2478  2.9352  0.9537
   11SAPS  H10S 1387   4.430  -0.002   6.766  0.1829 -0.6678  0.8670
   11SAPS  C211 1388   4.409  -0.218   6.732 -0.3124 -0.0665 -0.1704
   11SAPS  H11R 1389   4.454  -0.267   6.644 -2.7967  0.9587 -2.1409
   11SAPS  C212 1390   4.411  -0.282   6.851 -0.9845  0.5156  0.1289
   11SAPS  H12R 1391   4.435  -0.389   6.854 -0.0410  0.7306  0.7628
   11SAPS  C213 1392   4.369  -0.215   6.980 -0.2067  0.2513  0.5443
   11SAPS  H13R 1393   4.271  -0.241   7.027 -0.6911  0.9437 -0.0588
   11SAPS  H13S 1394   4.350  -0.106   6.972 -2.1139  0.0217  1.2741
   11SAPS  C214 1395   4.475  -0.258   7.088  0.0460 -0.1570 -0.1829
   11SAPS  H14R 1396   4.568  -0.200   7.085 -0.4916  0.8142  0.8056
   11SAPS  C215 1397   4.473  -0.368   7.168  0.3984  0.0494 -0.3643
   11SAPS  H15R 1398   4.554  -0.382   7.242  0.2800  3.8752  0.6811
   11SAPS  C216 1399   4.360  -0.460   7.187 -0.2536 -0.2291  0.0114
   11SAPS  H16R 1400   4.400  -0.554   7.144 -1.2104 -0.3412 -0.6631
   11SAPS  H16S 1401   4.267  -0.435   7.132 -0.3462 -0.4158  0.0844
   11SAPS  C217 1402   4.316  -0.486   7.332  0.5115 -0.2880  0.4507
   11SAPS  H17R 1403   4.249  -0.575   7.331 -0.5176  0.4669 -0.6387
   11SAPS  H17S 1404   4.266  -0.408   7.392  0.4365 -0.6571  0.8751
   11SAPS  C218 1405   4.439  -0.535   7.415 -0.0402 -0.3421 -0.0556
   11SAPS  H18R 1406   4.502  -0.450   7.449 -1.4268  1.5887 -2.0810
   11SAPS  H18S 1407   4.504  -0.587   7.341  0.7376  0.6420 -0.0835
   11SAPS  C219 1408   4.396  -0.629   7.519  0.0784  0.5443  0.0787
   11SAPS  H19R 1409   4.478  -0.684   7.570  1.0569  1.6161 -0.2830
   11SAPS  H19S 1410   4.325  -0.704   7.480 -1.7601  0.4774  3.2175
   11SAPS  C220 1411   4.328  -0.558   7.640  0.4159 -0.3515 -0.7834
   11SAPS  H20R 1412   4.285  -0.620   7.721  1.6179 -1.3851 -0.9216
   11SAPS  H20S 1413   4.241  -0.495   7.610  1.8376  1.4992 -1.2432
   11SAPS  H20T 1414   4.400  -0.484   7.682  1.6113 -0.7495 -2.0489
   11SAPS   C33 1415   4.602   1.097   6.660  0.2316  0.2694 -0.0876
   11SAPS   H3X 1416   4.505   1.085   6.712  0.5689 -1.3575  0.2292
   11SAPS   H3Y 1417   4.569   1.130   6.559 -2.1896  0.6732  0.7671
   11SAPS   C34 1418   4.705   1.194   6.719 -0.7473  1.0687  0.3941
   11SAPS   H4X 1419   4.684   1.299   6.691  0.6407  1.5023  0.8922
   11SAPS   H4Y 1420   4.810   1.166   6.695 -0.2284 -0.2278  3.5626
   11SAPS   C35 1421   4.689   1.190   6.873  0.2432  0.3174 -0.4188
   11SAPS   H5X 1422   4.781   1.223   6.927 -0.0039  1.7923 -0.8457
   11SAPS   H5Y 1423   4.670   1.087   6.909  0.8356  0.3149 -0.0929
   11SAPS   C36 1424   4.575   1.285   6.917 -0.0134 -0.3604 -0.5721
   11SAPS   H6X 1425   4.493   1.273   6.843 -1.7213  0.7751  1.0409
   11SAPS   H6Y 1426   4.601   1.392   6.905  0.5602 -0.4270  0.0195
   11SAPS   C37 1427   4.515   1.271   7.056  0.5576  0.2804 -1.1887
   11SAPS   H7X 1428   4.494   1.164   7.077 -0.6428  1.0259  1.9635
   11SAPS   H7Y 1429   4.426   1.337   7.056 -0.5788 -1.1614  0.2078
   11SAPS   C38 1430   4.605   1.330   7.165 -0.0341 -0.0772 -0.2874
   11SAPS   H8X 1431   4.620   1.439   7.146  1.4424 -0.0585  0.7676
   11SAPS   H8Y 1432   4.702   1.277   7.150  0.8922  1.4461  0.0512
   11SAPS   C39 1433   4.549   1.313   7.312 -0.0218 -0.6728  0.3919
   11SAPS   H9X 1434   4.515   1.208   7.327 -0.4817 -0.4909  0.6192
   11SAPS   H9Y 1435   4.455   1.370   7.325  1.1265  0.9232  2.0039
   11SAPS  C310 1436   4.648   1.351   7.429  0.0260  0.2082 -0.5262
   11SAPS  H10X 1437   4.704   1.441   7.396  0.4737  1.4001  3.0373
   11SAPS  H10Y 1438   4.720   1.266   7.434  1.6314  1.3876 -2.1239
   11SAPS  C311 1439   4.581   1.381   7.557 -0.4206 -1.0055 -0.6513
   11SAPS  H11X 1440   4.498   1.453   7.545  0.1518 -0.0306  0.8961
   11SAPS  H11Y 1441   4.649   1.435   7.626 -0.4063 -1.4663 -0.2977
   11SAPS  C312 1442   4.539   1.254   7.617 -0.6839  0.9480 -1.0214
   11SAPS  H12X 1443   4.634   1.202   7.642 -1.2571  1.1867  2.0400
   11SAPS  H12Y 1444   4.485   1.189   7.545 -0.3789 -0.8594  0.3173
   11SAPS  C313 1445   4.448   1.259   7.745 -0.7880 -0.4939  0.0379
   11SAPS  H13X 1446   4.361   1.319   7.712 -2.0406 -1.7791  0.9197
   11SAPS  H13Y 1447   4.501   1.311   7.828  0.5317 -0.3864 -0.8380
   11SAPS  C314 1448   4.381   1.132   7.807 -0.4299 -0.3092 -0.4543
   11SAPS  H14X 1449   4.298   1.092   7.746 -3.9607  0.6397  3.3322
   11SAPS  H14Y 1450   4.331   1.152   7.904  3.2279 -0.0232  1.5586
   11SAPS  C315 1451   4.483   1.029   7.856 -0.0872 -0.1971 -0.7543
   11SAPS  H15X 1452   4.528   0.978   7.768  0.4429  0.0762 -0.6456
   11SAPS  H15Y 1453   4.434   0.949   7.914 -0.0847  0.3167 -0.0340
   11SAPS  C316 1454   4.608   1.082   7.927 -0.0528 -0.1891 -0.2504
   11SAPS  H16X 1455   4.655   1.158   7.861 -0.9463  0.8030  0.2164
   11SAPS  H16Y 1456   4.682   1.005   7.955  0.1932 -0.4652 -1.6033
   11SAPS  C317 1457   4.579   1.164   8.060  0.0948  0.6328  0.3821
   11SAPS  H17X 1458   4.550   1.092   8.140 -0.1057  2.2470  1.8067
   11SAPS  H17Y 1459   4.496   1.233   8.036 -1.4713 -0.6546  1.8123
   11SAPS  C318 1460   4.696   1.242   8.107 -0.1816  0.0393  0.3286
   11SAPS  H18X 1461   4.733   1.314   8.030  1.9682 -0.7509  0.5592
   11SAPS  H18Y 1462   4.783   1.176   8.126 -0.5936 -0.5917  0.0500
   11SAPS  H18Z 1463   4.676   1.300   8.199 -1.1213 -2.2919  1.6565
   12SAPS     N 1464   5.081   0.756   5.960 -0.1114  0.3872 -0.6772
   12SAPS   HN1 1465   5.082   0.787   5.861 -0.2345 -0.7383 -1.0465
   12SAPS   HN2 1466   5.045   0.828   6.026  2.7544  0.5462  0.8612
   12SAPS   HN3 1467   5.172   0.727   6.001 -0.0139  1.6861  0.0898
   12SAPS   C12 1468   5.000   0.632   5.961 -0.2328 -0.2321 -0.1668
   12SAPS  H12A 1469   5.004   0.593   6.062  0.5633  1.3807  0.4616
   12SAPS   C13 1470   4.853   0.659   5.919  0.5557  0.2198  1.0415
   12SAPS  O13A 1471   4.806   0.776   5.920  0.0047 -0.4205 -0.2888
   12SAPS  O13B 1472   4.771   0.561   5.908 -0.2837 -0.0494 -0.5532
   12SAPS   C11 1473   5.059   0.528   5.859  0.5794 -0.4058 -0.4464
   12SAPS  H11A 1474   5.017   0.547   5.758  0.0909 -0.3808 -0.2413
   12SAPS  H11B 1475   5.017   0.430   5.893  0.4857 -0.0028  0.6427
   12SAPS     P 1476   5.283   0.405   5.890  0.0089 -0.4049 -0.1511
   12SAPS   O13 1477   5.209   0.282   5.853 -0.0691 -0.0310 -0.5126
   12SAPS   O14 1478   5.417   0.423   5.840  0.1579 -1.1351 -0.3120
   12SAPS   O12 1479   5.205   0.531   5.859  0.2427 -0.3956 -0.3932
   12SAPS   O11 1480   5.295   0.412   6.043 -0.0107  0.5158  0.8562
   12SAPS    C1 1481   5.245   0.310   6.129  0.1342 -0.1714  0.1786
   12SAPS    HA 1482   5.145   0.273   6.100  0.0036  0.4070 -0.1221
   12SAPS    HB 1483   5.308   0.221   6.109 -1.5337 -0.9365 -2.1203
   12SAPS    C2 1484   5.245   0.351   6.280  0.0768 -0.0242  0.4268
   12SAPS    HS 1485   5.221   0.265   6.345  0.9583  1.1719  2.4180
   12SAPS   O21 1486   5.141   0.457   6.290  0.2318  0.7523  0.1181
   12SAPS   C21 1487   5.067   0.446   6.396 -0.8543  0.2155 -0.2869
   12SAPS   O22 1488   5.086   0.364   6.485 -0.3762 -0.1168 -0.3752
   12SAPS   C22 1489   4.956   0.550   6.385 -0.6201 -0.1240 -0.3716
   12SAPS   H2R 1490   4.995   0.635   6.325  0.1284 -1.4267 -1.8000
   12SAPS   H2S 1491   4.879   0.507   6.317  0.8626 -1.0751 -1.5211
   12SAPS    C3 1492   5.388   0.393   6.325  1.1452  0.1263  0.3598
   12SAPS    HX 1493   5.406   0.471   6.248  0.8519 -1.0043 -0.8720
   12SAPS    HY 1494   5.451   0.303   6.306 -1.2762 -1.7415  0.7149
   12SAPS   O31 1495   5.372   0.435   6.462  0.2942 -0.1151 -0.0036
   12SAPS   C31 1496   5.482   0.466   6.515 -0.0234 -0.1657 -0.5381
   12SAPS   O32 1497   5.593   0.465   6.464  0.1051  0.2340  0.2088
   12SAPS   C32 1498   5.460   0.485   6.666 -0.0726  0.0464  0.0951
   12SAPS   H2X 1499   5.391   0.408   6.705  1.4223 -0.1666  2.4906
   12SAPS   H2Y 1500   5.415   0.586   6.680  2.4286  1.5442 -1.8079
   12SAPS   C23 1501   4.903   0.594   6.530 -0.0879 -1.1146  0.2525
   12SAPS   H3R 1502   4.870   0.496   6.573 -2.1742 -0.6479 -0.1515
   12SAPS   H3S 1503   4.810   0.653   6.516  0.6941 -0.1497 -1.0152
   12SAPS   C24 1504   4.999   0.677   6.608 -0.3361  0.8107  0.2796
   12SAPS   H4R 1505   5.097   0.627   6.619 -0.7212  0.3969  2.1230
   12SAPS   H4S 1506   4.961   0.684   6.712  1.2104 -2.3806  1.1924
   12SAPS   C25 1507   5.009   0.818   6.549 -0.2695 -0.3902  0.1647
   12SAPS   H5R 1508   4.946   0.836   6.460 -2.3756  0.4850  1.7317
   12SAPS   C26 1509   5.094   0.922   6.588 -0.0116 -0.0116 -0.5900
   12SAPS   H6R 1510   5.085   1.023   6.544 -1.4895  0.3731  0.5200
   12SAPS   C27 1511   5.177   0.921   6.716 -0.1679 -0.0125  0.4900
   12SAPS   H7R 1512   5.187   0.817   6.755 -3.0286  0.3495  2.5162
   12SAPS   H7S 1513   5.111   0.962   6.795  0.1111  0.9604  0.2261
   12SAPS   C28 1514   5.307   0.988   6.699 -0.8756 -0.1447 -0.3372
   12SAPS   H8R 1515   5.318   1.042   6.603  3.7837  0.4238  0.3150
   12SAPS   C29 1516   5.409   0.995   6.791  0.7872  0.1100  0.3651
   12SAPS   H9R 1517   5.497   1.060   6.775  0.7033 -0.2351 -1.9547
   12SAPS  C210 1518   5.400   0.924   6.923 -0.9786  0.0653 -0.2972
   12SAPS  H10R 1519   5.478   0.845   6.919 -1.4325 -0.3932 -0.1245
   12SAPS  H10S 1520   5.301   0.876   6.938  0.2387 -1.9756  1.8777
   12SAPS  C211 1521   5.433   1.010   7.042  0.3437 -0.2902  0.1992
   12SAPS  H11R 1522   5.431   1.119   7.026 -2.5232 -0.3921 -0.8221
   12SAPS  C212 1523   5.468   0.953   7.156  0.2148  0.3844 -0.1065
   12SAPS  H12R 1524   5.502   1.018   7.238  1.6717  1.3840 -1.4353
   12SAPS  C213 1525   5.498   0.806   7.195  0.5185  0.3875  0.1178
   12SAPS  H13R 1526   5.564   0.759   7.120 -1.0129  0.1707 -1.1399
   12SAPS  H13S 1527   5.402   0.752   7.181  0.1530  0.8074  0.8966
   12SAPS  C214 1528   5.539   0.765   7.338 -0.1805 -0.1903 -0.2223
   12SAPS  H14R 1529   5.631   0.703   7.335  0.3702  0.3631  2.7209
   12SAPS  C215 1530   5.464   0.770   7.449  0.0231 -0.2595  0.2739
   12SAPS  H15R 1531   5.502   0.734   7.545  0.5236  2.2590  1.1093
   12SAPS  C216 1532   5.324   0.831   7.451  1.1349  0.8123 -0.7273
   12SAPS  H16R 1533   5.311   0.926   7.395 -0.6494  0.6564 -0.6339
   12SAPS  H16S 1534   5.298   0.864   7.554  0.7641 -2.5714  0.3695
   12SAPS  C217 1535   5.200   0.747   7.397  0.2419 -0.1821 -0.2087
   12SAPS  H17R 1536   5.204   0.730   7.288  0.9574 -0.0592 -0.2090
   12SAPS  H17S 1537   5.102   0.796   7.415  0.7157  1.3102 -1.5127
   12SAPS  C218 1538   5.202   0.599   7.442 -0.2861 -0.5621 -0.0912
   12SAPS  H18R 1539   5.210   0.574   7.549 -0.9547 -1.4680 -0.2445
   12SAPS  H18S 1540   5.298   0.557   7.403  0.6747  1.9372 -0.6528
   12SAPS  C219 1541   5.082   0.516   7.394 -0.1947  0.8900  0.7844
   12SAPS  H19R 1542   5.054   0.519   7.287 -0.1412  0.2355  0.7494
   12SAPS  H19S 1543   4.990   0.536   7.453 -0.4365  1.2677  0.2857
   12SAPS  C220 1544   5.112   0.369   7.421  0.2766  0.1223 -0.5243
   12SAPS  H20R 1545   5.019   0.308   7.426  0.2794  0.1656  0.1873
   12SAPS  H20S 1546   5.161   0.354   7.520  0.0323 -4.8836 -0.9204
   12SAPS  H20T 1547   5.176   0.339   7.335  0.0538  1.2027 -1.0783
   12SAPS   C33 1548   5.592   0.478   6.748  0.2582 -0.0923 -0.5794
   12SAPS   H3X 1549   5.661   0.560   6.718  0.3408  0.0077 -0.1288
   12SAPS   H3Y 1550   5.652   0.387   6.728 -0.1879 -0.0073 -2.4660
   12SAPS   C34 1551   5.574   0.511   6.894 -1.0474 -0.3074  0.0488
   12SAPS   H4X 1552   5.505   0.598   6.902 -0.8064  0.0174 -1.3040
   12SAPS   H4Y 1553   5.669   0.549   6.938 -1.1617  0.9388 -0.7434
   12SAPS   C35 1554   5.529   0.390   6.981 -0.0049  0.2681 -0.4337
   12SAPS   H5X 1555   5.587   0.300   6.954 -1.6291 -0.5273 -1.4076
   12SAPS   H5Y 1556   5.423   0.370   6.955  0.7285 -4.8068 -0.4940
   12SAPS   C36 1557   5.541   0.419   7.137  0.2280  1.2954  0.1546
   12SAPS   H6X 1558   5.492   0.517   7.151  1.0755  1.3790  3.2962
   12SAPS   H6Y 1559   5.647   0.439   7.164  1.7314 -2.2334 -2.4570
   12SAPS   C37 1560   5.498   0.310   7.227 -0.6211 -0.5503  0.0610
   12SAPS   H7X 1561   5.553   0.215   7.207 -0.1704 -0.8163  2.3018
   12SAPS   H7Y 1562   5.394   0.283   7.198 -0.6544  0.1440 -0.4782
   12SAPS   C38 1563   5.514   0.350   7.377  0.4090  0.1271  0.1186
   12SAPS   H8X 1564   5.464   0.449   7.378  1.8432  0.9347 -1.6815
   12SAPS   H8Y 1565   5.621   0.359   7.407 -0.3189  1.4880  2.5193
   12SAPS   C39 1566   5.453   0.254   7.469 -0.0020  0.7293 -0.1533
   12SAPS   H9X 1567   5.482   0.149   7.451 -2.2444 -0.0785  0.5201
   12SAPS   H9Y 1568   5.344   0.274   7.456  0.0556  0.2771 -1.4219
   12SAPS  C310 1569   5.503   0.276   7.617  0.1828 -0.6829  0.7059
   12SAPS  H10X 1570   5.614   0.264   7.622  0.1558 -0.7304  1.4382
   12SAPS  H10Y 1571   5.460   0.196   7.681  0.2224 -0.8823  0.4836
   12SAPS  C311 1572   5.478   0.424   7.671 -0.3374 -0.3171  0.3150
   12SAPS  H11X 1573   5.404   0.465   7.598 -0.2477 -1.2107 -0.2926
   12SAPS  H11Y 1574   5.574   0.473   7.644 -0.6956  0.9520  1.2424
   12SAPS  C312 1575   5.442   0.451   7.815 -0.6137  0.1962 -0.7038
   12SAPS  H12X 1576   5.342   0.403   7.828  1.0674 -3.4489  0.0185
   12SAPS  H12Y 1577   5.422   0.561   7.816 -0.8979  0.1432 -0.1432
   12SAPS  C313 1578   5.544   0.400   7.921  0.4808 -0.2919 -0.6225
   12SAPS  H13X 1579   5.619   0.482   7.930 -0.8553  1.2111 -2.2406
   12SAPS  H13Y 1580   5.586   0.302   7.891 -1.8397 -1.7112  0.4812
   12SAPS  C314 1581   5.474   0.376   8.061  0.4623 -0.1735  0.4559
   12SAPS  H14X 1582   5.548   0.330   8.129  2.4865  1.8744 -0.2093
   12SAPS  H14Y 1583   5.393   0.304   8.038 -0.0710  0.7747 -0.7868
   12SAPS  C315 1584   5.410   0.503   8.117 -0.1136  0.5806  0.9272
   12SAPS  H15X 1585   5.355   0.472   8.209 -1.1192 -1.5542 -0.3330
   12SAPS  H15Y 1586   5.331   0.533   8.044  0.7523 -2.8175 -1.6100
   12SAPS  C316 1587   5.513   0.617   8.150  0.3529  0.4029 -0.1969
   12SAPS  H16X 1588   5.561   0.664   8.062  1.5714  3.4284  1.9043
   12SAPS  H16Y 1589   5.589   0.582   8.224 -0.8517  0.5513  1.1627
   12SAPS  C317 1590   5.431   0.739   8.213 -0.1712  0.9906  0.7080
   12SAPS  H17X 1591   5.375   0.793   8.134 -0.0282 -0.5982 -0.5456
   12SAPS  H17Y 1592   5.506   0.812   8.248 -0.0110  1.2157 -0.0796
   12SAPS  C318 1593   5.347   0.703   8.337 -0.4790 -0.4710  0.5091
   12SAPS  H18X 1594   5.405   0.664   8.424 -1.9986 -0.7994  1.4182
   12SAPS  H18Y 1595   5.264   0.636   8.307 -0.5234 -0.9838  1.7142
   12SAPS  H18Z 1596   5.300   0.797   8.371 -1.6179 -0.2556 -1.5523
   13SAPS     N 1597   5.220   4.120   5.802  0.1296  0.9011  0.2414
   13SAPS   HN1 1598   5.122   4.087   5.818 -0.2394  0.1291 -2.9883
   13SAPS   HN2 1599   5.283   4.041   5.829  2.0905  1.4640 -2.3555
   13SAPS   HN3 1600   5.237   4.201   5.865  1.1859  1.4431 -0.7208
   13SAPS   C12 1601   5.237   4.152   5.658  0.5346  0.0091  0.2079
   13SAPS  H12A 1602   5.340   4.180   5.641  0.9868 -0.4667  1.9996
   13SAPS   C13 1603   5.184   4.046   5.559 -0.1635 -0.5511 -0.8500
   13SAPS  O13A 1604   5.135   3.937   5.604 -0.2859 -0.2228  0.1391
   13SAPS  O13B 1605   5.176   4.081   5.437  0.5883 -0.3563 -0.2838
   13SAPS   C11 1606   5.166   4.286   5.639 -0.2315  0.2899 -0.0472
   13SAPS  H11A 1607   5.055   4.289   5.649 -0.1590 -0.0656  1.1310
   13SAPS  H11B 1608   5.187   4.322   5.536  1.7060 -2.6498 -0.7930
   13SAPS     P 1609   5.261   4.519   5.714  0.1935 -0.0217 -0.2049
   13SAPS   O13 1610   5.408   4.529   5.727 -0.8328  0.4288  0.3927
   13SAPS   O14 1611   5.203   4.544   5.584  0.4096 -0.1703 -0.6754
   13SAPS   O12 1612   5.216   4.373   5.751 -0.4776  0.7964  0.1521
   13SAPS   O11 1613   5.183   4.612   5.818  0.2164 -0.2700  0.6452
   13SAPS    C1 1614   5.229   4.607   5.953 -0.2754  0.3320  0.1045
   13SAPS    HA 1615   5.203   4.509   5.998 -0.8942  0.4766  0.0720
   13SAPS    HB 1616   5.338   4.629   5.955  0.2863 -1.9084 -1.1873
   13SAPS    C2 1617   5.161   4.723   6.033  0.3274  0.1944  0.0145
   13SAPS    HS 1618   5.054   4.699   6.016  1.0164 -3.6508  0.0932
   13SAPS   O21 1619   5.212   4.851   5.981 -0.6567 -0.0587 -0.3699
   13SAPS   C21 1620   5.115   4.938   5.976 -0.2194  0.2262 -0.5577
   13SAPS   O22 1621   4.995   4.914   5.991  0.1381 -0.1102 -0.7639
   13SAPS   C22 1622   5.158   5.077   5.930 -0.2915 -1.0252  0.5907
   13SAPS   H2R 1623   5.268   5.085   5.940 -0.4851 -0.2075  2.4869
   13SAPS   H2S 1624   5.131   5.085   5.822 -2.0845 -0.2980  1.0628
   13SAPS    C3 1625   5.183   4.697   6.189  0.0319 -0.4911 -0.0304
   13SAPS    HX 1626   5.293   4.703   6.204 -0.0791 -1.9891  1.7339
   13SAPS    HY 1627   5.168   4.591   6.218  1.8013 -0.5707  0.7050
   13SAPS   O31 1628   5.116   4.800   6.262  0.5931 -0.2241  0.3915
   13SAPS   C31 1629   4.980   4.787   6.276  0.1346 -0.2466  0.1230
   13SAPS   O32 1630   4.923   4.686   6.246  0.3032  0.0575  0.4830
   13SAPS   C32 1631   4.919   4.899   6.370 -0.0571 -0.0234  0.6221
   13SAPS   H2X 1632   4.844   4.848   6.433 -0.1743  1.0457  1.3726
   13SAPS   H2Y 1633   4.878   4.984   6.311 -0.4548 -0.2845  0.5168
   13SAPS   C23 1634   5.089   5.193   6.013  0.4475 -1.2071  1.2040
   13SAPS   H3R 1635   4.989   5.160   6.049 -0.0862  0.7333  1.5894
   13SAPS   H3S 1636   5.076   5.287   5.955  1.4766 -0.5372  2.0337
   13SAPS   C24 1637   5.175   5.226   6.134 -0.2485 -0.3724  0.4126
   13SAPS   H4R 1638   5.213   5.131   6.178 -0.0829 -0.3042  0.4176
   13SAPS   H4S 1639   5.109   5.270   6.212  0.9435  0.3584  1.0415
   13SAPS   C25 1640   5.279   5.332   6.097 -0.4150 -0.0374 -0.1640
   13SAPS   H5R 1641   5.286   5.351   5.989 -1.4115 -4.0521 -1.0820
   13SAPS   C26 1642   5.368   5.381   6.182 -0.2049  0.0792 -0.7527
   13SAPS   H6R 1643   5.448   5.445   6.141  0.6774 -0.5495 -0.0529
   13SAPS   C27 1644   5.384   5.356   6.334  0.2726 -0.1252 -0.3152
   13SAPS   H7R 1645   5.488   5.331   6.363  0.7353 -0.0975 -1.8374
   13SAPS   H7S 1646   5.318   5.275   6.373  0.5516 -0.2835 -0.1729
   13SAPS   C28 1647   5.350   5.488   6.402 -0.4685  0.3283  0.1357
   13SAPS   H8R 1648   5.309   5.564   6.333 -0.0726 -0.7461 -1.3414
   13SAPS   C29 1649   5.373   5.518   6.529 -0.4003  0.2611  0.3861
   13SAPS   H9R 1650   5.322   5.610   6.562 -0.1999  0.3317  0.4984
   13SAPS  C210 1651   5.439   5.417   6.625  0.3851 -0.7586  0.5676
   13SAPS  H10R 1652   5.490   5.332   6.575  1.8543 -0.0357  0.7826
   13SAPS  H10S 1653   5.373   5.357   6.691 -0.1122  0.9972  1.7495
   13SAPS  C211 1654   5.537   5.493   6.709  0.4009  0.0901 -0.4226
   13SAPS  H11R 1655   5.626   5.538   6.661  0.0360  0.4990 -0.7168
   13SAPS  C212 1656   5.528   5.516   6.841  0.4980 -0.3068 -0.0144
   13SAPS  H12R 1657   5.620   5.554   6.889  0.6454 -0.3836 -0.2338
   13SAPS  C213 1658   5.425   5.458   6.938 -0.2540 -0.6995 -0.2157
   13SAPS  H13R 1659   5.469   5.436   7.037 -2.7342  1.0742  1.3917
   13SAPS  H13S 1660   5.390   5.358   6.905  0.6843 -0.3633 -2.4249
   13SAPS  C214 1661   5.299   5.542   6.952 -0.3032  0.1258 -0.2398
   13SAPS  H14R 1662   5.254   5.559   6.853 -0.7234  1.4386  0.1591
   13SAPS  C215 1663   5.243   5.583   7.063 -0.1474 -0.1200 -0.0823
   13SAPS  H15R 1664   5.148   5.638   7.051 -0.2933 -0.1493  0.8898
   13SAPS  C216 1665   5.281   5.555   7.207 -0.0475 -0.4823  0.5063
   13SAPS  H16R 1666   5.355   5.628   7.248 -0.5576 -0.1353  0.8194
   13SAPS  H16S 1667   5.321   5.452   7.200 -0.5071 -0.5489 -3.6603
   13SAPS  C217 1668   5.165   5.550   7.301 -0.2366  0.2833  0.3200
   13SAPS  H17R 1669   5.099   5.462   7.286  1.2638 -1.1906  1.9753
   13SAPS  H17S 1670   5.114   5.648   7.290 -0.3705  0.2397  0.5459
   13SAPS  C218 1671   5.212   5.541   7.439  0.9307  0.8627 -1.0061
   13SAPS  H18R 1672   5.304   5.600   7.458  0.5527  0.9499  0.6862
   13SAPS  H18S 1673   5.245   5.436   7.455 -1.5222  0.2781  0.8199
   13SAPS  C219 1674   5.094   5.568   7.536 -0.3966 -0.4573 -0.6712
   13SAPS  H19R 1675   5.134   5.553   7.638  0.0967  1.5787 -0.5174
   13SAPS  H19S 1676   5.023   5.484   7.520  0.3909 -1.1693 -0.4811
   13SAPS  C220 1677   5.026   5.704   7.528  0.5147  0.2981 -0.4430
   13SAPS  H20R 1678   5.102   5.783   7.510 -0.1672  0.8569 -0.9368
   13SAPS  H20S 1679   4.967   5.732   7.618  0.5630 -1.3084  0.1253
   13SAPS  H20T 1680   4.953   5.714   7.444  1.2159 -1.4212 -1.3169
   13SAPS   C33 1681   5.026   4.950   6.477 -0.4024  0.0415  0.4599
   13SAPS   H3X 1682   5.108   5.013   6.436 -2.0052  2.7656  1.1777
   13SAPS   H3Y 1683   5.068   4.859   6.524  0.2308 -1.1660 -2.2450
   13SAPS   C34 1684   4.953   5.032   6.582 -0.5784 -0.4157 -0.4343
   13SAPS   H4X 1685   4.869   4.973   6.625  0.2704 -0.6450  0.9532
   13SAPS   H4Y 1686   4.909   5.117   6.524 -0.5138  0.2153  0.4213
   13SAPS   C35 1687   5.048   5.088   6.684  0.3053 -0.2253  0.1212
   13SAPS   H5X 1688   5.116   5.169   6.651 -0.8430  0.7734  0.1268
   13SAPS   H5Y 1689   5.132   5.020   6.708 -0.2168 -1.5319 -1.5745
   13SAPS   C36 1690   4.987   5.139   6.812  0.1184  0.2180  0.4572
   13SAPS   H6X 1691   4.911   5.212   6.776  2.5124  1.7922 -1.8435
   13SAPS   H6Y 1692   5.068   5.190   6.868  0.0296  0.2302  0.5734
   13SAPS   C37 1693   4.926   5.020   6.884  0.4182 -0.3809  0.0548
   13SAPS   H7X 1694   4.995   4.942   6.922  2.2239  1.1546  0.0825
   13SAPS   H7Y 1695   4.847   4.970   6.823 -0.7085  0.5900  0.6747
   13SAPS   C38 1696   4.864   5.065   7.016  0.0182 -0.6416 -0.2051
   13SAPS   H8X 1697   4.759   5.095   6.998  0.2580  0.2161 -0.2380
   13SAPS   H8Y 1698   4.904   5.164   7.047 -1.2754 -0.4467  0.9467
   13SAPS   C39 1699   4.851   4.956   7.124 -0.2508  0.0666  0.0371
   13SAPS   H9X 1700   4.953   4.917   7.145  0.3731  0.9798 -1.1417
   13SAPS   H9Y 1701   4.794   4.875   7.073 -1.4439  1.0546 -0.2437
   13SAPS  C310 1702   4.784   5.007   7.256  0.0622 -0.1371  0.4685
   13SAPS  H10X 1703   4.688   5.062   7.243  0.0873 -0.4944 -1.6687
   13SAPS  H10Y 1704   4.845   5.090   7.296 -0.9207  1.5557 -1.3529
   13SAPS  C311 1705   4.773   4.888   7.351 -0.1970 -0.2307 -0.6461
   13SAPS  H11X 1706   4.869   4.832   7.359  0.5198  1.1948  1.7373
   13SAPS  H11Y 1707   4.706   4.813   7.304  1.9033 -1.1294 -2.4216
   13SAPS  C312 1708   4.731   4.937   7.497  0.3388  0.3026  0.5799
   13SAPS  H12X 1709   4.656   5.017   7.481  1.2489  1.6234  2.5341
   13SAPS  H12Y 1710   4.820   4.987   7.541  2.3190 -1.4893 -1.1065
   13SAPS  C313 1711   4.677   4.831   7.589  0.3833 -0.0287  0.0448
   13SAPS  H13X 1712   4.759   4.774   7.637 -2.3009 -2.5181  2.0244
   13SAPS  H13Y 1713   4.617   4.758   7.530  1.9818 -0.8221 -0.6430
   13SAPS  C314 1714   4.575   4.892   7.693 -0.2402 -0.6236 -0.5244
   13SAPS  H14X 1715   4.485   4.915   7.632 -2.7054 -2.1449  2.2624
   13SAPS  H14Y 1716   4.619   4.986   7.733 -0.2877 -1.5684  1.9172
   13SAPS  C315 1717   4.539   4.788   7.798  0.4794  0.6107 -0.1450
   13SAPS  H15X 1718   4.618   4.780   7.875  0.2356  1.7665  0.2316
   13SAPS  H15Y 1719   4.533   4.693   7.739 -0.0584  1.5404 -1.6513
   13SAPS  C316 1720   4.406   4.802   7.873 -0.5140 -0.2320 -0.1735
   13SAPS  H16X 1721   4.320   4.824   7.807  0.1955  0.2567 -0.9602
   13SAPS  H16Y 1722   4.427   4.888   7.940  2.2888 -1.1535  0.2871
   13SAPS  C317 1723   4.372   4.674   7.952  0.2349 -0.4322 -0.2216
   13SAPS  H17X 1724   4.465   4.627   7.990  0.3267  0.7768  1.1315
   13SAPS  H17Y 1725   4.318   4.604   7.885 -1.1974  1.4960 -1.1798
   13SAPS  C318 1726   4.288   4.702   8.068  0.0517  0.1376  0.1521
   13SAPS  H18X 1727   4.183   4.705   8.033 -0.1371 -2.2437  0.3775
   13SAPS  H18Y 1728   4.314   4.797   8.119 -0.0258 -1.8952  4.4578
   13SAPS  H18Z 1729   4.297   4.626   8.149  0.8479  2.1903  2.0921
   14SAPS     N 1730   4.952   6.256   5.845 -0.0728 -0.1212  0.4847
   14SAPS   HN1 1731   4.864   6.205   5.823  0.1610 -1.0006  1.5291
   14SAPS   HN2 1732   5.020   6.180   5.859 -0.7155 -0.4688  1.9405
   14SAPS   HN3 1733   4.945   6.322   5.925 -0.5334  2.2524 -1.3837
   14SAPS   C12 1734   4.971   6.347   5.722 -0.2049  0.2536  0.2754
   14SAPS  H12A 1735   5.056   6.406   5.753 -0.0738 -0.6835  1.7793
   14SAPS   C13 1736   4.995   6.274   5.585 -0.0117  0.4819  0.1686
   14SAPS  O13A 1737   4.992   6.149   5.578 -0.2343 -0.7839  0.1351
   14SAPS  O13B 1738   4.997   6.345   5.481 -0.3756 -0.1551 -0.1412
   14SAPS   C11 1739   4.832   6.422   5.710 -0.1078  0.2553 -0.2109
   14SAPS  H11A 1740   4.759   6.341   5.687  2.4110 -2.3126  0.2968
   14SAPS  H11B 1741   4.832   6.499   5.631 -2.3125  0.8059  0.2563
   14SAPS     P 1742   4.682   6.609   5.842  0.0182 -0.5965 -0.0211
   14SAPS   O13 1743   4.745   6.732   5.891 -0.0781  0.2956 -0.1183
   14SAPS   O14 1744   4.635   6.616   5.704  0.0217 -0.1301  0.1034
   14SAPS   O12 1745   4.798   6.490   5.836  0.4976 -0.1214  0.4551
   14SAPS   O11 1746   4.572   6.561   5.943 -0.0906  0.2581 -0.1218
   14SAPS    C1 1747   4.557   6.422   5.985 -0.6270  0.0419  0.1967
   14SAPS    HA 1748   4.453   6.394   6.013  0.0322 -2.0841  0.6562
   14SAPS    HB 1749   4.576   6.351   5.903  1.4623 -0.5223  1.1191
   14SAPS    C2 1750   4.661   6.395   6.102 -0.0818 -0.0593  0.7162
   14SAPS    HS 1751   4.760   6.392   6.050  0.2791  1.5023  1.2486
   14SAPS   O21 1752   4.624   6.265   6.155 -0.0629 -0.9417  0.0672
   14SAPS   C21 1753   4.728   6.179   6.186 -0.1363  0.7254  0.3032
   14SAPS   O22 1754   4.843   6.215   6.204  0.2131  0.2442 -0.6916
   14SAPS   C22 1755   4.677   6.037   6.189 -0.4465  0.3435 -0.1436
   14SAPS   H2R 1756   4.569   6.031   6.164 -0.2938 -3.5337 -0.5685
   14SAPS   H2S 1757   4.738   5.987   6.111 -1.0865 -0.1893 -0.3138
   14SAPS    C3 1758   4.656   6.506   6.220 -0.6521  0.3434  0.2047
   14SAPS    HX 1759   4.547   6.518   6.241 -0.5698  2.6523 -0.3895
   14SAPS    HY 1760   4.699   6.599   6.177  1.0940 -1.9403 -3.4852
   14SAPS   O31 1761   4.715   6.467   6.350 -0.0542 -0.1250 -0.1246
   14SAPS   C31 1762   4.721   6.570   6.434 -0.0333 -0.3346  0.1361
   14SAPS   O32 1763   4.656   6.675   6.422  0.5719 -0.4197 -0.2850
   14SAPS   C32 1764   4.784   6.525   6.563 -0.4323  0.7951 -0.4631
   14SAPS   H2X 1765   4.889   6.504   6.533 -0.5781 -0.1085 -0.3561
   14SAPS   H2Y 1766   4.742   6.431   6.604  1.2467  1.0032  1.9830
   14SAPS   C23 1767   4.696   5.956   6.318  0.4059  0.2002 -0.6294
   14SAPS   H3R 1768   4.805   5.949   6.342  0.6379  2.0292 -1.0249
   14SAPS   H3S 1769   4.652   5.854   6.322 -1.3236  0.9668  0.7451
   14SAPS   C24 1770   4.625   6.035   6.437  0.1481 -0.3558 -0.5185
   14SAPS   H4R 1771   4.531   6.065   6.387  0.6676 -0.1700 -1.4130
   14SAPS   H4S 1772   4.682   6.129   6.454 -0.2867 -0.1671 -0.0798
   14SAPS   C25 1773   4.616   5.952   6.562 -0.0410  0.2444  0.2085
   14SAPS   H5R 1774   4.516   5.915   6.592  0.0272 -0.2954 -0.2242
   14SAPS   C26 1775   4.719   5.938   6.649 -0.3540  0.4756 -0.6908
   14SAPS   H6R 1776   4.719   5.880   6.743  0.2387  0.0192 -0.9719
   14SAPS   C27 1777   4.860   5.999   6.630 -0.6148 -0.7429 -0.2293
   14SAPS   H7R 1778   4.868   6.090   6.693  0.8446 -1.0161  0.0053
   14SAPS   H7S 1779   4.856   6.032   6.525 -1.1987 -1.1326 -0.3378
   14SAPS   C28 1780   4.972   5.913   6.668  0.1176  0.2713  0.0824
   14SAPS   H8R 1781   5.006   5.852   6.583 -1.6824 -0.4723 -0.1359
   14SAPS   C29 1782   5.045   5.920   6.785  0.0676 -0.6106 -0.1982
   14SAPS   H9R 1783   5.118   5.839   6.801 -0.9487 -1.0616  2.8773
   14SAPS  C210 1784   5.024   5.993   6.911 -0.4775 -0.0589  0.1209
   14SAPS  H10R 1785   4.941   6.066   6.901  0.9696  1.4772 -1.4902
   14SAPS  H10S 1786   5.110   6.062   6.929 -1.8483  1.6181  0.4717
   14SAPS  C211 1787   4.996   5.905   7.036 -0.0716  0.1217 -0.5365
   14SAPS  H11R 1788   4.930   5.820   7.016  0.1074  0.1131 -1.1022
   14SAPS  C212 1789   5.021   5.934   7.167 -0.4638 -0.3422  0.6144
   14SAPS  H12R 1790   4.982   5.861   7.240  0.0237 -1.1274  0.0957
   14SAPS  C213 1791   5.075   6.062   7.233 -0.0686  0.4718 -0.8065
   14SAPS  H13R 1792   5.180   6.077   7.199  0.1279  0.1562 -0.3578
   14SAPS  H13S 1793   5.080   6.052   7.344 -1.6704 -2.2856 -0.9041
   14SAPS  C214 1794   4.998   6.189   7.205 -0.2619 -0.3732 -0.3359
   14SAPS  H14R 1795   4.972   6.205   7.099 -0.4219  1.6987 -0.0306
   14SAPS  C215 1796   4.932   6.262   7.297 -0.3996  0.1731 -0.5249
   14SAPS  H15R 1797   4.902   6.364   7.269 -0.5180  0.7924  1.6610
   14SAPS  C216 1798   4.960   6.245   7.446 -0.2558 -0.1854 -0.4750
   14SAPS  H16R 1799   5.063   6.273   7.476  0.7462 -1.6531 -2.3368
   14SAPS  H16S 1800   4.966   6.138   7.472  3.9199 -0.2348 -1.0860
   14SAPS  C217 1801   4.858   6.322   7.532 -0.3550  0.0984 -0.3939
   14SAPS  H17R 1802   4.756   6.285   7.509 -0.8452  0.1816  1.4358
   14SAPS  H17S 1803   4.864   6.432   7.520  1.6551 -0.0420 -0.9847
   14SAPS  C218 1804   4.878   6.293   7.682 -0.6293 -0.6833  0.8994
   14SAPS  H18R 1805   4.889   6.183   7.690 -0.0779 -0.9644 -2.3553
   14SAPS  H18S 1806   4.793   6.328   7.744 -2.1174  0.1178 -1.4612
   14SAPS  C219 1807   5.010   6.344   7.738  0.2841  0.4245 -0.1006
   14SAPS  H19R 1808   5.096   6.294   7.689 -0.7111 -1.0407 -0.4364
   14SAPS  H19S 1809   5.004   6.347   7.849 -4.0218  0.1951 -0.1457
   14SAPS  C220 1810   5.044   6.493   7.708 -0.2729  0.2209  0.1462
   14SAPS  H20R 1811   5.132   6.528   7.766 -0.6074 -0.8703  1.3809
   14SAPS  H20S 1812   4.963   6.560   7.746  0.7083  1.8450 -0.5050
   14SAPS  H20T 1813   5.051   6.514   7.599 -2.6435 -1.7014 -0.4751
   14SAPS   C33 1814   4.787   6.634   6.662 -0.2725 -0.4804  0.3938
   14SAPS   H3X 1815   4.687   6.658   6.706  0.3812 -0.4328  1.9131
   14SAPS   H3Y 1816   4.829   6.723   6.610 -1.6201 -1.1185 -1.9281
   14SAPS   C34 1817   4.872   6.600   6.788  0.3428  0.3066 -0.0813
   14SAPS   H4X 1818   4.879   6.695   6.845  0.5326 -0.4877  1.2557
   14SAPS   H4Y 1819   4.970   6.569   6.747  0.6199  0.0184  0.7704
   14SAPS   C35 1820   4.800   6.499   6.881  0.1968 -0.6940  0.4634
   14SAPS   H5X 1821   4.768   6.402   6.838 -0.7369 -0.7882  1.3217
   14SAPS   H5Y 1822   4.705   6.556   6.892  0.6126  0.4851 -1.5588
   14SAPS   C36 1823   4.855   6.496   7.029 -0.0993 -0.0274  0.7250
   14SAPS   H6X 1824   4.948   6.436   7.013 -1.3502 -1.4783 -1.8302
   14SAPS   H6Y 1825   4.789   6.429   7.087 -1.4066  0.5998  0.0014
   14SAPS   C37 1826   4.872   6.633   7.098  0.2257 -0.3148 -0.2561
   14SAPS   H7X 1827   4.794   6.710   7.081  1.3080  1.1381  1.0255
   14SAPS   H7Y 1828   4.958   6.683   7.049 -0.5106 -0.1769 -1.4438
   14SAPS   C38 1829   4.893   6.628   7.253 -0.3331 -0.1197 -0.6132
   14SAPS   H8X 1830   4.994   6.586   7.268  0.0151  1.5536  2.5574
   14SAPS   H8Y 1831   4.824   6.558   7.305 -0.1338  0.8238  0.9998
   14SAPS   C39 1832   4.881   6.771   7.312  0.0426  0.7349 -0.3564
   14SAPS   H9X 1833   4.783   6.822   7.299  0.2280  1.8004  1.8685
   14SAPS   H9Y 1834   4.955   6.840   7.266  0.3546 -0.1009 -1.1323
   14SAPS  C310 1835   4.912   6.775   7.461 -0.4168 -0.6214 -0.3624
   14SAPS  H10X 1836   5.004   6.717   7.483 -0.2377 -0.5225 -0.8400
   14SAPS  H10Y 1837   4.832   6.724   7.518  0.4635 -0.7651  0.7733
   14SAPS  C311 1838   4.941   6.920   7.518  0.6738 -0.4283  0.3572
   14SAPS  H11X 1839   4.848   6.980   7.528  0.7866  0.4645 -2.9123
   14SAPS  H11Y 1840   5.013   6.973   7.452  0.5103 -0.5256  0.1019
   14SAPS  C312 1841   4.991   6.911   7.654  0.1117  0.6515  0.3888
   14SAPS  H12X 1842   5.090   6.863   7.669 -0.3653 -0.2655  0.6914
   14SAPS  H12Y 1843   4.918   6.853   7.715 -0.9045  1.1040 -0.3505
   14SAPS  C313 1844   5.014   7.050   7.722  0.1104 -0.2326 -0.5958
   14SAPS  H13X 1845   4.930   7.120   7.704  0.1122  1.3504  4.2164
   14SAPS  H13Y 1846   5.106   7.093   7.678  0.3781 -1.4925 -1.3227
   14SAPS  C314 1847   5.019   7.026   7.873 -0.6963  0.0931 -0.0250
   14SAPS  H14X 1848   5.097   6.951   7.897  1.1190  1.8626 -0.0375
   14SAPS  H14Y 1849   4.931   6.981   7.923  0.4338 -1.7397  0.4220
   14SAPS  C315 1850   5.034   7.154   7.953 -0.6182 -0.3339  0.2595
   14SAPS  H15X 1851   5.101   7.226   7.903  0.6195 -1.2867  0.4864
   14SAPS  H15Y 1852   5.075   7.131   8.054 -1.3506 -0.5823  0.5085
   14SAPS  C316 1853   4.902   7.232   7.975 -0.2391 -0.1603 -0.0696
   14SAPS  H16X 1854   4.831   7.177   8.041 -0.8699  0.9205  0.1784
   14SAPS  H16Y 1855   4.842   7.259   7.886  2.1571  0.5453 -1.5554
   14SAPS  C317 1856   4.922   7.373   8.037 -0.4502 -0.7694 -0.4099
   14SAPS  H17X 1857   4.958   7.376   8.142 -3.7055 -1.1874  0.8416
   14SAPS  H17Y 1858   4.821   7.419   8.032  0.8644  2.2214 -1.6549
   14SAPS  C318 1859   5.005   7.463   7.944 -0.1552  0.4477  0.4772
   14SAPS  H18X 1860   4.974   7.440   7.840  1.2154 -0.4582  0.2322
   14SAPS  H18Y 1861   5.110   7.427   7.957 -1.1068 -2.8267 -0.0307
   14SAPS  H18Z 1862   4.989   7.572   7.958  1.0772  0.5931  0.8727
   15SAPS     N 1863   5.623   0.250   5.815 -0.5327  0.2290 -0.7542
   15SAPS   HN1 1864   5.589   0.195   5.897  0.2347  1.4227  0.4044
   15SAPS   HN2 1865   5.559   0.331   5.812 -1.1721 -0.2548 -0.4659
   15SAPS   HN3 1866   5.619   0.198   5.725 -0.2886 -0.9045 -0.1311
   15SAPS   C12 1867   5.765   0.290   5.834 -0.4481 -0.0725  0.1886
   15SAPS  H12A 1868   5.764   0.326   5.936  0.0052  1.4426 -0.3114
   15SAPS   C13 1869   5.872   0.173   5.819 -0.0336  0.2317 -0.2077
   15SAPS  O13A 1870   5.832   0.057   5.811  0.0433 -0.0915 -0.0879
   15SAPS  O13B 1871   5.988   0.194   5.850  0.2334 -0.1854 -0.0557
   15SAPS   C11 1872   5.807   0.396   5.732  0.4754 -0.6931 -0.1240
   15SAPS  H11A 1873   5.813   0.347   5.632  1.7840  1.5753 -1.2616
   15SAPS  H11B 1874   5.908   0.438   5.750 -0.3178  1.3364 -0.1190
   15SAPS     P 1875   5.745   0.649   5.777 -0.0472 -0.2231 -0.2302
   15SAPS   O13 1876   5.881   0.690   5.733 -0.0658 -0.8244  0.1375
   15SAPS   O14 1877   5.631   0.746   5.752 -0.2428  0.1181  0.7770
   15SAPS   O12 1878   5.710   0.507   5.720 -0.8749  0.6719 -0.0444
   15SAPS   O11 1879   5.762   0.602   5.925 -0.8067  0.1399  0.5735
   15SAPS    C1 1880   5.655   0.582   6.015  0.3566  0.0978  0.1612
   15SAPS    HA 1881   5.577   0.661   6.007 -0.6691 -1.0512 -2.3541
   15SAPS    HB 1882   5.610   0.481   6.000 -3.1551  1.3041  1.3617
   15SAPS    C2 1883   5.712   0.570   6.158  0.3389  0.7592  0.2032
   15SAPS    HS 1884   5.642   0.510   6.221  2.6943  0.0208  2.3037
   15SAPS   O21 1885   5.745   0.700   6.216 -0.2151 -0.3376 -0.0990
   15SAPS   C21 1886   5.640   0.771   6.266  0.2869  0.3096 -0.0068
   15SAPS   O22 1887   5.520   0.749   6.258 -0.3140  0.0665 -0.1798
   15SAPS   C22 1888   5.696   0.896   6.320 -0.4596 -0.7056 -0.0737
   15SAPS   H2R 1889   5.807   0.900   6.318 -0.4820  0.2663  0.1898
   15SAPS   H2S 1890   5.660   0.968   6.244 -0.8917 -0.7510  0.0843
   15SAPS    C3 1891   5.851   0.490   6.162 -0.7243  0.3316 -0.0914
   15SAPS    HX 1892   5.921   0.564   6.118  0.3375 -0.1862  0.6919
   15SAPS    HY 1893   5.856   0.404   6.091 -2.2956  1.3317 -1.4761
   15SAPS   O31 1894   5.889   0.451   6.290  0.2256 -0.3604 -0.2441
   15SAPS   C31 1895   5.957   0.531   6.369 -0.3605 -0.0331 -0.3408
   15SAPS   O32 1896   5.989   0.648   6.354  0.0637  0.4915  0.3087
   15SAPS   C32 1897   6.010   0.440   6.487 -0.3632  0.7659 -0.1410
   15SAPS   H2X 1898   6.116   0.433   6.454  0.4612 -0.0363  2.4548
   15SAPS   H2Y 1899   5.964   0.339   6.477  0.7843  0.0051  1.8466
   15SAPS   C23 1900   5.629   0.936   6.455 -0.3357 -0.5707 -0.1685
   15SAPS   H3R 1901   5.521   0.954   6.435 -0.5772  0.5188  1.8592
   15SAPS   H3S 1902   5.673   1.031   6.491  0.3161 -0.1408 -2.0300
   15SAPS   C24 1903   5.631   0.823   6.558 -0.1333  0.3974 -0.1271
   15SAPS   H4R 1904   5.578   0.735   6.516 -1.8994  1.0397  0.6770
   15SAPS   H4S 1905   5.562   0.856   6.639  2.1356  2.0329  1.2800
   15SAPS   C25 1906   5.765   0.792   6.616  0.4126 -0.1814  0.6406
   15SAPS   H5R 1907   5.817   0.711   6.564  0.1527  0.6881 -1.0310
   15SAPS   C26 1908   5.827   0.851   6.713  0.2929 -0.2241 -0.1152
   15SAPS   H6R 1909   5.923   0.809   6.745 -1.3912 -1.9056  3.3306
   15SAPS   C27 1910   5.787   0.977   6.784 -0.3166  0.7299 -0.2656
   15SAPS   H7R 1911   5.777   0.973   6.895 -2.6273  0.2457 -0.4398
   15SAPS   H7S 1912   5.684   1.000   6.749 -0.8475 -2.2620 -0.9743
   15SAPS   C28 1913   5.881   1.082   6.731 -0.2524  0.3662 -0.6287
   15SAPS   H8R 1914   5.895   1.083   6.621  0.3318 -1.2426 -0.5966
   15SAPS   C29 1915   5.959   1.163   6.805 -0.8531 -0.2200 -0.7480
   15SAPS   H9R 1916   6.032   1.235   6.765 -0.8670 -0.5287 -1.3552
   15SAPS  C210 1917   5.966   1.158   6.957  0.7432 -0.7190  0.2357
   15SAPS  H10R 1918   6.065   1.186   7.001  0.4241 -1.1643  1.2666
   15SAPS  H10S 1919   5.944   1.057   6.999 -0.6099 -0.7941 -0.6185
   15SAPS  C211 1920   5.873   1.252   7.033  0.1124  0.0527 -0.2400
   15SAPS  H11R 1921   5.804   1.316   6.977  2.6411  1.4745 -1.9194
   15SAPS  C212 1922   5.865   1.261   7.169 -0.0547 -0.5141 -0.6734
   15SAPS  H12R 1923   5.789   1.322   7.219  0.2398 -0.6408 -0.0612
   15SAPS  C213 1924   5.945   1.191   7.270  0.4877  0.3048 -0.3853
   15SAPS  H13R 1925   5.958   1.261   7.356  0.1499 -0.1977  0.0768
   15SAPS  H13S 1926   6.049   1.169   7.238  0.7849 -0.6490  1.1739
   15SAPS  C214 1927   5.893   1.060   7.326  0.6648  0.2589 -0.1533
   15SAPS  H14R 1928   5.930   0.969   7.277  0.4649 -0.7633  1.5297
   15SAPS  C215 1929   5.776   1.048   7.406  0.1885  1.0373 -0.0479
   15SAPS  H15R 1930   5.754   0.948   7.447 -0.9876  1.1094 -0.4869
   15SAPS  C216 1931   5.706   1.158   7.476 -0.6706 -0.3091 -0.0001
   15SAPS  H16R 1932   5.607   1.168   7.426 -0.1309 -0.0235 -1.0429
   15SAPS  H16S 1933   5.767   1.249   7.456  3.9417 -3.4397 -1.9476
   15SAPS  C217 1934   5.682   1.131   7.625  0.5555 -0.4470  0.5142
   15SAPS  H17R 1935   5.668   1.225   7.682  0.1092  0.2317 -0.6633
   15SAPS  H17S 1936   5.776   1.094   7.670  0.2834 -2.8943 -0.7745
   15SAPS  C218 1937   5.561   1.048   7.664  0.4907  0.8880 -0.6410
   15SAPS  H18R 1938   5.571   0.943   7.632  0.3496  0.1048  1.6706
   15SAPS  H18S 1939   5.464   1.092   7.632  0.9530  2.1503 -0.3903
   15SAPS  C219 1940   5.556   1.040   7.821  0.0534  0.1892  0.7614
   15SAPS  H19R 1941   5.548   1.141   7.866  0.4203  0.3274  0.5119
   15SAPS  H19S 1942   5.656   1.000   7.847 -1.0924 -2.4740  1.4563
   15SAPS  C220 1943   5.459   0.946   7.884  0.3740  0.3655 -0.0944
   15SAPS  H20R 1944   5.355   0.964   7.848  0.6539  0.8097 -0.6902
   15SAPS  H20S 1945   5.456   0.956   7.995 -1.0563 -1.0434  0.0383
   15SAPS  H20T 1946   5.490   0.840   7.870  1.6552  0.2717  2.7716
   15SAPS   C33 1947   5.986   0.499   6.629 -0.2634  0.9087 -0.0297
   15SAPS   H3X 1948   5.875   0.505   6.634 -0.5694 -2.3443 -0.7925
   15SAPS   H3Y 1949   6.038   0.593   6.661  1.8805 -1.3027  3.8088
   15SAPS   C34 1950   6.034   0.394   6.727 -0.6679  0.0964  0.2026
   15SAPS   H4X 1951   6.141   0.373   6.708 -1.0789 -0.5394 -1.6344
   15SAPS   H4Y 1952   5.971   0.307   6.697 -0.6468 -0.3933  1.5244
   15SAPS   C35 1953   6.007   0.401   6.878 -0.1394 -0.1996  1.1895
   15SAPS   H5X 1954   6.049   0.318   6.939 -3.0041 -1.7319  1.2429
   15SAPS   H5Y 1955   5.898   0.403   6.899 -0.1436 -0.3345  1.1828
   15SAPS   C36 1956   6.073   0.526   6.937 -0.5987 -0.5643 -0.1252
   15SAPS   H6X 1957   6.029   0.611   6.882 -1.9727 -2.7539 -2.6602
   15SAPS   H6Y 1958   6.180   0.513   6.908 -0.2789 -1.9412  1.5114
   15SAPS   C37 1959   6.068   0.548   7.085 -0.1248  0.6924 -0.6480
   15SAPS   H7X 1960   6.156   0.606   7.119  0.7957  0.0646 -1.8549
   15SAPS   H7Y 1961   6.094   0.451   7.132 -2.4165 -1.9345 -4.2366
   15SAPS   C38 1962   5.935   0.603   7.135 -0.2203  0.0562  0.1045
   15SAPS   H8X 1963   5.858   0.530   7.101 -0.0907 -0.2998  0.5646
   15SAPS   H8Y 1964   5.903   0.695   7.082  1.8324 -0.2104 -1.7151
   15SAPS   C39 1965   5.929   0.624   7.288  0.4024  0.1424 -0.3077
   15SAPS   H9X 1966   5.834   0.673   7.319  0.6806 -0.0495  0.8915
   15SAPS   H9Y 1967   6.019   0.684   7.315  1.5077 -1.0410 -1.1905
   15SAPS  C310 1968   5.929   0.487   7.363 -0.3166 -0.5718 -0.3137
   15SAPS  H10X 1969   6.029   0.441   7.352  0.7225  1.1392  1.3274
   15SAPS  H10Y 1970   5.854   0.423   7.312  1.9105 -2.8213 -0.9325
   15SAPS  C311 1971   5.882   0.481   7.509 -0.1903 -0.2674  0.1008
   15SAPS  H11X 1972   5.776   0.513   7.513 -0.3806 -0.7607 -0.6541
   15SAPS  H11Y 1973   5.927   0.560   7.574 -0.9771 -0.4111  0.8325
   15SAPS  C312 1974   5.899   0.342   7.564  0.0046  0.2684 -0.7251
   15SAPS  H12X 1975   6.004   0.308   7.552 -0.2364 -0.2697 -1.4182
   15SAPS  H12Y 1976   5.835   0.265   7.515 -1.2431  1.3560 -0.8640
   15SAPS  C313 1977   5.869   0.328   7.720 -0.0047 -0.6305 -0.0857
   15SAPS  H13X 1978   5.768   0.352   7.759 -0.1908 -0.3161 -0.7535
   15SAPS  H13Y 1979   5.931   0.402   7.775  1.1114 -1.5795 -0.0171
   15SAPS  C314 1980   5.899   0.193   7.783  0.2255  1.1136 -0.1646
   15SAPS  H14X 1981   5.807   0.133   7.763 -0.7807  2.2879  0.7351
   15SAPS  H14Y 1982   5.906   0.219   7.891  0.2208  0.1170  0.0860
   15SAPS  C315 1983   6.034   0.121   7.743  1.4229  0.2939  0.3092
   15SAPS  H15X 1984   6.111   0.200   7.731  0.5575  1.0561 -0.2799
   15SAPS  H15Y 1985   6.023   0.067   7.646  0.1876 -4.3079  2.6925
   15SAPS  C316 1986   6.067   0.002   7.831 -0.2373  0.2610 -0.4952
   15SAPS  H16X 1987   5.978  -0.064   7.839  0.3394 -0.5478 -0.6228
   15SAPS  H16Y 1988   6.100   0.043   7.929 -0.3538 -0.6218 -0.0779
   15SAPS  C317 1989   6.187  -0.078   7.789 -0.0556 -0.3938 -0.2929
   15SAPS  H17X 1990   6.166  -0.134   7.695 -2.7020 -1.2274  0.7223
   15SAPS  H17Y 1991   6.201  -0.158   7.864  0.7358  0.7077  0.7884
   15SAPS  C318 1992   6.318   0.000   7.774 -0.4808  0.6314  0.3950
   15SAPS  H18X 1993   6.347   0.046   7.870 -1.7837 -0.1957  1.2156
   15SAPS  H18Y 1994   6.295   0.079   7.698 -0.8293  1.3297  1.2120
   15SAPS  H18Z 1995   6.403  -0.065   7.745 -0.4756  0.6756  0.3103
   16SAPS     N 1996   0.689   2.693   5.642  0.3179  0.4742 -0.7193
   16SAPS   HN1 1997   0.729   2.637   5.564 -0.2067  0.8909 -1.2992
   16SAPS   HN2 1998   0.755   2.709   5.720  2.7721  2.3370 -2.9900
   16SAPS   HN3 1999   0.593   2.657   5.661  0.7535 -1.0782 -1.2972
   16SAPS   C12 2000   0.680   2.834   5.599  0.2327 -0.6788  0.0162
   16SAPS  H12A 2001   0.777   2.881   5.596 -0.9744  1.8964 -0.5925
   16SAPS   C13 2002   0.617   2.863   5.465 -0.3700 -0.1607  0.1409
   16SAPS  O13A 2003   0.604   2.769   5.385  0.2494  0.2418  0.0664
   16SAPS  O13B 2004   0.599   2.985   5.434  0.1885  0.1236 -0.0781
   16SAPS   C11 2005   0.611   2.927   5.714 -0.1089  0.1976  0.2170
   16SAPS  H11A 2006   0.503   2.907   5.703  0.1250 -1.6520  0.8357
   16SAPS  H11B 2007   0.626   3.034   5.690  1.0192 -0.1403 -0.6849
   16SAPS     P 2008   0.781   2.944   5.918 -0.1457 -0.1320  0.2938
   16SAPS   O13 2009   0.899   2.881   5.869 -0.4120  0.4010 -0.4685
   16SAPS   O14 2010   0.775   3.090   5.925 -0.2673 -0.1854 -0.3244
   16SAPS   O12 2011   0.645   2.885   5.847 -0.1282  0.4600  0.5354
   16SAPS   O11 2012   0.753   2.892   6.058 -0.1951 -0.5310 -0.0068
   16SAPS    C1 2013   0.713   2.764   6.088 -0.0432 -0.8224  0.4286
   16SAPS    HA 2014   0.604   2.756   6.069 -0.0830 -3.0502  1.3212
   16SAPS    HB 2015   0.769   2.690   6.027  0.6644  1.1479 -1.4985
   16SAPS    C2 2016   0.738   2.716   6.237  0.0168 -0.2489  0.1666
   16SAPS    HS 2017   0.704   2.610   6.230 -0.7433 -0.1873  2.1191
   16SAPS   O21 2018   0.668   2.800   6.335  0.2942  0.0392 -0.8259
   16SAPS   C21 2019   0.538   2.770   6.336  0.4608 -0.1749 -0.7810
   16SAPS   O22 2020   0.477   2.692   6.264 -0.3289  0.3078 -0.1923
   16SAPS   C22 2021   0.465   2.841   6.454 -0.1873  0.1560  0.3485
   16SAPS   H2R 2022   0.464   2.769   6.539  0.3187 -0.3825 -0.0967
   16SAPS   H2S 2023   0.509   2.940   6.480 -1.7393  1.5070 -1.7999
   16SAPS    C3 2024   0.887   2.718   6.268  0.4184  0.4835 -0.1406
   16SAPS    HX 2025   0.915   2.824   6.246  0.4903  1.1541  2.7839
   16SAPS    HY 2026   0.936   2.639   6.208 -0.0119 -0.1937  0.3887
   16SAPS   O31 2027   0.911   2.679   6.401 -0.0136  0.2662 -0.2586
   16SAPS   C31 2028   0.925   2.785   6.490  0.0147  0.3021 -0.2339
   16SAPS   O32 2029   0.942   2.904   6.462 -0.0025  0.5452  0.2404
   16SAPS   C32 2030   0.946   2.732   6.626 -0.2396 -0.2061 -0.5803
   16SAPS   H2X 2031   1.052   2.700   6.636 -0.1930 -0.4215 -1.6090
   16SAPS   H2Y 2032   0.873   2.651   6.649 -1.3562  1.3747  1.8426
   16SAPS   C23 2033   0.315   2.873   6.421  0.2292  0.2487  0.5292
   16SAPS   H3R 2034   0.259   2.785   6.382  0.2431  0.2196  0.5749
   16SAPS   H3S 2035   0.327   2.948   6.341 -0.3111  1.8621  1.9122
   16SAPS   C24 2036   0.236   2.931   6.531  0.3423 -0.5991  0.6288
   16SAPS   H4R 2037   0.142   2.975   6.490  0.9089  1.3936  1.3636
   16SAPS   H4S 2038   0.299   3.015   6.566  0.1498  0.2638 -0.9978
   16SAPS   C25 2039   0.195   2.823   6.630 -0.0124 -0.2587  0.0393
   16SAPS   H5R 2040   0.141   2.735   6.593  0.8827 -0.5241 -0.6915
   16SAPS   C26 2041   0.229   2.833   6.761 -0.3013  0.4448 -0.2961
   16SAPS   H6R 2042   0.193   2.758   6.834  0.9116 -2.2418 -2.3023
   16SAPS   C27 2043   0.308   2.942   6.833 -0.4708  0.4662 -0.3962
   16SAPS   H7R 2044   0.400   2.955   6.773 -0.2581 -0.1525 -0.2039
   16SAPS   H7S 2045   0.340   2.906   6.933 -1.5650 -2.3829 -0.9701
   16SAPS   C28 2046   0.252   3.087   6.839 -0.1933  1.2254 -0.2490
   16SAPS   H8R 2047   0.214   3.136   6.749  0.0535  1.2754 -0.3260
   16SAPS   C29 2048   0.263   3.167   6.942 -0.6712 -0.3408 -0.2639
   16SAPS   H9R 2049   0.212   3.265   6.943 -0.0555 -0.0140  0.1554
   16SAPS  C210 2050   0.298   3.124   7.081  0.0161 -0.4573 -0.5374
   16SAPS  H10R 2051   0.250   3.026   7.101 -0.1244 -0.3962 -0.5711
   16SAPS  H10S 2052   0.247   3.188   7.156 -1.0357 -0.2058 -1.4459
   16SAPS  C211 2053   0.441   3.119   7.117  0.5146 -0.4358  0.1152
   16SAPS  H11R 2054   0.502   3.058   7.050 -0.0899 -0.0444 -0.8058
   16SAPS  C212 2055   0.495   3.169   7.232  0.2192 -0.4595 -0.4362
   16SAPS  H12R 2056   0.601   3.140   7.237  1.0012  2.0573 -0.8984
   16SAPS  C213 2057   0.435   3.261   7.341 -0.9291 -0.2076  0.1332
   16SAPS  H13R 2058   0.358   3.327   7.296  1.9413  2.1202 -1.7572
   16SAPS  H13S 2059   0.520   3.330   7.362  1.1949 -2.2426 -1.2752
   16SAPS  C214 2060   0.382   3.207   7.469 -0.1913 -0.0451 -0.5597
   16SAPS  H14R 2061   0.323   3.114   7.463 -1.4091  0.5408  1.2538
   16SAPS  C215 2062   0.420   3.252   7.594  0.4155  0.1827  0.4968
   16SAPS  H15R 2063   0.382   3.199   7.682  0.1044 -3.6803 -1.7519
   16SAPS  C216 2064   0.511   3.370   7.614  0.5654 -0.2652  0.3876
   16SAPS  H16R 2065   0.501   3.443   7.530  1.0820  0.7761  1.2048
   16SAPS  H16S 2066   0.618   3.345   7.630  0.6206 -1.4827 -1.5502
   16SAPS  C217 2067   0.471   3.439   7.753  0.0507  0.0954 -0.3985
   16SAPS  H17R 2068   0.372   3.488   7.744 -0.6148 -1.4560 -2.6653
   16SAPS  H17S 2069   0.537   3.527   7.762 -1.4360  1.1765  0.4160
   16SAPS  C218 2070   0.468   3.349   7.880 -0.2304 -0.0055 -0.1119
   16SAPS  H18R 2071   0.562   3.290   7.887 -1.0481 -1.1741  1.7613
   16SAPS  H18S 2072   0.383   3.278   7.875 -0.6503  0.5685 -3.0512
   16SAPS  C219 2073   0.444   3.438   8.006  0.2137 -0.2667 -0.3348
   16SAPS  H19R 2074   0.349   3.490   7.982 -0.5733 -1.8824 -0.8826
   16SAPS  H19S 2075   0.533   3.505   8.006  1.6723 -2.1298 -0.2088
   16SAPS  C220 2076   0.458   3.365   8.142  0.1474 -0.8446 -0.3036
   16SAPS  H20R 2077   0.420   3.261   8.133 -0.8576 -0.6344  1.1906
   16SAPS  H20S 2078   0.394   3.415   8.217  2.0034  1.0863  0.0879
   16SAPS  H20T 2079   0.567   3.366   8.164  0.1589  2.7039  0.0718
   16SAPS   C33 2080   0.910   2.845   6.726  0.4591  0.4984  0.1677
   16SAPS   H3X 2081   0.819   2.902   6.699 -0.4174 -0.6461  0.6093
   16SAPS   H3Y 2082   0.994   2.917   6.740  0.4813  0.6603 -0.7653
   16SAPS   C34 2083   0.890   2.773   6.867 -0.5778 -1.0233 -0.1070
   16SAPS   H4X 2084   0.971   2.698   6.879  2.0898  1.8550  1.4089
   16SAPS   H4Y 2085   0.790   2.726   6.875 -2.4237  2.4012 -0.9782
   16SAPS   C35 2086   0.897   2.879   6.980  0.3012  0.1377  0.2261
   16SAPS   H5X 2087   0.809   2.942   6.954  1.3586  1.2124 -0.8885
   16SAPS   H5Y 2088   0.995   2.931   6.980  0.9623 -1.0690  1.0523
   16SAPS   C36 2089   0.869   2.812   7.113  0.3645  0.8395 -0.4035
   16SAPS   H6X 2090   0.948   2.740   7.142 -2.6295 -1.5978  2.5542
   16SAPS   H6Y 2091   0.777   2.750   7.100  0.8780  0.2766 -1.5805
   16SAPS   C37 2092   0.859   2.906   7.233 -0.1754  0.6484  0.6478
   16SAPS   H7X 2093   0.807   3.001   7.209  0.0064  0.4916 -0.4084
   16SAPS   H7Y 2094   0.963   2.939   7.254  1.2479 -1.9023 -1.6610
   16SAPS   C38 2095   0.791   2.857   7.359 -0.4825  0.0337  0.0280
   16SAPS   H8X 2096   0.849   2.772   7.401  1.3786  1.6977  1.0110
   16SAPS   H8Y 2097   0.685   2.832   7.339 -0.6387  0.1020  0.7431
   16SAPS   C39 2098   0.792   2.961   7.466  0.2742  0.9162 -0.0719
   16SAPS   H9X 2099   0.727   3.048   7.442 -2.0543 -0.9450 -0.9067
   16SAPS   H9Y 2100   0.898   2.993   7.477  1.1047 -1.3454 -0.9651
   16SAPS  C310 2101   0.738   2.900   7.593  0.4864 -0.3134 -0.4362
   16SAPS  H10X 2102   0.789   2.809   7.632 -1.2068  0.5668  4.6523
   16SAPS  H10Y 2103   0.637   2.862   7.569  1.4777 -2.6168 -1.2545
   16SAPS  C311 2104   0.723   2.994   7.717 -0.4365  0.1227 -0.1393
   16SAPS  H11X 2105   0.658   3.079   7.686 -0.8062  0.7226  2.1352
   16SAPS  H11Y 2106   0.823   3.031   7.748  0.6076 -2.8048  0.2894
   16SAPS  C312 2107   0.672   2.923   7.842 -0.0595 -0.8044  0.0996
   16SAPS  H12X 2108   0.730   2.829   7.855  1.2492 -0.4049 -2.2506
   16SAPS  H12Y 2109   0.567   2.888   7.829 -0.4893  0.5137 -0.1648
   16SAPS  C313 2110   0.674   3.002   7.968 -0.2391 -1.1539  0.4505
   16SAPS  H13X 2111   0.645   2.943   8.058  0.0236 -0.3016  1.1036
   16SAPS  H13Y 2112   0.605   3.089   7.963  1.3225  0.0697 -1.3187
   16SAPS  C314 2113   0.806   3.065   8.008 -0.2835 -0.2169  0.3771
   16SAPS  H14X 2114   0.787   3.133   8.094 -3.6520 -0.6166  0.0883
   16SAPS  H14Y 2115   0.837   3.125   7.919  0.5133 -1.2484 -0.0648
   16SAPS  C315 2116   0.914   2.965   8.052 -0.0076 -0.0189 -0.6595
   16SAPS  H15X 2117   0.952   2.917   7.960  1.1481 -0.3109 -0.0520
   16SAPS  H15Y 2118   0.867   2.886   8.115  0.9671 -0.3600 -0.3398
   16SAPS  C316 2119   1.029   3.022   8.130 -0.3670  0.1574  0.2778
   16SAPS  H16X 2120   1.088   2.933   8.163  0.3512  1.2040  1.9343
   16SAPS  H16Y 2121   0.992   3.072   8.222  0.7883 -1.0731  1.4638
   16SAPS  C317 2122   1.127   3.110   8.055  0.5420 -0.4512  0.2639
   16SAPS  H17X 2123   1.061   3.193   8.021 -0.1845 -0.2951  1.9507
   16SAPS  H17Y 2124   1.148   3.052   7.963 -1.8709 -1.0087 -0.0023
   16SAPS  C318 2125   1.236   3.162   8.151  0.2269 -0.3042 -0.1398
   16SAPS  H18X 2126   1.324   3.190   8.089 -0.3011 -0.8915 -1.1935
   16SAPS  H18Y 2127   1.258   3.085   8.228 -2.3623 -1.2663 -0.2666
   16SAPS  H18Z 2128   1.209   3.258   8.199  1.7486 -0.7037  1.6011
   17SAPC     N 2129   2.559   5.109   9.859 -0.4043  0.4459  0.4060
   17SAPC   C12 2130   2.522   5.116   9.997 -0.8605 -0.7064 -0.0335
   17SAPC  H12A 2131   2.418   5.091  10.008 -0.9214  0.2538  2.1518
   17SAPC  H12B 2132   2.526   5.224  10.008  1.4545 -0.5900 -1.3264
   17SAPC   C13 2133   2.446   5.163   9.780 -0.2625 -0.3835  0.7674
   17SAPC  H13A 2134   2.426   5.267   9.800 -1.8477 -0.5747  0.2609
   17SAPC  H13B 2135   2.470   5.159   9.675 -0.1803 -1.5377  0.8243
   17SAPC  H13C 2136   2.352   5.113   9.799 -1.7223  1.6908 -0.5731
   17SAPC   C14 2137   2.679   5.183   9.821 -0.2524  0.2567  0.8843
   17SAPC  H14A 2138   2.768   5.126   9.846 -0.7095 -0.9845 -0.2106
   17SAPC  H14B 2139   2.690   5.191   9.714  2.0677 -2.4748  0.7773
   17SAPC  H14C 2140   2.665   5.280   9.867 -2.2128  1.5373 -2.1433
   17SAPC   C15 2141   2.581   4.963   9.814  0.1423  0.0705 -0.6584
   17SAPC  H15A 2142   2.592   4.953   9.707  1.2325 -1.5354 -0.4297
   17SAPC  H15B 2143   2.664   4.913   9.861  0.7792  1.4765 -0.2302
   17SAPC  H15C 2144   2.497   4.901   9.842  1.5172 -0.5500  2.4984
   17SAPC   C11 2145   2.599   5.038  10.101  0.0747 -0.2931 -0.2052
   17SAPC  H11A 2146   2.608   4.929  10.081 -0.7181 -0.6875  1.3667
   17SAPC  H11B 2147   2.532   5.045  10.190  2.8556  1.7498  1.9344
   17SAPC     P 2148   2.861   5.059  10.127  0.2680 -0.0541  0.2499
   17SAPC   O13 2149   2.952   5.174  10.110 -0.1493  0.4698  0.1180
   17SAPC   O14 2150   2.889   4.974  10.245 -0.2956 -0.6531 -0.5993
   17SAPC   O12 2151   2.718   5.111  10.127 -0.4139  0.7368  0.1859
   17SAPC   O11 2152   2.875   4.969  10.000 -0.2840  0.2352 -0.4002
   17SAPC    C1 2153   3.001   4.945   9.937 -0.1108  0.4478  0.1392
   17SAPC    HA 2154   3.045   5.042   9.905  0.1996  1.5931  3.6328
   17SAPC    HB 2155   3.068   4.883  10.000 -0.8661  0.9805  1.5046
   17SAPC    C2 2156   2.983   4.843   9.817  0.2897 -0.0439 -0.0505
   17SAPC    HS 2157   3.084   4.811   9.783 -0.2205  1.0815 -2.9605
   17SAPC   O21 2158   2.908   4.905   9.714 -0.8199  0.4736  0.0699
   17SAPC   C21 2159   2.950   4.882   9.591  0.0806  0.1450 -0.1093
   17SAPC   O22 2160   3.045   4.809   9.558  0.3851  0.5483 -0.4500
   17SAPC   C22 2161   2.858   4.948   9.495  0.6260 -0.1367  0.6590
   17SAPC   H2R 2162   2.799   4.867   9.448 -3.4869  2.1082  1.4535
   17SAPC   H2S 2163   2.784   5.013   9.546  0.0664 -0.4317  0.2293
   17SAPC    C3 2164   2.916   4.711   9.867  0.8539 -0.2182  0.2782
   17SAPC    HX 2165   2.813   4.746   9.891  1.7320  1.9144  1.1943
   17SAPC    HY 2166   2.960   4.677   9.963 -0.0925  0.5817  1.0153
   17SAPC   O31 2167   2.924   4.614   9.763  0.4620  0.7463  0.0485
   17SAPC   C31 2168   2.819   4.600   9.687  0.1793 -0.8614 -0.5208
   17SAPC   O32 2169   2.719   4.666   9.690 -0.3205  0.0894  0.0556
   17SAPC   C32 2170   2.834   4.465   9.611  0.2803  0.3421  0.0654
   17SAPC   H2X 2171   2.732   4.424   9.595 -0.3344  2.0679 -0.7701
   17SAPC   H2Y 2172   2.893   4.400   9.679  2.0515 -0.8782 -2.4904
   17SAPC   C23 2173   2.937   5.034   9.387  0.1985  0.2622 -0.1313
   17SAPC   H3R 2174   2.914   4.995   9.286 -0.0504  0.6652 -0.2316
   17SAPC   H3S 2175   3.044   5.021   9.415 -0.4364  0.0768  2.5077
   17SAPC   C24 2176   2.905   5.185   9.402 -0.7293  0.4253  0.2594
   17SAPC   H4R 2177   2.795   5.190   9.386 -0.5577  2.7655 -0.5493
   17SAPC   H4S 2178   2.945   5.241   9.315 -2.8465  0.1873 -0.9357
   17SAPC   C25 2179   2.957   5.234   9.530  0.0389 -0.2269 -0.9916
   17SAPC   H5R 2180   2.883   5.267   9.605  1.4927  2.1273 -0.5002
   17SAPC   C26 2181   3.085   5.285   9.550  0.0661  0.0821 -0.5205
   17SAPC   H6R 2182   3.113   5.331   9.646  3.2266 -0.3935 -1.1081
   17SAPC   C27 2183   3.197   5.290   9.453 -0.4119 -0.4733 -0.3473
   17SAPC   H7R 2184   3.156   5.287   9.349 -0.3307  0.1852 -0.4059
   17SAPC   H7S 2185   3.269   5.206   9.454  1.4102  0.9352  2.8891
   17SAPC   C28 2186   3.285   5.408   9.461 -0.1904  0.6609  0.0652
   17SAPC   H8R 2187   3.285   5.456   9.560 -2.1893  0.6182  0.1297
   17SAPC   C29 2188   3.365   5.466   9.369 -0.3708 -0.2572 -0.8810
   17SAPC   H9R 2189   3.432   5.548   9.398  0.8643 -2.4294  3.4155
   17SAPC  C210 2190   3.378   5.411   9.224  0.1814 -0.5163  0.0132
   17SAPC  H10R 2191   3.337   5.308   9.220  0.0363 -0.4235 -1.0376
   17SAPC  H10S 2192   3.480   5.410   9.180  0.8062 -1.4458  1.4127
   17SAPC  C211 2193   3.310   5.495   9.117 -0.3529  0.0784 -0.2193
   17SAPC  H11R 2194   3.322   5.604   9.129  0.3495  0.0264 -0.3816
   17SAPC  C212 2195   3.237   5.455   9.006 -0.0616  0.2000  0.4428
   17SAPC  H12R 2196   3.205   5.528   8.930  3.0116  2.7050  1.3432
   17SAPC  C213 2197   3.207   5.316   8.964  0.4684  0.1529  0.4076
   17SAPC  H13R 2198   3.101   5.283   8.966  0.9900 -1.6014  1.5510
   17SAPC  H13S 2199   3.243   5.238   9.034  2.1222 -1.2595 -1.8803
   17SAPC  C214 2200   3.277   5.288   8.834 -0.3984 -0.0833 -0.2429
   17SAPC  H14R 2201   3.367   5.227   8.850  0.0085  0.4581 -0.4835
   17SAPC  C215 2202   3.253   5.324   8.710  0.3802  0.2315  0.5256
   17SAPC  H15R 2203   3.323   5.295   8.630 -1.1802 -1.1193 -0.3972
   17SAPC  C216 2204   3.134   5.418   8.670  0.1585  0.1454 -0.5639
   17SAPC  H16R 2205   3.171   5.514   8.629  2.5178 -0.3201  0.3027
   17SAPC  H16S 2206   3.069   5.436   8.759 -0.1426 -0.6248 -0.6145
   17SAPC  C217 2207   3.050   5.346   8.567 -0.1430 -0.5527 -0.1643
   17SAPC  H17R 2208   2.978   5.424   8.534  0.2539 -0.5278 -0.9965
   17SAPC  H17S 2209   2.992   5.255   8.591 -1.9764  0.1612 -1.5965
   17SAPC  C218 2210   3.128   5.321   8.436  0.1323 -0.3910 -0.2022
   17SAPC  H18R 2211   3.229   5.276   8.448 -0.3846 -1.2003  1.3082
   17SAPC  H18S 2212   3.155   5.418   8.390  2.0401  0.0706  1.7301
   17SAPC  C219 2213   3.050   5.225   8.335  0.1487 -0.6044  0.0357
   17SAPC  H19R 2214   3.057   5.121   8.371 -0.6679 -1.3432 -1.8132
   17SAPC  H19S 2215   3.114   5.227   8.244  1.9514 -1.2606  1.2412
   17SAPC  C220 2216   2.912   5.274   8.292 -0.3369 -0.1644  0.5244
   17SAPC  H20R 2217   2.834   5.252   8.367  0.1049 -0.2328  0.9730
   17SAPC  H20S 2218   2.871   5.225   8.201 -1.9324  2.0222 -0.0137
   17SAPC  H20T 2219   2.915   5.381   8.263  0.2131  0.5482  2.9690
   17SAPC   C33 2220   2.904   4.470   9.471  0.4116 -0.0948  0.9049
   17SAPC   H3X 2221   2.926   4.367   9.435 -3.3031 -0.4829 -0.6061
   17SAPC   H3Y 2222   2.997   4.530   9.481 -0.3478  1.0236  1.3656
   17SAPC   C34 2223   2.807   4.536   9.367  0.0355  0.3710 -0.1790
   17SAPC   H4X 2224   2.761   4.629   9.408 -1.9420  0.7279 -2.9362
   17SAPC   H4Y 2225   2.721   4.470   9.343  0.2540 -0.1311  0.4210
   17SAPC   C35 2226   2.863   4.568   9.229  0.4891 -0.4904 -0.5154
   17SAPC   H5X 2227   2.777   4.596   9.165 -1.2827  0.3692  2.0373
   17SAPC   H5Y 2228   2.914   4.476   9.195  0.9460 -1.5539  2.6718
   17SAPC   C36 2229   2.963   4.683   9.223  0.0584  0.7238 -0.7122
   17SAPC   H6X 2230   3.058   4.638   9.259  0.2912  1.0811 -0.8757
   17SAPC   H6Y 2231   2.937   4.756   9.303  1.9356  1.0463 -0.3658
   17SAPC   C37 2232   2.983   4.754   9.090 -0.6377 -0.4338 -0.2258
   17SAPC   H7X 2233   2.893   4.799   9.043  0.1394 -0.6867 -2.0337
   17SAPC   H7Y 2234   3.013   4.675   9.018 -2.1145 -0.9525 -0.2933
   17SAPC   C38 2235   3.103   4.856   9.092 -0.5383 -0.7583  0.7686
   17SAPC   H8X 2236   3.197   4.802   9.118  0.0787  0.9708  2.3255
   17SAPC   H8Y 2237   3.088   4.924   9.178  1.4919  1.3476 -0.4070
   17SAPC   C39 2238   3.111   4.955   8.971  0.3087 -0.1407 -0.2971
   17SAPC   H9X 2239   3.198   5.021   8.992  0.6062 -0.5524 -0.2145
   17SAPC   H9Y 2240   3.023   5.022   8.963  0.1831 -0.4979 -2.6056
   17SAPC  C310 2241   3.130   4.877   8.842 -0.3777  0.2785  0.9553
   17SAPC  H10X 2242   3.041   4.814   8.821 -0.3450 -0.0016  1.6464
   17SAPC  H10Y 2243   3.215   4.806   8.852  1.0714  1.9217  0.8881
   17SAPC  C311 2244   3.150   4.978   8.730 -0.0983  0.1057 -0.5374
   17SAPC  H11X 2245   3.228   5.055   8.746  0.4303 -0.9661  2.7075
   17SAPC  H11Y 2246   3.053   5.033   8.724  0.6510  1.3417 -2.3890
   17SAPC  C312 2247   3.172   4.923   8.590 -0.6383 -0.0038 -0.9103
   17SAPC  H12X 2248   3.248   4.844   8.570 -0.4706 -0.1303  0.2061
   17SAPC  H12Y 2249   3.216   5.007   8.532 -1.6332  1.9096  0.9908
   17SAPC  C313 2250   3.049   4.877   8.514  0.2568  0.7397 -0.0056
   17SAPC  H13X 2251   2.985   4.967   8.509 -3.8652 -1.8579  0.2706
   17SAPC  H13Y 2252   2.990   4.794   8.561  0.9340 -0.2700 -0.8915
   17SAPC  C314 2253   3.085   4.829   8.370 -0.3308 -0.2405 -0.7146
   17SAPC  H14X 2254   3.139   4.732   8.376  1.4765  0.7996  1.4446
   17SAPC  H14Y 2255   3.154   4.898   8.316  0.7171 -0.1752  0.6693
   17SAPC  C315 2256   2.953   4.813   8.284 -0.3757  0.0596  0.1855
   17SAPC  H15X 2257   2.883   4.896   8.306 -0.6544 -0.4118  1.1263
   17SAPC  H15Y 2258   2.895   4.724   8.316 -0.8725  1.4001  3.3028
   17SAPC  C316 2259   2.979   4.789   8.126  0.3144 -0.0308 -0.5839
   17SAPC  H16X 2260   3.033   4.692   8.123  1.1871  0.3972  0.4576
   17SAPC  H16Y 2261   3.048   4.867   8.088 -0.8036  0.8804 -0.7882
   17SAPC  C317 2262   2.856   4.794   8.043  0.2173  0.8747  0.3999
   17SAPC  H17X 2263   2.896   4.814   7.941 -0.3284 -0.7568 -0.1593
   17SAPC  H17Y 2264   2.787   4.875   8.075 -3.5259 -0.8780 -2.4520
   17SAPC  C318 2265   2.776   4.661   8.042  0.4356  0.2311  0.0931
   17SAPC  H18X 2266   2.685   4.686   7.984  0.5687  0.6102  0.0389
   17SAPC  H18Y 2267   2.837   4.579   7.997  1.7744  0.1957  1.8511
   17SAPC  H18Z 2268   2.750   4.623   8.143  0.0167  1.3050  0.3990
   18SAPC     N 2269   3.465   6.595  10.454  0.6115  0.6783  0.0397
   18SAPC   C12 2270   3.433   6.602  10.309 -0.3631  0.1912  0.0028
   18SAPC  H12A 2271   3.407   6.704  10.285  0.4583 -0.2340 -3.1812
   18SAPC  H12B 2272   3.342   6.547  10.292 -0.4230  0.2022  0.2783
   18SAPC   C13 2273   3.357   6.662  10.539 -0.0521 -0.3939  0.1595
   18SAPC  H13A 2274   3.381   6.766  10.559 -1.9147  0.2090 -0.5185
   18SAPC  H13B 2275   3.255   6.645  10.508 -0.7555 -1.0777  2.6135
   18SAPC  H13C 2276   3.367   6.608  10.632 -0.7426  0.5903  0.8297
   18SAPC   C14 2277   3.468   6.452  10.492 -0.2129  0.9781  0.8119
   18SAPC  H14A 2278   3.483   6.437  10.598 -1.1423  1.2384  0.9897
   18SAPC  H14B 2279   3.374   6.406  10.462  1.4669 -2.6988  0.6158
   18SAPC  H14C 2280   3.548   6.402  10.440  0.4977  0.2637  2.5287
   18SAPC   C15 2281   3.597   6.659  10.497  0.4729 -0.3923 -0.2893
   18SAPC  H15A 2282   3.675   6.631  10.428 -1.5018  1.2668 -3.4873
   18SAPC  H15B 2283   3.591   6.767  10.493 -2.1573 -0.5073 -2.0448
   18SAPC  H15C 2284   3.616   6.637  10.600 -1.3451  0.4940  0.2778
   18SAPC   C11 2285   3.544   6.552  10.214  0.5801 -1.0651 -0.5079
   18SAPC  H11A 2286   3.639   6.596  10.252 -0.1218  0.0213  0.0514
   18SAPC  H11B 2287   3.528   6.600  10.115 -1.0920  1.2880  0.8000
   18SAPC     P 2288   3.427   6.348  10.115  0.2022 -0.4136 -0.0203
   18SAPC   O13 2289   3.459   6.207  10.095 -0.2963 -0.3259 -0.0712
   18SAPC   O14 2290   3.297   6.381  10.172  0.4052 -0.4956 -0.6926
   18SAPC   O12 2291   3.549   6.408  10.198  0.1114 -0.3389 -0.5022
   18SAPC   O11 2292   3.427   6.417   9.972  0.1546  0.1770  0.0969
   18SAPC    C1 2293   3.518   6.377   9.871  0.7208 -0.4425 -0.7896
   18SAPC    HA 2294   3.550   6.271   9.868  1.8286 -0.1058 -1.4582
   18SAPC    HB 2295   3.468   6.398   9.774 -0.1064  2.4689  0.1585
   18SAPC    C2 2296   3.646   6.461   9.879 -0.1930  0.1066  0.3590
   18SAPC    HS 2297   3.704   6.438   9.971 -0.2299 -1.5083  0.0082
   18SAPC   O21 2298   3.611   6.597   9.893  0.2330 -0.0042 -0.1947
   18SAPC   C21 2299   3.705   6.688   9.906  0.1643 -0.1892  0.3301
   18SAPC   O22 2300   3.819   6.670   9.934 -1.1389  0.1663  0.1886
   18SAPC   C22 2301   3.642   6.831   9.895  0.0543 -0.0072 -0.1871
   18SAPC   H2R 2302   3.532   6.822   9.908  0.0327 -0.1386 -0.4563
   18SAPC   H2S 2303   3.693   6.893   9.971  1.2374 -2.3279  1.0448
   18SAPC    C3 2304   3.743   6.433   9.762  0.5462 -0.1720 -0.5471
   18SAPC    HX 2305   3.841   6.469   9.799  0.2492 -0.7470  0.8830
   18SAPC    HY 2306   3.718   6.487   9.669 -0.6029  2.4195  1.1609
   18SAPC   O31 2307   3.767   6.291   9.753 -0.2124  0.3170 -0.1675
   18SAPC   C31 2308   3.700   6.238   9.643 -0.1504  0.5301 -0.7440
   18SAPC   O32 2309   3.631   6.296   9.568 -0.2305 -0.4385  0.0293
   18SAPC   C32 2310   3.731   6.085   9.641  0.0402  0.0214  0.2684
   18SAPC   H2X 2311   3.634   6.036   9.620 -0.3909  1.4042 -1.1155
   18SAPC   H2Y 2312   3.751   6.067   9.749 -1.8273  0.8139  0.7723
   18SAPC   C23 2313   3.702   6.896   9.764 -0.3889 -0.5812 -0.8968
   18SAPC   H3R 2314   3.795   6.845   9.732  0.5652  0.7713 -0.3796
   18SAPC   H3S 2315   3.732   7.002   9.780  0.5110 -0.9506 -0.0556
   18SAPC   C24 2316   3.594   6.892   9.653 -0.3837  0.7102  0.2403
   18SAPC   H4R 2317   3.631   6.946   9.563 -2.2605 -1.2879 -1.8791
   18SAPC   H4S 2318   3.515   6.949   9.706 -0.7909  0.8965 -0.5626
   18SAPC   C25 2319   3.552   6.743   9.625  0.8251 -0.5412  0.2688
   18SAPC   H5R 2320   3.474   6.694   9.685 -0.5182  0.0690 -0.9193
   18SAPC   C26 2321   3.589   6.673   9.520 -0.3842  0.0803  0.4975
   18SAPC   H6R 2322   3.546   6.572   9.516  1.3739 -0.6780 -2.6688
   18SAPC   C27 2323   3.694   6.705   9.415 -0.4850  0.2086 -0.6182
   18SAPC   H7R 2324   3.760   6.790   9.444  0.0487 -0.2038 -0.5929
   18SAPC   H7S 2325   3.639   6.740   9.325 -0.0519  0.7743 -0.6666
   18SAPC   C28 2326   3.771   6.580   9.383  0.4360  0.1846 -0.1130
   18SAPC   H8R 2327   3.787   6.503   9.459 -0.3249 -1.0882 -1.1961
   18SAPC   C29 2328   3.813   6.529   9.262  0.4333 -0.3163 -0.3533
   18SAPC   H9R 2329   3.871   6.436   9.262  0.5660 -0.2421 -1.5568
   18SAPC  C210 2330   3.795   6.593   9.133 -0.2259 -0.0975  0.5971
   18SAPC  H10R 2331   3.874   6.551   9.067 -0.2961 -0.1992  0.5787
   18SAPC  H10S 2332   3.800   6.704   9.146  3.4059 -0.2011  1.1043
   18SAPC  C211 2333   3.663   6.555   9.066  0.2017  0.2469 -0.3511
   18SAPC  H11R 2334   3.580   6.566   9.137  1.2279 -2.0507  1.3310
   18SAPC  C212 2335   3.637   6.492   8.947 -0.4719  0.9013 -0.8039
   18SAPC  H12R 2336   3.531   6.481   8.922 -0.9781 -1.6479  1.8908
   18SAPC  C213 2337   3.734   6.442   8.849 -0.1924  0.7988  0.2098
   18SAPC  H13R 2338   3.835   6.470   8.887 -0.5060  0.5126  1.2822
   18SAPC  H13S 2339   3.719   6.499   8.755 -3.4301 -0.3602 -0.0714
   18SAPC  C214 2340   3.719   6.294   8.835  0.2230  0.3653 -0.5982
   18SAPC  H14R 2341   3.764   6.248   8.925  1.3727  0.0916 -1.2908
   18SAPC  C215 2342   3.661   6.221   8.735 -0.4974 -0.0315  0.6351
   18SAPC  H15R 2343   3.640   6.113   8.742 -0.5737  0.0025  0.9503
   18SAPC  C216 2344   3.596   6.276   8.612  0.5376 -0.2529 -0.1437
   18SAPC  H16R 2345   3.541   6.368   8.643  1.1488 -0.3014  1.1665
   18SAPC  H16S 2346   3.512   6.207   8.592 -0.6924  0.0850  3.1623
   18SAPC  C217 2347   3.691   6.289   8.489 -0.8567 -0.2050 -0.3129
   18SAPC  H17R 2348   3.784   6.337   8.526 -1.4077  0.7323 -0.0803
   18SAPC  H17S 2349   3.627   6.357   8.428 -1.8777  0.7721  1.7449
   18SAPC  C218 2350   3.705   6.173   8.398  0.5292  0.0591  0.3380
   18SAPC  H18R 2351   3.600   6.141   8.382 -0.6304  2.6617  2.0398
   18SAPC  H18S 2352   3.749   6.088   8.455 -1.0100 -0.8167  0.2735
   18SAPC  C219 2353   3.767   6.207   8.261  0.2725 -0.4991 -1.0221
   18SAPC  H19R 2354   3.695   6.265   8.199 -0.7011  0.9839  1.3134
   18SAPC  H19S 2355   3.784   6.108   8.214 -1.2704 -1.4363  0.2991
   18SAPC  C220 2356   3.903   6.275   8.271 -0.0961  0.5753 -0.5735
   18SAPC  H20R 2357   3.948   6.290   8.171  1.4770 -0.8306 -0.1379
   18SAPC  H20S 2358   3.977   6.202   8.312 -0.2960  1.3008  1.1687
   18SAPC  H20T 2359   3.897   6.371   8.327 -1.2244 -0.0543  0.4399
   18SAPC   C33 2360   3.848   6.048   9.554  0.3780  0.4328  0.1214
   18SAPC   H3X 2361   3.845   5.937   9.551  0.4902  0.3953 -3.7399
   18SAPC   H3Y 2362   3.942   6.072   9.608 -0.6987 -1.7233  3.1754
   18SAPC   C34 2363   3.849   6.113   9.418  0.2283  0.8387 -0.0350
   18SAPC   H4X 2364   3.885   6.218   9.414  0.4977  0.7595  0.2808
   18SAPC   H4Y 2365   3.746   6.118   9.377 -0.2816 -1.1716  0.8821
   18SAPC   C35 2366   3.934   6.035   9.308 -0.2802  0.5439 -0.1071
   18SAPC   H5X 2367   3.903   5.928   9.300 -1.6276  0.9666 -0.7357
   18SAPC   H5Y 2368   4.042   6.034   9.333 -0.1357 -2.2577 -0.4587
   18SAPC   C36 2369   3.908   6.090   9.170 -0.3680  0.5719 -1.0282
   18SAPC   H6X 2370   3.939   6.196   9.182  3.3378 -0.6647  2.5182
   18SAPC   H6Y 2371   3.799   6.072   9.151 -0.1391 -1.7830 -0.4841
   18SAPC   C37 2372   4.003   6.024   9.073  0.3988 -0.1387  0.9624
   18SAPC   H7X 2373   3.987   5.915   9.066  0.1157 -0.0680  0.4582
   18SAPC   H7Y 2374   4.109   6.025   9.105  0.3053 -1.7442  1.4066
   18SAPC   C38 2375   3.995   6.074   8.928  0.2974 -0.5012 -0.0102
   18SAPC   H8X 2376   4.050   6.170   8.920 -1.7366  0.8379  0.9942
   18SAPC   H8Y 2377   3.887   6.086   8.905  0.6208  0.2630 -1.2127
   18SAPC   C39 2378   4.053   5.976   8.828  0.2032  0.0011  0.1888
   18SAPC   H9X 2379   3.989   5.886   8.837 -3.7363  2.6161  0.8998
   18SAPC   H9Y 2380   4.160   5.955   8.848  0.7425  1.1234 -1.3206
   18SAPC  C310 2381   4.054   6.020   8.682 -0.2517 -0.4204 -0.0703
   18SAPC  H10X 2382   3.947   6.040   8.664 -1.2692 -3.2890  2.0616
   18SAPC  H10Y 2383   4.086   5.942   8.609 -1.4502 -0.5746 -0.4486
   18SAPC  C311 2384   4.145   6.143   8.666  0.0721 -0.2698 -0.0798
   18SAPC  H11X 2385   4.235   6.143   8.731 -0.2941  1.3232  0.4631
   18SAPC  H11Y 2386   4.082   6.231   8.692  1.4611  0.7326  0.0281
   18SAPC  C312 2387   4.205   6.163   8.520  0.0535 -0.0135  0.4496
   18SAPC  H12X 2388   4.127   6.128   8.449 -1.0291 -1.6297  2.3312
   18SAPC  H12Y 2389   4.293   6.095   8.521  0.0134 -0.1501 -1.2668
   18SAPC  C313 2390   4.245   6.303   8.493  0.2732 -1.0763  0.1646
   18SAPC  H13X 2391   4.296   6.344   8.582  0.3105  1.3921 -0.8966
   18SAPC  H13Y 2392   4.154   6.366   8.482  2.0771  1.6156 -0.1824
   18SAPC  C314 2393   4.328   6.326   8.362  0.4792  0.4459  0.0834
   18SAPC  H14X 2394   4.372   6.428   8.368  0.9238  0.1780  1.8581
   18SAPC  H14Y 2395   4.251   6.335   8.283  0.1859  0.4560  0.3686
   18SAPC  C315 2396   4.427   6.217   8.326 -0.4304 -0.0042 -0.1656
   18SAPC  H15X 2397   4.376   6.123   8.296 -0.0227 -0.7372  1.2883
   18SAPC  H15Y 2398   4.487   6.195   8.417 -1.3694 -1.6649  0.0902
   18SAPC  C316 2399   4.524   6.263   8.212 -0.0033 -0.0970 -0.4012
   18SAPC  H16X 2400   4.584   6.171   8.201  0.2610 -0.6940  3.9700
   18SAPC  H16Y 2401   4.581   6.340   8.269 -1.1345 -1.8451  3.4645
   18SAPC  C317 2402   4.463   6.323   8.087 -0.7664 -0.6109 -0.8118
   18SAPC  H17X 2403   4.442   6.431   8.098  2.2311  0.0527 -0.8797
   18SAPC  H17Y 2404   4.371   6.270   8.053 -2.0624  2.0722 -1.7522
   18SAPC  C318 2405   4.555   6.338   7.963 -0.3145  0.3711  0.8513
   18SAPC  H18X 2406   4.575   6.246   7.904  2.5284  0.9495  0.8061
   18SAPC  H18Y 2407   4.655   6.371   7.995 -0.8958  3.1105  0.1095
   18SAPC  H18Z 2408   4.513   6.415   7.894  1.8278  0.4612 -0.4234
   19SAPC     N 2409   2.220   6.792  10.252  0.1826  0.2956 -0.1961
   19SAPC   C12 2410   2.221   6.897  10.140 -0.8251  0.7372  0.4013
   19SAPC  H12A 2411   2.150   6.876  10.062 -1.2309  1.6344  0.5185
   19SAPC  H12B 2412   2.317   6.875  10.096 -1.4446 -1.5168  0.0617
   19SAPC   C13 2413   2.248   6.657  10.199  0.3934  0.0999 -0.3017
   19SAPC  H13A 2414   2.177   6.625  10.124  0.2445 -0.6006  0.1255
   19SAPC  H13B 2415   2.345   6.657  10.152  0.3952  0.2824 -0.2944
   19SAPC  H13C 2416   2.248   6.572  10.266  0.8957 -1.7872 -2.5597
   19SAPC   C14 2417   2.320   6.816  10.362 -0.1543 -0.3945  0.0026
   19SAPC  H14A 2418   2.423   6.801  10.333 -0.4089  0.8704 -1.7287
   19SAPC  H14B 2419   2.327   6.921  10.388 -2.8050 -0.5891  1.9437
   19SAPC  H14C 2420   2.284   6.772  10.454 -1.1209  1.3833  0.5232
   19SAPC   C15 2421   2.085   6.797  10.313 -0.2298 -0.1180 -0.3201
   19SAPC  H15A 2422   2.063   6.719  10.385  3.0024  0.1407  1.0961
   19SAPC  H15B 2423   2.079   6.884  10.377 -0.4769 -0.1622 -0.2822
   19SAPC  H15C 2424   2.008   6.810  10.238  0.9577  1.4316 -1.3470
   19SAPC   C11 2425   2.205   7.048  10.167  0.7038 -0.3308  0.3143
   19SAPC  H11A 2426   2.198   7.092  10.065  0.6190 -0.4509  0.2681
   19SAPC  H11B 2427   2.303   7.084  10.206  0.8054  0.6012 -0.7523
   19SAPC     P 2428   2.100   7.185  10.366 -0.2398 -0.5734  0.1335
   19SAPC   O13 2429   1.996   7.149  10.462 -0.0382 -0.4773 -0.6419
   19SAPC   O14 2430   2.237   7.192  10.413 -0.3166  0.0016  1.1974
   19SAPC   O12 2431   2.090   7.084  10.247  0.2609  0.4718  0.5929
   19SAPC   O11 2432   2.056   7.328  10.310 -0.3857 -0.0961 -0.5796
   19SAPC    C1 2433   1.945   7.358  10.228 -0.7356  0.2852  0.1209
   19SAPC    HA 2434   1.911   7.274  10.163  0.2618  0.0603 -0.1285
   19SAPC    HB 2435   1.865   7.402  10.291  1.7902  4.2030  0.9652
   19SAPC    C2 2436   1.978   7.469  10.120 -0.5455  0.2735 -0.0539
   19SAPC    HS 2437   1.894   7.478  10.048 -1.7033 -0.5290  1.1555
   19SAPC   O21 2438   2.106   7.442  10.050 -0.2797  0.2398  0.6387
   19SAPC   C21 2439   2.096   7.350   9.953  0.7225  0.4155  0.1722
   19SAPC   O22 2440   1.993   7.280   9.934  0.3196 -0.3127  0.0835
   19SAPC   C22 2441   2.220   7.333   9.856  0.2521 -0.1618  0.3470
   19SAPC   H2R 2442   2.264   7.435   9.855 -3.6363  1.7139  1.1153
   19SAPC   H2S 2443   2.300   7.273   9.905  1.2538  1.1716  0.4132
   19SAPC    C3 2444   1.975   7.604  10.190 -0.0118 -0.4359  0.2055
   19SAPC    HX 2445   2.037   7.595  10.281  2.5077  0.3745 -1.3056
   19SAPC    HY 2446   1.873   7.625  10.227 -0.1533 -1.8685  0.7038
   19SAPC   O31 2447   2.016   7.715  10.107  0.2852  0.0683  0.1010
   19SAPC   C31 2448   2.098   7.801  10.163  0.2011  0.4633 -0.4095
   19SAPC   O32 2449   2.129   7.803  10.281 -0.6285  0.0543 -0.0241
   19SAPC   C32 2450   2.135   7.912  10.065 -0.1439  0.2187 -0.5963
   19SAPC   H2X 2451   2.185   7.989  10.127 -2.2759  0.5462  0.8285
   19SAPC   H2Y 2452   2.044   7.942  10.009  2.1758  1.4412 -4.0477
   19SAPC   C23 2453   2.168   7.275   9.724  0.0092 -0.0947 -0.1712
   19SAPC   H3R 2454   2.087   7.339   9.683 -0.8120 -0.9785  0.0095
   19SAPC   H3S 2455   2.138   7.169   9.742  1.5912 -0.8943 -1.8164
   19SAPC   C24 2456   2.285   7.265   9.617  0.0458 -0.5114 -0.8757
   19SAPC   H4R 2457   2.367   7.210   9.668  0.0829  0.3138 -0.0303
   19SAPC   H4S 2458   2.305   7.373   9.600 -2.9800  0.2349 -0.1425
   19SAPC   C25 2459   2.251   7.178   9.497 -0.6477 -0.7276 -0.1587
   19SAPC   H5R 2460   2.234   7.073   9.525 -0.5636 -0.5704  0.4866
   19SAPC   C26 2461   2.254   7.215   9.366 -0.3524  0.7377 -1.1330
   19SAPC   H6R 2462   2.245   7.134   9.292 -0.1848  0.4980 -0.8959
   19SAPC   C27 2463   2.302   7.339   9.293 -0.7048 -0.4072  1.0402
   19SAPC   H7R 2464   2.291   7.424   9.363  2.3434  1.0058 -0.0168
   19SAPC   H7S 2465   2.227   7.368   9.217 -0.4113 -0.3045  0.7855
   19SAPC   C28 2466   2.442   7.320   9.235  0.3149 -0.6799 -1.1647
   19SAPC   H8R 2467   2.515   7.272   9.301  0.4523 -1.5406 -1.9295
   19SAPC   C29 2468   2.483   7.349   9.107 -0.5554 -0.8575 -1.0770
   19SAPC   H9R 2469   2.585   7.318   9.077  0.8609  3.6161 -1.6026
   19SAPC  C210 2470   2.394   7.394   8.996  0.4629 -0.0140  0.5363
   19SAPC  H10R 2471   2.374   7.503   9.011 -1.8977 -0.4415  0.9894
   19SAPC  H10S 2472   2.286   7.370   9.010 -0.0504  1.1395 -1.1512
   19SAPC  C211 2473   2.449   7.372   8.861  0.0204 -0.1331  0.3705
   19SAPC  H11R 2474   2.533   7.437   8.833  1.1780 -2.1536 -1.1306
   19SAPC  C212 2475   2.401   7.289   8.764  0.0739  0.3469  0.1157
   19SAPC  H12R 2476   2.453   7.274   8.668 -1.6165  0.4578 -0.8578
   19SAPC  C213 2477   2.278   7.203   8.765  0.4486 -0.2104  0.1915
   19SAPC  H13R 2478   2.217   7.195   8.672 -0.3101 -0.5456  0.7009
   19SAPC  H13S 2479   2.204   7.242   8.838 -0.2513  1.9372 -1.5502
   19SAPC  C214 2480   2.312   7.063   8.795 -0.2140  0.6295 -0.3113
   19SAPC  H14R 2481   2.289   7.040   8.900 -5.4127 -2.2108 -1.6882
   19SAPC  C215 2482   2.340   6.966   8.711 -0.3276 -0.7003  0.0249
   19SAPC  H15R 2483   2.366   6.869   8.755 -1.1930 -0.6783  0.6100
   19SAPC  C216 2484   2.349   6.980   8.563  0.6578  0.2541 -0.3684
   19SAPC  H16R 2485   2.456   7.000   8.538  0.5515  1.5006  0.0972
   19SAPC  H16S 2486   2.294   7.066   8.520 -0.1716 -0.5168 -0.8894
   19SAPC  C217 2487   2.288   6.867   8.474 -0.3180  0.1951  0.0987
   19SAPC  H17R 2488   2.182   6.861   8.506  0.3698 -2.5388  2.3150
   19SAPC  H17S 2489   2.330   6.764   8.487 -2.6318 -0.7628  0.4847
   19SAPC  C218 2490   2.290   6.905   8.323 -0.7398 -0.0489  0.1777
   19SAPC  H18R 2491   2.395   6.927   8.291 -0.5153  0.8808  1.4781
   19SAPC  H18S 2492   2.224   6.993   8.310  1.0032  1.4043  0.7598
   19SAPC  C219 2493   2.235   6.799   8.225  0.3912 -0.2196  0.3003
   19SAPC  H19R 2494   2.151   6.744   8.273 -1.1576  3.3060  1.9759
   19SAPC  H19S 2495   2.313   6.721   8.207 -0.2462 -1.1630  1.4622
   19SAPC  C220 2496   2.182   6.844   8.089 -0.1939  0.3380  0.0652
   19SAPC  H20R 2497   2.086   6.900   8.087  0.1764  0.9684 -1.3019
   19SAPC  H20S 2498   2.147   6.752   8.039 -1.0050 -1.4850  3.6311
   19SAPC  H20T 2499   2.259   6.909   8.043  0.8200 -0.0174  1.2011
   19SAPC   C33 2500   2.236   7.858   9.956 -0.8862 -0.8378 -0.4287
   19SAPC   H3X 2501   2.308   7.786   9.999 -2.9716 -2.0259  1.2923
   19SAPC   H3Y 2502   2.298   7.946   9.927 -1.6019 -0.3333 -0.4700
   19SAPC   C34 2503   2.173   7.789   9.835  0.1536  0.0511 -0.2545
   19SAPC   H4X 2504   2.118   7.869   9.781  0.7979 -0.3510 -1.5543
   19SAPC   H4Y 2505   2.103   7.710   9.872  0.8495 -0.3616  0.2042
   19SAPC   C35 2506   2.270   7.721   9.737 -0.2737  0.5575 -1.0395
   19SAPC   H5X 2507   2.206   7.651   9.679 -1.1692  0.4729  0.0097
   19SAPC   H5Y 2508   2.336   7.656   9.798 -1.8078  0.3402  0.4769
   19SAPC   C36 2509   2.352   7.811   9.639 -0.4621  0.2824 -0.1597
   19SAPC   H6X 2510   2.337   7.916   9.673  0.0022  0.6062 -0.9335
   19SAPC   H6Y 2511   2.312   7.811   9.535  0.5955 -0.0264 -0.5803
   19SAPC   C37 2512   2.500   7.768   9.637  0.0181 -0.3395 -0.0955
   19SAPC   H7X 2513   2.512   7.662   9.606 -1.5384 -0.3058 -0.9089
   19SAPC   H7Y 2514   2.536   7.770   9.742  0.9710  0.5853 -0.4262
   19SAPC   C38 2515   2.598   7.862   9.561 -0.4835 -0.1549 -0.2714
   19SAPC   H8X 2516   2.678   7.893   9.632  0.0905 -2.1237 -0.0106
   19SAPC   H8Y 2517   2.547   7.957   9.532 -2.4920 -0.0584  3.1049
   19SAPC   C39 2518   2.669   7.789   9.453  0.3870  0.2670  0.3498
   19SAPC   H9X 2519   2.740   7.707   9.477 -1.1034 -0.6719  1.7646
   19SAPC   H9Y 2520   2.738   7.860   9.403  0.7295 -1.0244 -1.1005
   19SAPC  C310 2521   2.569   7.724   9.345 -0.3881 -0.2599 -0.0524
   19SAPC  H10X 2522   2.486   7.795   9.326 -0.9105 -0.8171  0.1467
   19SAPC  H10Y 2523   2.514   7.637   9.386 -0.8649  0.4314  0.8184
   19SAPC  C311 2524   2.642   7.673   9.214  0.6303  0.3156 -0.0150
   19SAPC  H11X 2525   2.582   7.589   9.172 -1.0481  2.1730 -1.4872
   19SAPC  H11Y 2526   2.744   7.629   9.224  0.0114 -1.5191 -1.3116
   19SAPC  C312 2527   2.642   7.789   9.111  0.4288  0.7311  0.9969
   19SAPC  H12X 2528   2.713   7.870   9.137  2.4059 -0.7470  0.4726
   19SAPC  H12Y 2529   2.536   7.823   9.115  0.2271  0.1414  0.7710
   19SAPC  C313 2530   2.662   7.729   8.968  0.2597  0.2743 -0.3593
   19SAPC  H13X 2531   2.568   7.669   8.960 -0.1558  0.6648  1.2502
   19SAPC  H13Y 2532   2.744   7.655   8.965 -0.6863 -0.7978 -2.8775
   19SAPC  C314 2533   2.669   7.832   8.852  0.1873 -0.3064 -0.4468
   19SAPC  H14X 2534   2.774   7.862   8.834 -0.3742  1.0128 -1.7652
   19SAPC  H14Y 2535   2.612   7.927   8.866  1.7016  0.8363 -1.6221
   19SAPC  C315 2536   2.620   7.773   8.721  0.3659 -0.1755 -0.5540
   19SAPC  H15X 2537   2.509   7.771   8.726  0.3943  0.5799  0.8661
   19SAPC  H15Y 2538   2.657   7.669   8.708 -1.2848 -0.9239  0.4263
   19SAPC  C316 2539   2.667   7.854   8.598 -0.7732  0.2609  0.7720
   19SAPC  H16X 2540   2.697   7.780   8.521  3.5491  1.7894  0.6883
   19SAPC  H16Y 2541   2.753   7.918   8.628 -0.3552  0.0414  0.0433
   19SAPC  C317 2542   2.554   7.946   8.537 -0.1624 -0.5346  0.7130
   19SAPC  H17X 2543   2.531   8.030   8.606 -1.0379 -0.4815  0.3597
   19SAPC  H17Y 2544   2.461   7.886   8.532 -1.1797  1.0821 -0.9234
   19SAPC  C318 2545   2.589   8.006   8.402  0.3860  0.5846 -0.3194
   19SAPC  H18X 2546   2.509   8.077   8.371 -0.8708 -0.0524  1.3427
   19SAPC  H18Y 2547   2.606   7.922   8.331 -0.4213  1.3071 -1.4082
   19SAPC  H18Z 2548   2.684   8.063   8.412  2.0086 -1.5191 -2.5280
   20SAPC     N 2549   2.443   4.666  10.221 -0.2741  0.2503 -0.7923
   20SAPC   C12 2550   2.530   4.659  10.100 -0.0941 -0.1539  0.0213
   20SAPC  H12A 2551   2.584   4.569  10.124  1.6831  0.9670  0.4627
   20SAPC  H12B 2552   2.601   4.740  10.101 -0.0581 -0.1767  1.4150
   20SAPC   C13 2553   2.526   4.647  10.340 -0.1943  0.2933 -0.4829
   20SAPC  H13A 2554   2.606   4.718  10.354  0.2854 -0.1503 -0.9262
   20SAPC  H13B 2555   2.472   4.660  10.432  0.1311 -1.2444 -0.0374
   20SAPC  H13C 2556   2.573   4.550  10.344  0.7911  0.7849  0.3951
   20SAPC   C14 2557   2.364   4.792  10.231 -0.3272 -0.0418  0.0756
   20SAPC  H14A 2558   2.321   4.817  10.135 -1.9566  3.4770  1.5625
   20SAPC  H14B 2559   2.289   4.786  10.309  2.9755 -1.1224  3.4822
   20SAPC  H14C 2560   2.433   4.872  10.252  0.9055 -0.6853 -1.3127
   20SAPC   C15 2561   2.334   4.558  10.213  0.7994 -0.2252 -0.2362
   20SAPC  H15A 2562   2.260   4.589  10.142 -1.3352 -1.6289  1.2393
   20SAPC  H15B 2563   2.376   4.469  10.169  0.3477 -1.2303  1.2630
   20SAPC  H15C 2564   2.301   4.525  10.311  3.0225 -3.1931 -0.3617
   20SAPC   C11 2565   2.480   4.642   9.958  0.8698  1.3015 -0.4046
   20SAPC  H11A 2566   2.414   4.553   9.949  0.8802  1.2910 -0.3706
   20SAPC  H11B 2567   2.565   4.632   9.887  1.9650 -0.7786  1.0968
   20SAPC     P 2568   2.265   4.768   9.865 -0.1478  0.0148  0.6244
   20SAPC   O13 2569   2.174   4.709   9.965 -0.0936 -0.1449 -1.6381
   20SAPC   O14 2570   2.233   4.903   9.820 -0.2595 -0.3764  0.4282
   20SAPC   O12 2571   2.410   4.766   9.924  0.0944 -0.1406  0.1308
   20SAPC   O11 2572   2.279   4.670   9.738  0.2599 -0.0733  0.0194
   20SAPC    C1 2573   2.254   4.721   9.606 -0.4262 -0.2773  0.1737
   20SAPC    HA 2574   2.215   4.648   9.532 -0.3453  0.5256 -0.6844
   20SAPC    HB 2575   2.175   4.799   9.609  0.9268  1.1869 -0.7797
   20SAPC    C2 2576   2.376   4.796   9.547 -0.1640 -0.1880  0.5581
   20SAPC    HS 2577   2.412   4.855   9.634 -0.9171 -0.7707  1.2860
   20SAPC   O21 2578   2.353   4.880   9.434 -0.0072 -0.3805 -0.3484
   20SAPC   C21 2579   2.450   4.964   9.404 -0.1471  0.1528 -0.4948
   20SAPC   O22 2580   2.541   5.001   9.477 -0.3592 -0.3501 -0.2548
   20SAPC   C22 2581   2.436   5.009   9.261  0.1409  0.0464 -0.1634
   20SAPC   H2R 2582   2.404   4.923   9.198 -1.8495  1.0187 -0.5762
   20SAPC   H2S 2583   2.355   5.086   9.261  0.2326  0.1438 -0.1324
   20SAPC    C3 2584   2.501   4.707   9.510  0.4240 -0.2569 -0.5083
   20SAPC    HX 2585   2.508   4.630   9.590  1.0884 -0.6827 -0.9739
   20SAPC    HY 2586   2.589   4.774   9.520  0.7540 -0.8480  0.8280
   20SAPC   O31 2587   2.502   4.665   9.373 -0.5916 -0.1574  0.1846
   20SAPC   C31 2588   2.438   4.551   9.347 -0.0775  0.3185  0.2308
   20SAPC   O32 2589   2.379   4.489   9.435 -0.2853  0.4425 -0.2118
   20SAPC   C32 2590   2.443   4.516   9.196  0.2044 -0.5326 -0.3650
   20SAPC   H2X 2591   2.402   4.413   9.185  0.0428 -0.5132  0.0500
   20SAPC   H2Y 2592   2.551   4.522   9.172 -0.0796  0.0866 -1.5599
   20SAPC   C23 2593   2.564   5.073   9.192  0.3218  0.8541  0.3084
   20SAPC   H3R 2594   2.599   5.161   9.251 -0.7354  1.4732  0.0532
   20SAPC   H3S 2595   2.512   5.113   9.102 -0.8923 -0.3145  0.4655
   20SAPC   C24 2596   2.677   4.971   9.164  0.2415 -0.7580 -0.6271
   20SAPC   H4R 2597   2.711   4.932   9.262 -2.0609 -0.4479  0.3487
   20SAPC   H4S 2598   2.756   5.039   9.126  0.1650  0.1001  0.7090
   20SAPC   C25 2599   2.641   4.853   9.083  0.1231 -0.4210 -0.5804
   20SAPC   H5R 2600   2.635   4.757   9.135  1.3198 -1.1910 -1.7852
   20SAPC   C26 2601   2.631   4.863   8.947  0.3159  0.2003 -0.2100
   20SAPC   H6R 2602   2.600   4.771   8.896  0.0422  0.0953  0.1479
   20SAPC   C27 2603   2.633   4.995   8.867 -1.0682  0.7339  0.3140
   20SAPC   H7R 2604   2.664   5.083   8.927  0.1857 -0.6158  1.7428
   20SAPC   H7S 2605   2.525   5.006   8.840 -1.4395  0.7026  1.6798
   20SAPC   C28 2606   2.727   4.974   8.752  0.0831  0.3276  0.3698
   20SAPC   H8R 2607   2.835   4.980   8.769  0.1116 -0.2692  0.4151
   20SAPC   C29 2608   2.686   4.964   8.626  0.4753 -0.3369  0.5415
   20SAPC   H9R 2609   2.763   4.945   8.550  0.9117 -0.2165  0.9464
   20SAPC  C210 2610   2.546   4.960   8.574  0.1707 -0.5375 -0.1581
   20SAPC  H10R 2611   2.514   5.066   8.571  3.2078  0.4767 -1.7460
   20SAPC  H10S 2612   2.486   4.905   8.650 -0.1320  2.6075  2.0759
   20SAPC  C211 2613   2.525   4.903   8.436  0.0568  0.1364  0.4836
   20SAPC  H11R 2614   2.526   4.793   8.430  0.3499  0.2084 -1.6647
   20SAPC  C212 2615   2.472   4.970   8.325  0.3186  0.1083 -0.0366
   20SAPC  H12R 2616   2.453   4.904   8.239  1.0908 -1.7579  1.1520
   20SAPC  C213 2617   2.442   5.116   8.303 -0.1277 -0.3538 -0.2792
   20SAPC  H13R 2618   2.533   5.178   8.316 -1.9871  1.9751  3.2381
   20SAPC  H13S 2619   2.377   5.151   8.386 -0.2578 -0.3082 -0.3995
   20SAPC  C214 2620   2.380   5.144   8.167  0.2806 -0.8566 -0.0754
   20SAPC  H14R 2621   2.271   5.155   8.168  0.3766  0.2961  0.3026
   20SAPC  C215 2622   2.448   5.158   8.046 -0.2802  0.1484 -0.2380
   20SAPC  H15R 2623   2.405   5.215   7.962 -0.0384  0.6266 -0.0434
   20SAPC  C216 2624   2.598   5.154   8.038  0.2789  0.4553 -0.2629
   20SAPC  H16R 2625   2.621   5.068   8.105 -1.0232 -0.0482 -0.4348
   20SAPC  H16S 2626   2.645   5.245   8.080  0.6238 -0.1831  0.7780
   20SAPC  C217 2627   2.658   5.131   7.896 -0.1053  0.1291  0.5877
   20SAPC  H17R 2628   2.593   5.174   7.817  1.4963 -1.3624 -1.6758
   20SAPC  H17S 2629   2.655   5.022   7.873 -0.7840  0.2206  0.2042
   20SAPC  C218 2630   2.795   5.178   7.885  0.1533  0.4833 -0.4377
   20SAPC  H18R 2631   2.848   5.127   7.968 -0.0833 -1.1417 -1.2618
   20SAPC  H18S 2632   2.805   5.289   7.893 -3.6855  1.0548 -1.6837
   20SAPC  C219 2633   2.871   5.154   7.755 -0.1416 -0.8073  0.2266
   20SAPC  H19R 2634   2.799   5.148   7.670  0.4420  0.0355 -0.3461
   20SAPC  H19S 2635   2.906   5.049   7.751  2.0256 -0.1038 -2.4152
   20SAPC  C220 2636   2.978   5.261   7.718  0.4318  0.1531 -0.0521
   20SAPC  H20R 2637   2.920   5.356   7.719  0.7827  0.5065 -3.2207
   20SAPC  H20S 2638   3.029   5.237   7.623 -1.1744 -0.9116 -0.6785
   20SAPC  H20T 2639   3.057   5.261   7.796 -0.3435 -2.5961  0.8261
   20SAPC   C33 2640   2.359   4.619   9.116  1.0868 -0.3187 -0.3918
   20SAPC   H3X 2641   2.409   4.718   9.128  1.8538 -0.9538  2.1533
   20SAPC   H3Y 2642   2.256   4.639   9.151  1.2147  2.4095 -1.3380
   20SAPC   C34 2643   2.334   4.587   8.971  0.3707 -0.2889  0.9389
   20SAPC   H4X 2644   2.325   4.680   8.911 -0.8723 -0.4364  0.8724
   20SAPC   H4Y 2645   2.239   4.529   8.964  0.0735  0.2023  0.8122
   20SAPC   C35 2646   2.444   4.509   8.909  0.1669  0.5008  0.2419
   20SAPC   H5X 2647   2.444   4.405   8.946 -0.9266  1.3925  2.9466
   20SAPC   H5Y 2648   2.539   4.556   8.942  0.0869 -0.1917  1.4960
   20SAPC   C36 2649   2.459   4.524   8.757  0.5454  0.3267 -0.0847
   20SAPC   H6X 2650   2.430   4.626   8.725 -3.1087 -0.5490  0.0414
   20SAPC   H6Y 2651   2.384   4.459   8.708  1.5744 -0.6336 -0.4381
   20SAPC   C37 2652   2.602   4.484   8.711 -0.7083  0.4668 -0.1857
   20SAPC   H7X 2653   2.623   4.388   8.762 -5.0704 -0.1378  0.9506
   20SAPC   H7Y 2654   2.678   4.564   8.726 -0.2644  0.2486 -1.1843
   20SAPC   C38 2655   2.600   4.462   8.554 -0.4180  0.2700 -0.0068
   20SAPC   H8X 2656   2.547   4.541   8.497  0.3650  1.1900  0.5100
   20SAPC   H8Y 2657   2.555   4.362   8.533 -0.4388  0.2125  0.3096
   20SAPC   C39 2658   2.743   4.465   8.505  1.0224  0.1090  0.5300
   20SAPC   H9X 2659   2.789   4.390   8.572 -0.9032 -2.6373 -1.0596
   20SAPC   H9Y 2660   2.782   4.567   8.525  1.4756  0.8717 -3.3958
   20SAPC  C310 2661   2.761   4.416   8.359 -0.2483  0.2612 -0.3780
   20SAPC  H10X 2662   2.719   4.492   8.290 -0.0606  0.3463 -0.3992
   20SAPC  H10Y 2663   2.687   4.332   8.360 -1.6187  1.4292  0.7179
   20SAPC  C311 2664   2.900   4.364   8.328 -0.4404 -0.0732 -0.5127
   20SAPC  H11X 2665   2.937   4.290   8.402 -0.5692  0.0033 -0.3708
   20SAPC  H11Y 2666   2.972   4.448   8.341  1.5902 -1.8120  0.0492
   20SAPC  C312 2667   2.919   4.299   8.194  0.2266 -0.3267 -0.5148
   20SAPC  H12X 2668   2.884   4.360   8.108  1.5460  0.7998 -0.2994
   20SAPC  H12Y 2669   2.868   4.201   8.187 -0.0289 -0.2717  0.3982
   20SAPC  C313 2670   3.068   4.301   8.159  0.3806  0.3304  0.9002
   20SAPC  H13X 2671   3.129   4.265   8.245  1.0334 -0.7190  0.0369
   20SAPC  H13Y 2672   3.105   4.405   8.152 -0.5856  0.6820  0.8913
   20SAPC  C314 2673   3.106   4.223   8.030 -0.3876 -0.4352 -0.3522
   20SAPC  H14X 2674   3.060   4.275   7.943  0.3946 -0.4035 -0.7552
   20SAPC  H14Y 2675   3.061   4.122   8.034  1.1014 -1.1057  0.0074
   20SAPC  C315 2676   3.257   4.215   8.007  0.4101  0.7379  0.9173
   20SAPC  H15X 2677   3.289   4.136   7.935 -1.8370 -1.0426  1.7325
   20SAPC  H15Y 2678   3.300   4.175   8.101 -0.4874 -1.0931  0.6054
   20SAPC  C316 2679   3.316   4.346   7.964  0.4581  0.1480 -0.4063
   20SAPC  H16X 2680   3.298   4.422   8.043  1.5943  0.3517 -0.3210
   20SAPC  H16Y 2681   3.282   4.392   7.869 -0.2061 -0.6790 -0.5896
   20SAPC  C317 2682   3.467   4.348   7.957 -0.3844  0.4836 -0.2671
   20SAPC  H17X 2683   3.505   4.255   7.908  0.4221  1.4611 -1.5749
   20SAPC  H17Y 2684   3.506   4.341   8.060  0.4939 -1.2851 -0.6677
   20SAPC  C318 2685   3.521   4.462   7.868  0.3531 -0.3979  0.4656
   20SAPC  H18X 2686   3.632   4.459   7.860  0.4514  1.4950  0.4958
   20SAPC  H18Y 2687   3.510   4.557   7.926  1.6930  0.4883 -0.6676
   20SAPC  H18Z 2688   3.470   4.466   7.769  0.5093  0.9803  0.4237
   21SAPC     N 2689   1.905   3.026  10.390  0.5880  0.6964 -0.6452
   21SAPC   C12 2690   2.027   2.981  10.309  0.2420  0.5969  0.6483
   21SAPC  H12A 2691   2.009   3.001  10.205  2.1052  1.1646  0.3978
   21SAPC  H12B 2692   2.027   2.873  10.311 -1.2847  0.5735  0.4919
   21SAPC   C13 2693   1.911   2.982  10.530  0.3545 -0.0389 -0.2160
   21SAPC  H13A 2694   1.841   3.042  10.587 -0.2529 -0.8660 -0.0705
   21SAPC  H13B 2695   1.900   2.875  10.541  1.1936  0.0261  1.4807
   21SAPC  H13C 2696   2.011   3.002  10.565 -0.0647  0.0769  0.9324
   21SAPC   C14 2697   1.909   3.172  10.388  0.2059 -0.0813 -0.3210
   21SAPC  H14A 2698   1.907   3.219  10.290 -1.7363  0.4790 -0.0589
   21SAPC  H14B 2699   1.827   3.217  10.442  1.2113  1.9346 -0.3606
   21SAPC  H14C 2700   2.002   3.192  10.440  0.3820  0.0564 -0.6818
   21SAPC   C15 2701   1.779   2.983  10.332 -0.7835  0.3518  0.3695
   21SAPC  H15A 2702   1.695   3.023  10.387 -1.8901 -1.7591  0.2996
   21SAPC  H15B 2703   1.768   3.010  10.228 -0.4789 -1.2544 -0.1034
   21SAPC  H15C 2704   1.765   2.877  10.326  0.6425  0.2331 -1.5592
   21SAPC   C11 2705   2.173   3.026  10.339  1.0920 -0.3887  0.0965
   21SAPC  H11A 2706   2.168   3.135  10.315 -2.0009 -0.2134  1.1130
   21SAPC  H11B 2707   2.230   2.977  10.258 -1.3685 -1.9078 -0.8296
   21SAPC     P 2708   2.276   2.874  10.522 -0.4780 -0.1737  0.0944
   21SAPC   O13 2709   2.356   2.911  10.640  0.1257  0.4811 -0.2161
   21SAPC   O14 2710   2.178   2.761  10.541 -1.1168  0.0953  0.0669
   21SAPC   O12 2711   2.211   3.011  10.471  0.0631  0.1072  0.4482
   21SAPC   O11 2712   2.373   2.836  10.408  0.5056  0.5196  0.1887
   21SAPC    C1 2713   2.465   2.723  10.431 -0.0827  0.5282  0.3702
   21SAPC    HA 2714   2.518   2.727  10.529 -1.6315  1.0021  1.2142
   21SAPC    HB 2715   2.403   2.631  10.435 -3.0333  2.3555 -0.6720
   21SAPC    C2 2716   2.587   2.720  10.337  0.5313  0.2160  0.1523
   21SAPC    HS 2717   2.653   2.803  10.370  1.3613 -0.6738  0.7877
   21SAPC   O21 2718   2.535   2.726  10.198 -0.1772  0.1951 -0.0932
   21SAPC   C21 2719   2.615   2.778  10.103  0.9458  1.0305 -0.2282
   21SAPC   O22 2720   2.728   2.822  10.128  0.2394  0.5532 -0.3224
   21SAPC   C22 2721   2.561   2.732   9.965  0.0171 -0.2717 -0.1721
   21SAPC   H2R 2722   2.526   2.626   9.969 -2.2064  0.3841 -0.7962
   21SAPC   H2S 2723   2.480   2.805   9.946 -0.4347 -0.5311  0.7002
   21SAPC    C3 2724   2.667   2.583  10.360 -0.2023  0.0702 -0.8576
   21SAPC    HX 2725   2.694   2.587  10.467 -1.1022  0.5675 -0.6373
   21SAPC    HY 2726   2.756   2.580  10.294  0.2459  1.9272 -0.4088
   21SAPC   O31 2727   2.574   2.482  10.321  0.5050  0.3155 -0.4120
   21SAPC   C31 2728   2.593   2.358  10.365 -0.3069  0.6952 -0.2561
   21SAPC   O32 2729   2.691   2.325  10.429  0.0802 -0.0554 -0.2664
   21SAPC   C32 2730   2.463   2.277  10.345  0.3087  0.1715  0.1760
   21SAPC   H2X 2731   2.396   2.329  10.273 -1.0254  0.4519  1.5557
   21SAPC   H2Y 2732   2.413   2.279  10.444  1.0539  1.5525  0.5492
   21SAPC   C23 2733   2.676   2.760   9.864 -0.6674  0.8757  0.4638
   21SAPC   H3R 2734   2.750   2.683   9.894 -2.1718 -1.0222 -0.4435
   21SAPC   H3S 2735   2.715   2.863   9.863  0.9992  0.3052 -2.2711
   21SAPC   C24 2736   2.634   2.748   9.717 -0.0454  0.0744 -0.3677
   21SAPC   H4R 2737   2.594   2.648   9.690 -2.0264  1.0401 -1.2468
   21SAPC   H4S 2738   2.720   2.757   9.648  0.3752  1.2453  0.2828
   21SAPC   C25 2739   2.527   2.849   9.680 -0.1884  0.2613  0.1187
   21SAPC   H5R 2740   2.561   2.953   9.671 -0.6601  0.4184  0.1250
   21SAPC   C26 2741   2.396   2.836   9.678 -0.0311  0.1081 -0.0074
   21SAPC   H6R 2742   2.337   2.929   9.670 -0.1925  0.0182  0.1243
   21SAPC   C27 2743   2.317   2.712   9.701 -0.2738  0.6310  0.0809
   21SAPC   H7R 2744   2.381   2.636   9.749 -0.1895  2.4623  3.1791
   21SAPC   H7S 2745   2.293   2.674   9.599 -0.5295  0.0626  0.3559
   21SAPC   C28 2746   2.194   2.725   9.782 -0.6245  0.3611  0.3510
   21SAPC   H8R 2747   2.205   2.790   9.870  1.5426 -0.7352  0.9793
   21SAPC   C29 2748   2.085   2.649   9.762  0.5747  0.0741  0.0559
   21SAPC   H9R 2749   2.006   2.673   9.835 -1.9661  0.7825 -2.7209
   21SAPC  C210 2750   2.053   2.538   9.665  0.1607  0.2193  0.1020
   21SAPC  H10R 2751   2.116   2.538   9.573 -0.2925 -0.0295 -0.2128
   21SAPC  H10S 2752   1.949   2.557   9.632  0.3331  2.7042  0.8469
   21SAPC  C211 2753   2.084   2.407   9.735  0.2618 -0.5119  0.1029
   21SAPC  H11R 2754   1.999   2.379   9.800  0.3820  0.9715  0.9394
   21SAPC  C212 2755   2.199   2.334   9.723 -0.0579 -0.2843 -0.0816
   21SAPC  H12R 2756   2.194   2.238   9.777 -2.3467 -0.7592 -1.0541
   21SAPC  C213 2757   2.323   2.360   9.643  0.2227  0.0665  0.4298
   21SAPC  H13R 2758   2.409   2.374   9.712  1.0075  1.8998 -0.8625
   21SAPC  H13S 2759   2.306   2.456   9.590 -1.0677  0.7423  1.9820
   21SAPC  C214 2760   2.354   2.247   9.547  0.3659  1.0225 -0.3445
   21SAPC  H14R 2761   2.267   2.192   9.508 -0.0057 -0.7893  2.7264
   21SAPC  C215 2762   2.478   2.211   9.506  0.2079 -0.3797  0.4278
   21SAPC  H15R 2763   2.476   2.126   9.436 -1.5434  0.6741 -0.9089
   21SAPC  C216 2764   2.617   2.265   9.548  0.3651  0.3217  0.7009
   21SAPC  H16R 2765   2.602   2.375   9.553  0.3646  0.3460  0.2325
   21SAPC  H16S 2766   2.703   2.241   9.482  1.3459  3.5133  0.6525
   21SAPC  C217 2767   2.661   2.217   9.686  0.1669  0.1244 -0.4471
   21SAPC  H17R 2768   2.660   2.107   9.693  1.0267  0.1153 -0.3168
   21SAPC  H17S 2769   2.587   2.250   9.762 -0.7366  1.0868 -1.6939
   21SAPC  C218 2770   2.805   2.255   9.730  0.1148  0.0486 -0.4676
   21SAPC  H18R 2771   2.841   2.352   9.690 -0.1941  0.3657  0.0178
   21SAPC  H18S 2772   2.869   2.174   9.689 -0.5887 -0.1489 -1.2047
   21SAPC  C219 2773   2.820   2.246   9.886  1.0127  0.0286  0.2760
   21SAPC  H19R 2774   2.923   2.252   9.926  0.4784 -0.0057  1.7478
   21SAPC  H19S 2775   2.781   2.145   9.912 -2.0974  0.8109 -0.9282
   21SAPC  C220 2776   2.746   2.352   9.968  0.3109  0.0805 -0.3171
   21SAPC  H20R 2777   2.774   2.341  10.075 -1.2500 -0.1290  0.0928
   21SAPC  H20S 2778   2.636   2.332   9.972  0.8006 -2.8891  0.5357
   21SAPC  H20T 2779   2.772   2.455   9.935 -0.8183  1.0702  1.6604
   21SAPC   C33 2780   2.488   2.131  10.311 -0.5709 -0.0034  0.6774
   21SAPC   H3X 2781   2.392   2.079  10.332 -0.8984  0.1038 -0.5115
   21SAPC   H3Y 2782   2.567   2.084  10.373  1.7161 -0.2780 -2.2225
   21SAPC   C34 2783   2.509   2.112  10.161 -0.3649  0.7340 -0.3234
   21SAPC   H4X 2784   2.599   2.172  10.137  0.4718  0.8130  2.6317
   21SAPC   H4Y 2785   2.425   2.161  10.107 -0.3359  0.0664 -0.9951
   21SAPC   C35 2786   2.518   1.961  10.124  0.2957 -1.0073 -0.9777
   21SAPC   H5X 2787   2.419   1.916  10.147  0.1155  0.5848  1.9036
   21SAPC   H5Y 2788   2.587   1.898  10.183 -1.9789 -3.0315 -0.2974
   21SAPC   C36 2789   2.566   1.949   9.982  0.2380 -0.1905  0.9089
   21SAPC   H6X 2790   2.669   1.989   9.972  1.0835 -2.5570 -0.8416
   21SAPC   H6Y 2791   2.517   2.017   9.909  3.6010  1.1735 -0.2843
   21SAPC   C37 2792   2.567   1.804   9.928  0.6507 -0.7468 -0.9258
   21SAPC   H7X 2793   2.471   1.757   9.960 -0.7441  0.6246 -2.8249
   21SAPC   H7Y 2794   2.648   1.744   9.974 -0.6164 -0.5408  1.7541
   21SAPC   C38 2795   2.566   1.812   9.771 -0.2052  0.7190 -0.2043
   21SAPC   H8X 2796   2.672   1.834   9.745  0.2879 -1.1960  0.0505
   21SAPC   H8Y 2797   2.507   1.901   9.741  0.3044  0.6490 -1.4624
   21SAPC   C39 2798   2.517   1.678   9.715  0.0182 -0.8596  0.0591
   21SAPC   H9X 2799   2.410   1.659   9.741  0.3641 -3.5007 -0.2184
   21SAPC   H9Y 2800   2.573   1.598   9.768  1.0987 -0.9304 -1.1319
   21SAPC  C310 2801   2.535   1.664   9.566  0.6671 -0.8605  0.6902
   21SAPC  H10X 2802   2.503   1.560   9.544  0.0973 -0.6075  0.2969
   21SAPC  H10Y 2803   2.641   1.681   9.539 -0.3754 -0.3118 -3.8045
   21SAPC  C311 2804   2.452   1.755   9.476 -0.3719 -0.3747 -0.1974
   21SAPC  H11X 2805   2.436   1.853   9.528  0.8625 -0.9748  1.4125
   21SAPC  H11Y 2806   2.354   1.711   9.449 -0.8003  1.4722 -1.8276
   21SAPC  C312 2807   2.529   1.776   9.339  0.3876 -0.1106 -0.3426
   21SAPC  H12X 2808   2.551   1.672   9.305 -0.4054 -1.0372  1.8247
   21SAPC  H12Y 2809   2.629   1.818   9.361  1.0540 -2.6776  2.0780
   21SAPC  C313 2810   2.444   1.865   9.242  0.4269 -0.1341 -1.1051
   21SAPC  H13X 2811   2.402   1.951   9.299  1.1808  0.1666 -0.9892
   21SAPC  H13Y 2812   2.358   1.802   9.212 -1.0003 -0.1827  2.5808
   21SAPC  C314 2813   2.523   1.905   9.122 -0.7533 -0.9046 -0.1335
   21SAPC  H14X 2814   2.523   1.816   9.055 -1.3647 -0.6360 -0.4868
   21SAPC  H14Y 2815   2.629   1.929   9.146 -0.5183  0.1942 -2.1225
   21SAPC  C315 2816   2.470   2.028   9.049  0.1430 -0.7614 -0.3384
   21SAPC  H15X 2817   2.538   2.050   8.964  0.5047  0.6814  0.2873
   21SAPC  H15Y 2818   2.464   2.115   9.118 -1.0294  0.8764 -2.3873
   21SAPC  C316 2819   2.335   1.994   8.993  0.3164 -0.1340 -0.4146
   21SAPC  H16X 2820   2.265   1.965   9.075  0.2704  1.1972  0.0444
   21SAPC  H16Y 2821   2.344   1.899   8.936  0.4568 -0.8127  0.6916
   21SAPC  C317 2822   2.280   2.108   8.911 -0.2028 -0.4854  0.2013
   21SAPC  H17X 2823   2.366   2.136   8.846  1.1482 -1.1593  1.6393
   21SAPC  H17Y 2824   2.254   2.192   8.979 -1.5138 -0.3455 -0.4502
   21SAPC  C318 2825   2.159   2.078   8.825 -0.2480  0.8639  0.0764
   21SAPC  H18X 2826   2.124   2.172   8.777  0.6699  0.5853 -1.1796
   21SAPC  H18Y 2827   2.078   2.039   8.891 -0.5739 -1.2217 -1.4750
   21SAPC  H18Z 2828   2.180   1.999   8.749  0.4307  1.1969 -0.0873
   22SAPC     N 2829   0.853   1.482  10.270  0.0892 -0.3686 -0.6490
   22SAPC   C12 2830   0.803   1.624  10.274 -0.5041  0.5270  0.5537
   22SAPC  H12A 2831   0.731   1.635  10.195 -0.2217  0.3817  0.2730
   22SAPC  H12B 2832   0.883   1.692  10.250 -2.1376  2.0169 -0.9357
   22SAPC   C13 2833   0.929   1.457  10.404  0.4171 -0.2863  0.0285
   22SAPC  H13A 2834   0.930   1.352  10.428 -0.7937  0.2100  2.6611
   22SAPC  H13B 2835   1.027   1.502  10.401  0.3252  0.3873  3.1263
   22SAPC  H13C 2836   0.876   1.496  10.490  0.6118 -0.0095  0.0256
   22SAPC   C14 2837   0.737   1.390  10.258 -0.3449 -0.3059 -0.1873
   22SAPC  H14A 2838   0.778   1.291  10.271 -0.3140 -0.2011  0.5367
   22SAPC  H14B 2839   0.663   1.399  10.336  0.3473  0.3020  0.4252
   22SAPC  H14C 2840   0.697   1.409  10.160  0.7246  1.4925 -0.3310
   22SAPC   C15 2841   0.949   1.454  10.156  0.3520  0.0374 -0.3606
   22SAPC  H15A 2842   1.045   1.503  10.152  0.4500 -0.2428 -2.2260
   22SAPC  H15B 2843   0.969   1.349  10.143 -2.7915 -0.7920  0.6382
   22SAPC  H15C 2844   0.892   1.483  10.069  0.7363  0.6558 -0.4083
   22SAPC   C11 2845   0.735   1.671  10.400 -0.3087  0.6550  0.3085
   22SAPC  H11A 2846   0.670   1.591  10.439  0.2892  1.0827  2.3385
   22SAPC  H11B 2847   0.669   1.753  10.364 -1.8196 -0.9026 -0.5837
   22SAPC     P 2848   0.876   1.857  10.511  0.4562 -0.2967 -0.0403
   22SAPC   O13 2849   0.764   1.941  10.552  0.2816  0.0577 -0.4893
   22SAPC   O14 2850   1.004   1.861  10.593 -0.2926  0.2488 -0.1579
   22SAPC   O12 2851   0.829   1.709  10.501  0.5076 -0.3364 -0.5585
   22SAPC   O11 2852   0.915   1.897  10.371  0.4534 -0.3654 -0.7421
   22SAPC    C1 2853   1.044   1.877  10.306 -0.0482  0.0621 -0.3041
   22SAPC    HA 2854   1.121   1.928  10.368 -0.0764  0.6181 -0.7203
   22SAPC    HB 2855   1.067   1.769  10.303  0.2589  0.1504 -1.3228
   22SAPC    C2 2856   1.046   1.925  10.159  0.5374  0.0978  0.2006
   22SAPC    HS 2857   1.016   2.033  10.161  0.7416  0.1583  0.0095
   22SAPC   O21 2858   0.951   1.838  10.086  0.1977 -0.2875 -0.4776
   22SAPC   C21 2859   0.911   1.887   9.977 -0.6434  0.2134 -0.0388
   22SAPC   O22 2860   0.946   1.993   9.931 -0.6043 -0.0524  0.2650
   22SAPC   C22 2861   0.833   1.781   9.899 -0.1580 -0.1490  0.1180
   22SAPC   H2R 2862   0.814   1.694   9.965  0.4956 -1.5106 -1.4346
   22SAPC   H2S 2863   0.732   1.819   9.874 -0.4886 -0.2036  1.2895
   22SAPC    C3 2864   1.191   1.930  10.100 -0.0724  0.3542  0.1461
   22SAPC    HX 2865   1.263   1.983  10.166  2.3211 -1.3523 -0.9307
   22SAPC    HY 2866   1.189   1.981  10.001  2.6304  1.4109  0.5596
   22SAPC   O31 2867   1.238   1.795  10.095  0.0612 -0.2776 -0.1026
   22SAPC   C31 2868   1.366   1.786  10.057 -0.0607  0.4992 -0.5738
   22SAPC   O32 2869   1.438   1.878  10.019 -0.3421 -0.6319  0.1651
   22SAPC   C32 2870   1.408   1.640  10.081 -0.4244  0.2968  0.3600
   22SAPC   H2X 2871   1.341   1.588  10.154  0.1610  0.4521  1.0239
   22SAPC   H2Y 2872   1.513   1.642  10.118  0.2241  0.8336 -1.4475
   22SAPC   C23 2873   0.910   1.716   9.778 -0.0863  0.2355 -0.1647
   22SAPC   H3R 2874   0.881   1.609   9.776  1.4496 -0.2486  1.4300
   22SAPC   H3S 2875   1.019   1.722   9.798 -0.1285 -0.9466  0.4686
   22SAPC   C24 2876   0.878   1.783   9.640  0.0070 -0.0875 -0.4620
   22SAPC   H4R 2877   0.884   1.892   9.660 -0.8299 -0.3181  1.1891
   22SAPC   H4S 2878   0.772   1.757   9.621 -0.2659 -1.3464  2.3948
   22SAPC   C25 2879   0.965   1.740   9.524  0.1201 -0.5441  0.3169
   22SAPC   H5R 2880   1.068   1.775   9.540  0.4736 -1.2226 -0.4066
   22SAPC   C26 2881   0.925   1.657   9.426 -0.4002  0.6866  0.5329
   22SAPC   H6R 2882   0.998   1.623   9.351 -1.4779 -3.3046  1.0659
   22SAPC   C27 2883   0.785   1.597   9.410 -0.4121  0.1012  1.2856
   22SAPC   H7R 2884   0.718   1.679   9.377  2.4427  2.0196 -0.1608
   22SAPC   H7S 2885   0.755   1.563   9.511  0.9505 -1.5443  1.1768
   22SAPC   C28 2886   0.784   1.480   9.312 -0.2780 -0.3470  0.3204
   22SAPC   H8R 2887   0.736   1.393   9.359  1.4412 -1.9415 -0.7511
   22SAPC   C29 2888   0.811   1.455   9.184 -0.1869 -0.1332  0.6615
   22SAPC   H9R 2889   0.810   1.351   9.147  1.3263 -0.2497  0.8987
   22SAPC  C210 2890   0.886   1.558   9.099  1.0473 -1.1439 -0.4915
   22SAPC  H10R 2891   0.940   1.516   9.012 -0.8887 -1.7308 -1.4612
   22SAPC  H10S 2892   0.972   1.599   9.157  1.9037 -0.8160 -1.9268
   22SAPC  C211 2893   0.802   1.679   9.049  1.3802  0.2064  0.0067
   22SAPC  H11R 2894   0.707   1.690   9.104  0.7401 -1.4885 -0.6831
   22SAPC  C212 2895   0.832   1.769   8.960 -0.3562  0.1832  0.7619
   22SAPC  H12R 2896   0.757   1.830   8.907  0.0457 -0.2377 -0.3287
   22SAPC  C213 2897   0.984   1.788   8.913  0.4113  0.1551 -0.6936
   22SAPC  H13R 2898   1.015   1.702   8.850  1.2612 -2.1412  2.5900
   22SAPC  H13S 2899   1.053   1.784   9.000  0.7377  0.8179 -0.9143
   22SAPC  C214 2900   1.006   1.921   8.857  0.8892 -0.2830  0.0631
   22SAPC  H14R 2901   1.014   2.004   8.928  0.1699 -1.7221  1.9035
   22SAPC  C215 2902   0.997   1.940   8.725  0.2340  0.6107  0.0098
   22SAPC  H15R 2903   1.033   2.034   8.681  0.3325  0.5697  0.0030
   22SAPC  C216 2904   0.977   1.831   8.622 -0.0703 -0.3927  0.1816
   22SAPC  H16R 2905   0.898   1.880   8.562  1.3878  0.3207 -1.2604
   22SAPC  H16S 2906   0.939   1.729   8.645  0.5268 -0.8813 -0.9012
   22SAPC  C217 2907   1.115   1.828   8.541  0.0162  0.2056  0.5083
   22SAPC  H17R 2908   1.205   1.785   8.589  0.9892  0.6113 -0.8839
   22SAPC  H17S 2909   1.136   1.934   8.515  0.3141  0.1230  0.4189
   22SAPC  C218 2910   1.094   1.763   8.399 -0.4463  0.1010 -0.7853
   22SAPC  H18R 2911   1.199   1.747   8.365 -0.5636 -2.1271 -0.2618
   22SAPC  H18S 2912   1.038   1.829   8.329 -1.2532  2.0445  1.5777
   22SAPC  C219 2913   1.033   1.628   8.390 -0.0249  0.2824  0.1366
   22SAPC  H19R 2914   0.932   1.614   8.435 -0.5834  0.2043 -1.1137
   22SAPC  H19S 2915   1.102   1.555   8.439  0.0623  1.1485  1.3369
   22SAPC  C220 2916   1.018   1.591   8.239  0.0170 -0.1911  0.8270
   22SAPC  H20R 2917   0.949   1.664   8.193  0.7212 -0.4582 -0.6950
   22SAPC  H20S 2918   0.980   1.487   8.242  0.3143 -0.2860  3.1759
   22SAPC  H20T 2919   1.115   1.610   8.189 -0.7770  0.7083 -0.4348
   22SAPC   C33 2920   1.420   1.564   9.945 -0.4351 -0.5364 -1.3131
   22SAPC   H3X 2921   1.481   1.476   9.975  1.0912  1.0587  0.4986
   22SAPC   H3Y 2922   1.473   1.622   9.867  0.3077 -2.1248 -2.0499
   22SAPC   C34 2923   1.286   1.510   9.896  0.0416  0.1984 -0.0116
   22SAPC   H4X 2924   1.216   1.596   9.886 -1.1212 -0.4857  1.8278
   22SAPC   H4Y 2925   1.243   1.445   9.975  0.3612  2.0775  1.7769
   22SAPC   C35 2926   1.292   1.428   9.765 -0.1497  0.3754  0.6240
   22SAPC   H5X 2927   1.190   1.400   9.732  0.9564 -1.6052 -1.3317
   22SAPC   H5Y 2928   1.349   1.335   9.788 -0.8826 -0.3650 -0.4642
   22SAPC   C36 2929   1.351   1.512   9.650  0.1052 -0.6400  0.0287
   22SAPC   H6X 2930   1.462   1.512   9.664  0.4514 -2.0637 -2.1398
   22SAPC   H6Y 2931   1.329   1.621   9.650  1.2300 -0.3759  1.7559
   22SAPC   C37 2932   1.312   1.451   9.511 -0.1677 -1.1970  0.5361
   22SAPC   H7X 2933   1.205   1.420   9.512  0.0721 -2.0603  0.6015
   22SAPC   H7Y 2934   1.367   1.358   9.486 -0.1559 -1.4848  1.5754
   22SAPC   C38 2935   1.342   1.558   9.401  0.4341 -0.0480 -0.2583
   22SAPC   H8X 2936   1.451   1.578   9.392  0.4422  1.0117  1.6261
   22SAPC   H8Y 2937   1.293   1.652   9.433 -1.6414 -1.3491  0.5746
   22SAPC   C39 2938   1.293   1.517   9.256  0.9129 -0.8939 -0.6899
   22SAPC   H9X 2939   1.294   1.605   9.189  2.2045  0.0683  0.5125
   22SAPC   H9Y 2940   1.187   1.486   9.268  1.0689 -1.1669  0.0689
   22SAPC  C310 2941   1.376   1.410   9.189  0.1204  0.7989  1.1504
   22SAPC  H10X 2942   1.371   1.320   9.253 -2.7452  0.2124  0.2690
   22SAPC  H10Y 2943   1.481   1.444   9.179  0.4935 -0.7036 -0.5095
   22SAPC  C311 2944   1.332   1.392   9.043  0.1890 -0.3553 -0.1805
   22SAPC  H11X 2945   1.310   1.493   9.001  0.1840  0.5482  1.9126
   22SAPC  H11Y 2946   1.236   1.335   9.046  0.3511 -0.5777  1.7997
   22SAPC  C312 2947   1.430   1.315   8.953  0.6607 -0.7243  0.4298
   22SAPC  H12X 2948   1.473   1.226   9.004  2.5238  0.1365  0.4613
   22SAPC  H12Y 2949   1.521   1.374   8.931  1.0658 -2.0093 -1.6548
   22SAPC  C313 2950   1.377   1.267   8.815 -0.7453  0.4404 -0.5065
   22SAPC  H13X 2951   1.299   1.191   8.838 -1.0807  0.5570 -1.2390
   22SAPC  H13Y 2952   1.466   1.227   8.761  0.5560 -0.7433  2.2783
   22SAPC  C314 2953   1.305   1.367   8.731  0.0697 -0.4025  0.1045
   22SAPC  H14X 2954   1.213   1.395   8.787 -0.0387 -0.4765 -0.0378
   22SAPC  H14Y 2955   1.261   1.330   8.636  0.1519  2.5788 -1.2147
   22SAPC  C315 2956   1.387   1.490   8.697  0.1527 -0.4361 -0.0871
   22SAPC  H15X 2957   1.454   1.523   8.779 -0.1081 -0.4046  0.1174
   22SAPC  H15Y 2958   1.318   1.572   8.668 -1.9442 -2.3599 -0.8337
   22SAPC  C316 2959   1.489   1.461   8.579 -0.0471 -0.4571  0.2176
   22SAPC  H16X 2960   1.421   1.434   8.495 -1.9702  0.5482  1.3795
   22SAPC  H16Y 2961   1.537   1.367   8.613 -2.4365 -0.9795  2.3650
   22SAPC  C317 2962   1.593   1.570   8.553  0.5902 -0.0438  0.0070
   22SAPC  H17X 2963   1.668   1.539   8.477  1.6313  2.2626 -0.0051
   22SAPC  H17Y 2964   1.654   1.590   8.643  3.8109 -1.1703 -1.7691
   22SAPC  C318 2965   1.528   1.703   8.500 -0.1962 -0.1614 -0.0098
   22SAPC  H18X 2966   1.472   1.745   8.587 -1.8662 -0.1880 -1.0193
   22SAPC  H18Y 2967   1.462   1.682   8.413  0.1978  0.7121 -0.5272
   22SAPC  H18Z 2968   1.614   1.766   8.469 -0.5069  0.1028 -0.3429
   23SAPC     N 2969   4.152   4.791  10.406  0.1729  0.4473  0.1758
   23SAPC   C12 2970   4.057   4.663  10.401 -0.6396 -0.1456  0.3388
   23SAPC  H12A 2971   4.075   4.616  10.496  2.7420  0.2850  0.0607
   23SAPC  H12B 2972   4.103   4.594  10.331  0.8381  2.2092 -1.1876
   23SAPC   C13 2973   4.090   4.911  10.478  0.3722  0.2736  0.4327
   23SAPC  H13A 2974   4.151   5.000  10.474  1.3360 -0.3815  0.4096
   23SAPC  H13B 2975   3.992   4.923  10.433  0.5200  1.0921  0.3179
   23SAPC  H13C 2976   4.070   4.895  10.583 -0.8502  1.2703  0.3868
   23SAPC   C14 2977   4.287   4.765  10.463 -0.0343  0.7198  0.2106
   23SAPC  H14A 2978   4.349   4.853  10.450 -0.5199  1.1245  0.5972
   23SAPC  H14B 2979   4.276   4.730  10.565 -0.0992  0.6164  0.1690
   23SAPC  H14C 2980   4.336   4.685  10.410 -0.8531  0.6662 -0.4940
   23SAPC   C15 2981   4.179   4.831  10.260 -0.4818  0.4656  0.3455
   23SAPC  H15A 2982   4.254   4.908  10.259 -0.1630  0.1617 -0.4236
   23SAPC  H15B 2983   4.210   4.745  10.201  0.4263 -0.6979  2.3979
   23SAPC  H15C 2984   4.088   4.870  10.219 -0.4397  0.0992 -0.1095
   23SAPC   C11 2985   3.912   4.679  10.368 -0.0117  0.0279 -0.4043
   23SAPC  H11A 2986   3.872   4.577  10.350  0.1094 -0.3502  1.2717
   23SAPC  H11B 2987   3.898   4.744  10.280 -0.5796  0.9011  0.3090
   23SAPC     P 2988   3.792   4.671  10.598 -0.0882 -0.2232  0.1962
   23SAPC   O13 2989   3.896   4.605  10.674  0.1961  0.0138  0.0460
   23SAPC   O14 2990   3.716   4.772  10.672  0.0327  0.2448  1.0803
   23SAPC   O12 2991   3.852   4.748  10.482  0.3766 -0.1658 -0.5126
   23SAPC   O11 2992   3.696   4.563  10.527 -0.1793 -0.5748  0.1515
   23SAPC    C1 2993   3.572   4.622  10.465  0.3386  0.8376  0.6243
   23SAPC    HA 2994   3.493   4.637  10.542  1.0805 -2.6127  2.2510
   23SAPC    HB 2995   3.583   4.721  10.415  1.3608  0.0668 -0.7473
   23SAPC    C2 2996   3.507   4.512  10.368 -0.2053 -0.7281  0.6235
   23SAPC    HS 2997   3.418   4.564  10.327  0.6505  1.5830  1.5438
   23SAPC   O21 2998   3.455   4.401  10.442 -0.3000 -0.1137  0.1830
   23SAPC   C21 2999   3.338   4.419  10.507 -0.4600 -0.0606 -0.0963
   23SAPC   O22 3000   3.281   4.527  10.510  0.2014 -0.3432  0.0663
   23SAPC   C22 3001   3.302   4.296  10.586  0.1711 -0.4403 -0.8796
   23SAPC   H2R 3002   3.387   4.232  10.617 -0.5890 -0.3578  1.5899
   23SAPC   H2S 3003   3.252   4.330  10.680 -0.7834 -0.7423 -1.2605
   23SAPC    C3 3004   3.609   4.465  10.251  0.8029 -0.8327 -0.2739
   23SAPC    HX 3005   3.693   4.421  10.309  1.7027  0.0467 -0.8619
   23SAPC    HY 3006   3.644   4.559  10.202 -3.4747 -0.2345 -2.6618
   23SAPC   O31 3007   3.541   4.391  10.159  0.4486  0.9217 -0.0500
   23SAPC   C31 3008   3.546   4.263  10.173 -0.0126  0.5485  0.8919
   23SAPC   O32 3009   3.622   4.201  10.245  0.1308  0.4013 -0.0855
   23SAPC   C32 3010   3.443   4.188  10.093 -0.1983 -0.3467  0.7897
   23SAPC   H2X 3011   3.347   4.235  10.123 -0.4764 -0.1295 -0.3779
   23SAPC   H2Y 3012   3.448   4.084  10.130 -0.4932 -0.3004  0.9545
   23SAPC   C23 3013   3.201   4.195  10.524  0.0717 -0.3590  0.2184
   23SAPC   H3R 3014   3.162   4.126  10.601 -2.0188 -0.3269 -0.7349
   23SAPC   H3S 3015   3.257   4.124  10.460 -0.6998 -1.8879  1.1891
   23SAPC   C24 3016   3.070   4.263  10.468 -0.2155 -0.1250 -0.3320
   23SAPC   H4R 3017   3.019   4.324  10.546  1.6964 -0.6618  1.4222
   23SAPC   H4S 3018   3.012   4.168  10.463 -1.6598  0.7316 -0.3761
   23SAPC   C25 3019   3.078   4.335  10.338 -0.0919 -0.0438  0.0252
   23SAPC   H5R 3020   3.109   4.441  10.347 -1.5464  0.3403  0.8479
   23SAPC   C26 3021   3.054   4.274  10.218 -0.1981  0.1348 -0.9872
   23SAPC   H6R 3022   3.050   4.330  10.123 -1.6986 -1.0706 -1.6699
   23SAPC   C27 3023   3.019   4.129  10.194 -0.3061  0.3961 -0.6363
   23SAPC   H7R 3024   3.026   4.071  10.289  1.3220  0.5397 -0.6323
   23SAPC   H7S 3025   3.099   4.084  10.131 -0.4409 -1.8651  0.7007
   23SAPC   C28 3026   2.890   4.104  10.123 -0.2236 -0.8212  0.4929
   23SAPC   H8R 3027   2.799   4.126  10.182  0.6491  1.4207  1.0984
   23SAPC   C29 3028   2.875   4.057   9.998  1.3070  0.7654 -0.6768
   23SAPC   H9R 3029   2.771   4.050   9.962  1.5507  1.4318 -1.5281
   23SAPC  C210 3030   2.986   4.016   9.899  0.1147  0.0744 -0.4388
   23SAPC  H10R 3031   2.961   3.928   9.837  1.0574 -0.1017 -0.5783
   23SAPC  H10S 3032   3.081   3.990   9.950 -0.7617 -0.7364  0.8426
   23SAPC  C211 3033   3.018   4.125   9.801 -0.7903 -0.7840 -0.2459
   23SAPC  H11R 3034   3.006   4.227   9.841 -1.2689 -0.7113 -0.5604
   23SAPC  C212 3035   3.071   4.125   9.674  0.5625  0.2460 -0.5516
   23SAPC  H12R 3036   3.101   4.221   9.631  0.7284  0.6388  0.4241
   23SAPC  C213 3037   3.094   4.002   9.593  0.1484  0.3184  0.1062
   23SAPC  H13R 3038   3.139   3.921   9.655  1.1824  2.4452  2.3001
   23SAPC  H13S 3039   3.177   4.024   9.522 -1.0871  2.1380 -0.8642
   23SAPC  C214 3040   2.964   3.950   9.535  0.3257  0.2159  0.3508
   23SAPC  H14R 3041   2.883   3.944   9.608  0.7728  0.4128  0.8717
   23SAPC  C215 3042   2.951   3.912   9.408 -0.0247 -0.8551 -0.1688
   23SAPC  H15R 3043   2.852   3.876   9.376 -1.3187  0.8654  1.6816
   23SAPC  C216 3044   3.057   3.921   9.297  1.1821 -0.0348  0.1235
   23SAPC  H16R 3045   3.155   3.960   9.335  0.2455  1.9936  0.6327
   23SAPC  H16S 3046   3.017   3.996   9.226 -1.1524 -0.8725  0.4727
   23SAPC  C217 3047   3.060   3.785   9.231 -0.4626  0.1639  0.0218
   23SAPC  H17R 3048   3.036   3.696   9.293 -3.1295 -0.5032 -1.7913
   23SAPC  H17S 3049   3.167   3.760   9.212 -0.2688  0.0778  1.1739
   23SAPC  C218 3050   2.991   3.802   9.099  0.0952 -0.1627 -0.5737
   23SAPC  H18R 3051   3.053   3.876   9.044  2.0150 -0.0556  1.5637
   23SAPC  H18S 3052   2.895   3.856   9.113  0.3671 -0.1170  1.3828
   23SAPC  C219 3053   2.968   3.669   9.028  0.1069  0.1462 -0.2926
   23SAPC  H19R 3054   2.925   3.678   8.926 -1.6293 -2.7146  0.0605
   23SAPC  H19S 3055   2.887   3.607   9.074  2.3422 -1.7808  1.2715
   23SAPC  C220 3056   3.088   3.587   9.019 -0.4378 -0.1581  0.4515
   23SAPC  H20R 3057   3.055   3.483   8.997  1.7206 -1.0512  1.1174
   23SAPC  H20S 3058   3.125   3.571   9.123 -1.0467  0.2703  0.7392
   23SAPC  H20T 3059   3.162   3.629   8.947 -0.4460  0.4637  0.7974
   23SAPC   C33 3060   3.457   4.204   9.938 -0.0209  0.2615  0.1296
   23SAPC   H3X 3061   3.464   4.314   9.922  0.2904  0.3212  0.6489
   23SAPC   H3Y 3062   3.360   4.163   9.903 -1.5052  2.7702  1.0368
   23SAPC   C34 3063   3.580   4.129   9.884  0.2755  0.1094  0.2040
   23SAPC   H4X 3064   3.564   4.023   9.912 -1.9303  0.3937  0.2212
   23SAPC   H4Y 3065   3.673   4.158   9.938 -0.5049  0.1176  1.6079
   23SAPC   C35 3066   3.611   4.143   9.728  1.0873  0.1423 -0.1299
   23SAPC   H5X 3067   3.706   4.092   9.701  1.2505  0.7655 -0.7431
   23SAPC   H5Y 3068   3.627   4.252   9.714 -1.2721  0.4720 -0.6344
   23SAPC   C36 3069   3.504   4.082   9.636  0.1887 -0.7114 -0.5568
   23SAPC   H6X 3070   3.415   4.147   9.655  0.8203 -0.0486  0.2260
   23SAPC   H6Y 3071   3.487   3.973   9.648 -0.4693 -0.3845  2.1021
   23SAPC   C37 3072   3.553   4.102   9.494 -0.4696  0.1680  0.4823
   23SAPC   H7X 3073   3.655   4.059   9.496 -1.0611 -1.7865 -3.0657
   23SAPC   H7Y 3074   3.555   4.209   9.465  0.1920  0.2952  0.9878
   23SAPC   C38 3075   3.479   4.008   9.390  0.1681 -0.2788 -1.1277
   23SAPC   H8X 3076   3.371   4.035   9.393 -0.2636 -1.9063 -1.0496
   23SAPC   H8Y 3077   3.491   3.902   9.420 -0.9006 -0.0880  0.1083
   23SAPC   C39 3078   3.540   4.020   9.253  0.2637 -0.3680  0.0880
   23SAPC   H9X 3079   3.637   3.967   9.249 -0.3026 -1.3574 -1.6085
   23SAPC   H9Y 3080   3.562   4.128   9.234  1.0290 -0.2133  1.7221
   23SAPC  C310 3081   3.445   3.962   9.147 -0.0189 -0.1989  0.0059
   23SAPC  H10X 3082   3.343   4.006   9.159  1.3752  3.2239  0.4342
   23SAPC  H10Y 3083   3.428   3.852   9.144 -1.8820  0.0662 -0.3643
   23SAPC  C311 3084   3.502   4.011   9.010  0.4090 -0.0146 -0.0290
   23SAPC  H11X 3085   3.607   3.975   9.002  0.3444 -0.2357  0.0854
   23SAPC  H11Y 3086   3.502   4.122   9.013  2.4219  0.0042  1.2950
   23SAPC  C312 3087   3.401   3.970   8.901  0.1285 -0.2228  0.5290
   23SAPC  H12X 3088   3.297   3.991   8.933 -1.5331 -1.4276 -3.4598
   23SAPC  H12Y 3089   3.406   3.862   8.875 -0.1122  0.1525 -1.1680
   23SAPC  C313 3090   3.424   4.052   8.770 -0.2849 -0.3122 -0.1035
   23SAPC  H13X 3091   3.523   4.024   8.728 -0.6657 -2.0783  0.0983
   23SAPC  H13Y 3092   3.441   4.160   8.788 -0.7620 -0.3351  0.5416
   23SAPC  C314 3093   3.320   4.029   8.669  0.1450 -0.0951 -0.1744
   23SAPC  H14X 3094   3.225   4.082   8.688 -0.8355 -2.6500  3.0980
   23SAPC  H14Y 3095   3.287   3.923   8.677  0.2019 -0.0076  1.5147
   23SAPC  C315 3096   3.372   4.078   8.532 -0.8460 -0.7230 -0.0245
   23SAPC  H15X 3097   3.464   4.022   8.503  0.4642  2.0998 -1.7582
   23SAPC  H15Y 3098   3.405   4.184   8.536 -0.6053 -0.7489 -1.0466
   23SAPC  C316 3099   3.277   4.055   8.413 -0.4197 -0.1827 -0.1337
   23SAPC  H16X 3100   3.334   4.082   8.321 -0.7352  1.0325  0.0068
   23SAPC  H16Y 3101   3.189   4.123   8.416 -0.4468 -0.2084 -0.3108
   23SAPC  C317 3102   3.224   3.918   8.402 -0.1825  0.6447  0.2396
   23SAPC  H17X 3103   3.168   3.874   8.487  1.1108 -0.9633  0.3115
   23SAPC  H17Y 3104   3.315   3.856   8.384  0.0189  1.0570 -0.1993
   23SAPC  C318 3105   3.140   3.897   8.271 -0.5428  0.2596 -0.5299
   23SAPC  H18X 3106   3.181   3.928   8.173 -4.3811  1.3731 -1.9893
   23SAPC  H18Y 3107   3.053   3.966   8.281 -0.6464 -0.0858  1.0878
   23SAPC  H18Z 3108   3.116   3.789   8.266 -1.7492  0.5372 -1.0767
   24SAPC     N 3109   4.038   3.479  10.791 -0.3704 -0.5065  0.0386
   24SAPC   C12 3110   4.164   3.566  10.771  0.4274  0.0901  0.0231
   24SAPC  H12A 3111   4.161   3.645  10.845  1.2215 -1.2935  1.5792
   24SAPC  H12B 3112   4.167   3.604  10.670 -1.7831  0.0108 -0.1092
   24SAPC   C13 3113   4.010   3.400  10.662 -0.5519 -0.6085  0.0135
   24SAPC  H13A 3114   3.925   3.336  10.683 -1.1541  0.4691  0.9968
   24SAPC  H13B 3115   3.985   3.473  10.587 -0.8236 -0.1306  0.5647
   24SAPC  H13C 3116   4.100   3.350  10.629  0.4314 -0.0058  1.6712
   24SAPC   C14 3117   4.042   3.386  10.906 -0.7266 -0.0155 -0.2365
   24SAPC  H14A 3118   4.083   3.436  10.992  0.7667 -1.1190 -0.2609
   24SAPC  H14B 3119   3.939   3.363  10.925 -0.7967 -0.4094 -1.0267
   24SAPC  H14C 3120   4.104   3.300  10.883 -1.1984  0.0255 -1.8164
   24SAPC   C15 3121   3.925   3.576  10.804  0.3459 -0.5195 -0.0762
   24SAPC  H15A 3122   3.932   3.637  10.893  2.1119  1.3467 -1.4033
   24SAPC  H15B 3123   3.917   3.648  10.723  1.0967  0.1845  0.4627
   24SAPC  H15C 3124   3.831   3.523  10.805  0.1657 -0.2183 -0.5666
   24SAPC   C11 3125   4.301   3.494  10.801  0.8978  0.0089  0.2325
   24SAPC  H11A 3126   4.286   3.426  10.888 -0.9449 -0.8845 -0.7206
   24SAPC  H11B 3127   4.381   3.569  10.817  0.4364  0.3190  1.1545
   24SAPC     P 3128   4.363   3.278  10.676  0.9547 -0.4077  0.4675
   24SAPC   O13 3129   4.418   3.232  10.803 -0.0926  0.0682  0.0669
   24SAPC   O14 3130   4.246   3.206  10.612 -0.4933  0.1722 -0.2133
   24SAPC   O12 3131   4.326   3.427  10.677  0.6753 -0.5135 -0.3707
   24SAPC   O11 3132   4.485   3.274  10.580 -0.3180  0.8009 -0.2148
   24SAPC    C1 3133   4.526   3.393  10.510  0.3019  0.4797  0.0867
   24SAPC    HA 3134   4.437   3.451  10.479  0.0038  0.2595  0.5211
   24SAPC    HB 3135   4.586   3.457  10.577 -1.8642  0.5113  2.1076
   24SAPC    C2 3136   4.603   3.351  10.384  0.1454  0.5152 -0.2217
   24SAPC    HS 3137   4.667   3.437  10.355  1.9008  0.2396  2.4766
   24SAPC   O21 3138   4.521   3.298  10.272  0.2005  0.3550  0.3091
   24SAPC   C21 3139   4.489   3.388  10.183 -0.0758 -0.2365 -0.4705
   24SAPC   O22 3140   4.510   3.506  10.190  0.5321 -0.2798 -0.0324
   24SAPC   C22 3141   4.395   3.329  10.082 -0.2028  0.4203 -0.3972
   24SAPC   H2R 3142   4.431   3.229  10.049  1.2239  0.7158  0.1476
   24SAPC   H2S 3143   4.307   3.297  10.141  1.7796 -0.2052  2.4349
   24SAPC    C3 3144   4.708   3.234  10.421  0.7440 -0.7841 -0.2548
   24SAPC    HX 3145   4.649   3.156  10.472 -0.9117  0.4490 -0.1811
   24SAPC    HY 3146   4.774   3.274  10.501 -0.3802  0.1659  0.2274
   24SAPC   O31 3147   4.783   3.202  10.306 -0.8386  0.9265 -0.4081
   24SAPC   C31 3148   4.863   3.091  10.332 -0.6566 -0.2099  0.4685
   24SAPC   O32 3149   4.861   3.032  10.438  0.0474 -0.0423  0.3703
   24SAPC   C32 3150   4.952   3.069  10.207  0.1310 -0.2265 -0.2438
   24SAPC   H2X 3151   5.051   3.109  10.237 -0.2795  1.8417 -1.4414
   24SAPC   H2Y 3152   4.913   3.127  10.120  0.9287 -3.0524 -2.6557
   24SAPC   C23 3153   4.343   3.423   9.968  0.4190 -0.1763  0.7163
   24SAPC   H3R 3154   4.307   3.518  10.013  1.7929  1.3877 -1.2854
   24SAPC   H3S 3155   4.257   3.392   9.906  1.8592  1.0757 -2.1025
   24SAPC   C24 3156   4.458   3.460   9.870 -0.3656  0.2174  0.0581
   24SAPC   H4R 3157   4.535   3.533   9.903  0.3904  0.0874 -1.3574
   24SAPC   H4S 3158   4.400   3.499   9.784  1.2677 -1.8083 -2.0737
   24SAPC   C25 3159   4.525   3.344   9.810 -0.6242 -0.0073  0.2550
   24SAPC   H5R 3160   4.581   3.287   9.886  0.5399 -0.2562 -0.7566
   24SAPC   C26 3161   4.546   3.315   9.682  0.4917 -0.3579 -0.2208
   24SAPC   H6R 3162   4.610   3.233   9.649  1.5768  0.9886 -1.6347
   24SAPC   C27 3163   4.480   3.373   9.561 -0.1504 -0.5359 -0.2066
   24SAPC   H7R 3164   4.521   3.342   9.463 -1.0295  1.1791 -1.1693
   24SAPC   H7S 3165   4.488   3.484   9.563  1.1953 -0.6238 -0.1013
   24SAPC   C28 3166   4.335   3.336   9.542 -0.0016 -0.2759  0.3516
   24SAPC   H8R 3167   4.290   3.287   9.630  0.2359 -2.4162 -0.6312
   24SAPC   C29 3168   4.259   3.354   9.429 -0.2918  0.3140 -0.1916
   24SAPC   H9R 3169   4.153   3.322   9.432 -0.5272  0.8380 -1.9223
   24SAPC  C210 3170   4.301   3.429   9.299  0.4411 -0.2407  0.4822
   24SAPC  H10R 3171   4.373   3.511   9.319  1.6929 -0.9474 -0.9023
   24SAPC  H10S 3172   4.211   3.475   9.253  0.8844 -1.8076 -2.1418
   24SAPC  C211 3173   4.357   3.336   9.196  0.4112  0.0314 -1.2862
   24SAPC  H11R 3174   4.465   3.314   9.203  0.3487 -0.7118 -2.3465
   24SAPC  C212 3175   4.291   3.282   9.095 -0.4929  1.0732 -0.2318
   24SAPC  H12R 3176   4.350   3.222   9.024  0.1409  2.3068 -0.7907
   24SAPC  C213 3177   4.144   3.304   9.059  0.0837  0.2134  0.0955
   24SAPC  H13R 3178   4.113   3.410   9.054 -1.5218 -0.2866 -1.5303
   24SAPC  H13S 3179   4.072   3.265   9.134  0.1226 -1.1836 -0.5570
   24SAPC  C214 3180   4.103   3.211   8.943  0.4149  0.5820  0.1134
   24SAPC  H14R 3181   4.151   3.112   8.940  0.6365  0.6918  0.0535
   24SAPC  C215 3182   4.023   3.237   8.838 -0.2434  0.3420  0.1542
   24SAPC  H15R 3183   4.020   3.162   8.758  0.9289  0.1942  0.2278
   24SAPC  C216 3184   3.950   3.366   8.809  0.6177 -0.5204 -0.3293
   24SAPC  H16R 3185   3.990   3.411   8.715 -1.0916  0.9429 -0.3927
   24SAPC  H16S 3186   3.972   3.447   8.882 -1.2919 -1.2258  1.0938
   24SAPC  C217 3187   3.791   3.363   8.785 -1.0474 -0.0807 -0.0173
   24SAPC  H17R 3188   3.747   3.326   8.880 -1.7569  0.0160 -0.3032
   24SAPC  H17S 3189   3.773   3.289   8.705  0.4206 -0.3583 -0.1167
   24SAPC  C218 3190   3.728   3.488   8.734  0.4357 -0.5781  0.1153
   24SAPC  H18R 3191   3.619   3.473   8.717 -0.1947  0.4821  2.7052
   24SAPC  H18S 3192   3.771   3.519   8.636  2.8861 -0.4198  1.1882
   24SAPC  C219 3193   3.721   3.610   8.833 -0.7403  1.0638  0.6744
   24SAPC  H19R 3194   3.825   3.641   8.856  0.4301 -0.9857 -1.3741
   24SAPC  H19S 3195   3.665   3.578   8.923  2.1189 -1.9709  1.5602
   24SAPC  C220 3196   3.655   3.730   8.769 -0.2991  0.2418  0.8821
   24SAPC  H20R 3197   3.553   3.720   8.726  0.3178 -0.6106 -0.4222
   24SAPC  H20S 3198   3.719   3.762   8.684  0.3254 -1.0328  0.8446
   24SAPC  H20T 3199   3.664   3.808   8.848  1.0105 -0.5793  1.5880
   24SAPC   C33 3200   4.959   2.925  10.168 -0.8359  0.1699  0.1843
   24SAPC   H3X 3201   4.857   2.886  10.149 -0.6348 -0.6895  0.7837
   24SAPC   H3Y 3202   5.002   2.863  10.251  2.8661  0.8963 -0.9805
   24SAPC   C34 3203   5.046   2.895  10.049 -0.8860  0.3277 -0.7686
   24SAPC   H4X 3204   5.146   2.934  10.079 -1.9885  2.6515  0.1451
   24SAPC   H4Y 3205   5.007   2.942   9.956 -2.1822 -4.6817 -3.0832
   24SAPC   C35 3206   5.068   2.744  10.021  0.6916 -0.4899 -0.1525
   24SAPC   H5X 3207   4.976   2.700   9.977  0.3392  0.2688 -0.1906
   24SAPC   H5Y 3208   5.064   2.694  10.120 -2.6891  1.5686  0.9180
   24SAPC   C36 3209   5.189   2.709   9.926 -0.1037 -0.0617 -0.0987
   24SAPC   H6X 3210   5.286   2.747   9.964 -0.1235  0.4336 -0.5255
   24SAPC   H6Y 3211   5.163   2.742   9.823  1.1036  0.1387 -0.3629
   24SAPC   C37 3212   5.204   2.558   9.933  0.1609 -0.4965  0.2762
   24SAPC   H7X 3213   5.137   2.519   9.853 -0.8232  0.6220  0.5236
   24SAPC   H7Y 3214   5.177   2.527  10.036 -1.1022 -0.6974 -0.1008
   24SAPC   C38 3215   5.353   2.512   9.908 -0.1593  0.9608  0.1019
   24SAPC   H8X 3216   5.367   2.408   9.944 -2.5988  0.8180  0.8302
   24SAPC   H8Y 3217   5.413   2.584   9.968  0.1454  0.7416  0.0595
   24SAPC   C39 3218   5.401   2.534   9.763 -0.0989  0.3647 -0.1090
   24SAPC   H9X 3219   5.375   2.635   9.724  0.0213  0.2339 -0.5372
   24SAPC   H9Y 3220   5.349   2.451   9.710  1.4921  0.6643 -2.2711
   24SAPC  C310 3221   5.554   2.513   9.736 -0.4174 -0.2294  0.6015
   24SAPC  H10X 3222   5.585   2.417   9.784  0.1756  0.2160  1.1416
   24SAPC  H10Y 3223   5.611   2.590   9.793  3.9618 -0.8766 -2.4301
   24SAPC  C311 3224   5.594   2.534   9.587 -0.2732 -0.0439 -0.2577
   24SAPC  H11X 3225   5.572   2.641   9.564 -0.4067  0.0015  0.0748
   24SAPC  H11Y 3226   5.522   2.470   9.533 -1.8759 -1.1890  3.0002
   24SAPC  C312 3227   5.738   2.499   9.550  0.2207  0.0580 -0.4295
   24SAPC  H12X 3228   5.769   2.395   9.573  0.4934  0.6572  2.2072
   24SAPC  H12Y 3229   5.805   2.558   9.615 -2.3388  1.0040  1.5430
   24SAPC  C313 3230   5.767   2.538   9.408  0.7620  0.3392 -0.4070
   24SAPC  H13X 3231   5.872   2.504   9.403  0.2933 -1.2643  0.2578
   24SAPC  H13Y 3232   5.752   2.642   9.372 -2.7088 -0.2766 -1.1122
   24SAPC  C314 3233   5.695   2.458   9.299 -0.7124  0.4227 -0.3053
   24SAPC  H14X 3234   5.587   2.482   9.299 -1.0237 -0.9065  0.2257
   24SAPC  H14Y 3235   5.707   2.351   9.324 -1.6371 -0.3258 -2.8052
   24SAPC  C315 3236   5.750   2.482   9.160  0.4574 -0.3545 -0.2641
   24SAPC  H15X 3237   5.860   2.476   9.171  0.4681  2.4000  3.0157
   24SAPC  H15Y 3238   5.734   2.589   9.132 -1.6021 -0.6032 -0.2216
   24SAPC  C316 3239   5.705   2.372   9.069 -0.3896  0.2192 -0.5040
   24SAPC  H16X 3240   5.595   2.385   9.056 -0.8753  0.4171  2.8984
   24SAPC  H16Y 3241   5.719   2.271   9.113 -1.3608  0.9457  1.5991
   24SAPC  C317 3242   5.793   2.387   8.945  0.3495  0.0699  0.2286
   24SAPC  H17X 3243   5.887   2.331   8.963 -0.2504 -0.6041  1.3825
   24SAPC  H17Y 3244   5.817   2.493   8.920 -0.5285  0.0851 -0.6275
   24SAPC  C318 3245   5.748   2.318   8.813 -0.4851 -0.3535 -0.5288
   24SAPC  H18X 3246   5.812   2.368   8.737 -1.1534  2.1599  0.4603
   24SAPC  H18Y 3247   5.642   2.352   8.806 -0.8369 -1.3111 -0.0168
   24SAPC  H18Z 3248   5.753   2.207   8.801 -2.0886 -0.7985  2.0443
   25SAPC     N 3249   3.401   5.812   6.045 -0.3211  0.1817 -0.1037
   25SAPC   C12 3250   3.475   5.716   5.950  0.4123 -0.7488 -0.4280
   25SAPC  H12A 3251   3.418   5.716   5.858 -1.2894  0.8889  0.5358
   25SAPC  H12B 3252   3.462   5.620   5.997 -0.2738 -0.3967  0.1344
   25SAPC   C13 3253   3.365   5.943   5.970  0.2561  0.8339  0.1673
   25SAPC  H13A 3254   3.294   5.911   5.895  2.9443  0.6739 -2.5095
   25SAPC  H13B 3255   3.314   6.021   6.026  1.6332  2.5342 -0.8641
   25SAPC  H13C 3256   3.445   5.977   5.907 -0.1370 -1.8548 -1.9434
   25SAPC   C14 3257   3.282   5.752   6.109  0.2071  0.2718 -0.1319
   25SAPC  H14A 3258   3.299   5.671   6.178  0.3740  0.8689  0.5454
   25SAPC  H14B 3259   3.219   5.823   6.160 -1.1717 -0.0406 -1.3307
   25SAPC  H14C 3260   3.213   5.717   6.034 -1.4967 -0.6142  1.7770
   25SAPC   C15 3261   3.501   5.843   6.158  0.0057  0.6032 -0.5276
   25SAPC  H15A 3262   3.523   5.758   6.221  0.7885  1.5136  0.4563
   25SAPC  H15B 3263   3.584   5.895   6.112  1.5695 -0.4327  0.9828
   25SAPC  H15C 3264   3.457   5.926   6.211 -1.1847 -0.4850  0.2485
   25SAPC   C11 3265   3.620   5.735   5.914 -0.6926 -1.3160  0.3316
   25SAPC  H11A 3266   3.655   5.652   5.849 -0.1389 -1.7657  1.1770
   25SAPC  H11B 3267   3.681   5.736   6.008  0.2857  2.4301 -0.1509
   25SAPC     P 3268   3.737   5.979   5.881  0.3259 -0.1953  0.3471
   25SAPC   O13 3269   3.859   5.966   5.803 -0.1361  0.4670 -0.0831
   25SAPC   O14 3270   3.663   6.107   5.880  0.3349 -0.0814  0.1960
   25SAPC   O12 3271   3.635   5.859   5.842 -0.0814  0.0878  0.1768
   25SAPC   O11 3272   3.764   5.945   6.034  0.2456 -0.3972  0.0473
   25SAPC    C1 3273   3.783   6.051   6.133 -0.0360 -0.1627 -0.2484
   25SAPC    HA 3274   3.872   6.113   6.106 -0.4957  0.9061  0.5982
   25SAPC    HB 3275   3.692   6.114   6.143  0.5786  0.7835 -0.4193
   25SAPC    C2 3276   3.820   5.997   6.279 -0.0034  0.3614  1.0123
   25SAPC    HS 3277   3.924   5.963   6.260 -0.1017  1.2128 -1.4618
   25SAPC   O21 3278   3.734   5.888   6.326 -0.2162  0.1015  0.8288
   25SAPC   C21 3279   3.791   5.778   6.362  0.4461  0.5015 -0.1507
   25SAPC   O22 3280   3.909   5.746   6.335 -0.5467  0.1086  0.5504
   25SAPC   C22 3281   3.712   5.699   6.467 -0.1391 -0.2681  0.8838
   25SAPC   H2R 3282   3.626   5.759   6.506 -0.1324  1.1038 -1.0654
   25SAPC   H2S 3283   3.681   5.603   6.422  1.5181 -0.0485 -0.8180
   25SAPC    C3 3284   3.814   6.114   6.377 -0.1939 -0.0961  0.6746
   25SAPC    HX 3285   3.708   6.147   6.367  0.1089  1.0196  0.9335
   25SAPC    HY 3286   3.861   6.206   6.336 -0.6111  0.3482  1.1843
   25SAPC   O31 3287   3.850   6.085   6.514 -0.3752  0.3804 -0.2824
   25SAPC   C31 3288   3.986   6.087   6.530  0.1942  0.2593 -0.1243
   25SAPC   O32 3289   4.062   6.103   6.441 -0.1817 -0.7171 -0.0551
   25SAPC   C32 3290   4.025   6.060   6.674 -0.5833 -0.7081 -0.7535
   25SAPC   H2X 3291   4.126   6.017   6.688  0.0630  1.3311  1.6540
   25SAPC   H2Y 3292   3.970   5.979   6.727  1.5248 -1.3739  0.5353
   25SAPC   C23 3293   3.797   5.682   6.589  0.0135 -0.5550 -0.2434
   25SAPC   H3R 3294   3.831   5.776   6.637 -1.2533 -0.6983  0.9563
   25SAPC   H3S 3295   3.890   5.625   6.567 -0.3683 -1.9112  1.4423
   25SAPC   C24 3296   3.738   5.585   6.698  0.8660  0.1774 -0.2752
   25SAPC   H4R 3297   3.820   5.554   6.765  1.8758  2.4951 -0.3482
   25SAPC   H4S 3298   3.689   5.500   6.646 -3.0436  0.3929  2.6398
   25SAPC   C25 3299   3.616   5.655   6.761 -0.2139 -0.6240  0.4421
   25SAPC   H5R 3300   3.539   5.663   6.683 -0.1326  2.5566  0.5366
   25SAPC   C26 3301   3.605   5.704   6.890  0.1606 -0.4207  0.1945
   25SAPC   H6R 3302   3.508   5.747   6.920  0.3757  0.9286 -0.9305
   25SAPC   C27 3303   3.706   5.668   6.995  0.3498  0.1666  0.0311
   25SAPC   H7R 3304   3.801   5.719   6.969  0.2138 -0.0525 -0.9245
   25SAPC   H7S 3305   3.728   5.559   6.988  0.5082  0.2700 -1.3267
   25SAPC   C28 3306   3.670   5.689   7.140  0.5359 -0.4183 -0.5201
   25SAPC   H8R 3307   3.726   5.767   7.193 -0.7177 -0.3473  0.7713
   25SAPC   C29 3308   3.579   5.620   7.216 -1.0213 -0.9924 -0.8384
   25SAPC   H9R 3309   3.577   5.650   7.322  2.1450  1.4789 -1.3279
   25SAPC  C210 3310   3.500   5.502   7.191  0.4164  0.4690  0.6226
   25SAPC  H10R 3311   3.504   5.437   7.281 -3.1489 -1.6003 -0.4935
   25SAPC  H10S 3312   3.528   5.450   7.097 -0.9152 -1.3577  1.1806
   25SAPC  C211 3313   3.357   5.545   7.174 -0.0791  0.3239  0.0170
   25SAPC  H11R 3314   3.338   5.578   7.071 -0.0395 -1.8985 -0.7538
   25SAPC  C212 3315   3.261   5.545   7.267 -0.2352  0.5519  0.0057
   25SAPC  H12R 3316   3.158   5.569   7.237 -0.2480 -1.3445 -1.6733
   25SAPC  C213 3317   3.283   5.492   7.407  0.1591  0.0917  0.1415
   25SAPC  H13R 3318   3.382   5.519   7.449 -0.1532  0.3484  0.7390
   25SAPC  H13S 3319   3.286   5.381   7.403  0.5118  0.0909  0.4146
   25SAPC  C214 3320   3.160   5.522   7.498 -0.7048 -0.5377  0.5196
   25SAPC  H14R 3321   3.058   5.505   7.460  0.0778 -2.9643 -0.7544
   25SAPC  C215 3322   3.164   5.569   7.625 -0.3113 -0.2049  0.3626
   25SAPC  H15R 3323   3.072   5.582   7.683  0.8502  1.8515  1.8814
   25SAPC  C216 3324   3.297   5.594   7.705  0.0301 -0.3084  0.3127
   25SAPC  H16R 3325   3.276   5.684   7.768 -0.4612  0.5283 -0.9991
   25SAPC  H16S 3326   3.389   5.621   7.649 -0.9078 -1.0300 -1.6688
   25SAPC  C217 3327   3.344   5.478   7.789  0.9865  0.3509  0.8570
   25SAPC  H17R 3328   3.447   5.505   7.821  1.2592 -0.1493  0.4074
   25SAPC  H17S 3329   3.343   5.383   7.731 -1.0551  0.3842  0.7607
   25SAPC  C218 3330   3.265   5.461   7.920 -0.1055 -0.1344 -0.3990
   25SAPC  H18R 3331   3.177   5.399   7.888 -0.6336  0.4881 -0.1744
   25SAPC  H18S 3332   3.232   5.558   7.961  0.6666 -0.3552  0.7745
   25SAPC  C219 3333   3.346   5.386   8.026  0.6573  0.0131  0.1133
   25SAPC  H19R 3334   3.281   5.340   8.104  0.0726  0.9852  0.2265
   25SAPC  H19S 3335   3.405   5.468   8.070  0.6334  0.5935 -0.8970
   25SAPC  C220 3336   3.436   5.272   7.988  0.5700  0.1076 -0.0007
   25SAPC  H20R 3337   3.516   5.309   7.920  1.0605 -0.5541  0.2065
   25SAPC  H20S 3338   3.380   5.192   7.934  1.1094  1.0176 -2.0402
   25SAPC  H20T 3339   3.468   5.223   8.082 -1.0581  2.7709  2.0909
   25SAPC   C33 3340   4.005   6.189   6.759  0.6072  0.5500  1.0475
   25SAPC   H3X 3341   3.902   6.230   6.755 -0.1389 -1.2182  0.8120
   25SAPC   H3Y 3342   4.072   6.267   6.717  1.6793 -0.7617  0.1925
   25SAPC   C34 3343   4.049   6.164   6.903 -0.0200  0.6875  0.2100
   25SAPC   H4X 3344   4.070   6.259   6.957 -2.1364  0.4791  1.5299
   25SAPC   H4Y 3345   4.136   6.096   6.897 -2.4385 -2.7896  1.4087
   25SAPC   C35 3346   3.932   6.094   6.971  0.7394 -0.4735 -0.1153
   25SAPC   H5X 3347   3.872   6.019   6.914  0.9961 -0.8697  0.1281
   25SAPC   H5Y 3348   3.864   6.176   7.004  0.2248 -1.5833  1.7571
   25SAPC   C36 3349   3.971   6.045   7.115 -0.9923  1.0015 -0.8544
   25SAPC   H6X 3350   4.039   6.119   7.161  1.4012  0.0356 -2.6080
   25SAPC   H6Y 3351   4.025   5.948   7.104  0.4031  1.1390  3.1531
   25SAPC   C37 3352   3.848   6.032   7.202 -0.4356 -0.0759  0.1050
   25SAPC   H7X 3353   3.786   5.950   7.159 -2.2521  0.2858  1.8969
   25SAPC   H7Y 3354   3.788   6.124   7.194  1.8938  1.4090 -1.8428
   25SAPC   C38 3355   3.878   5.992   7.350 -0.0190 -0.4109  0.0374
   25SAPC   H8X 3356   3.927   6.083   7.391  1.9600 -2.5609  2.7385
   25SAPC   H8Y 3357   3.959   5.917   7.357  1.5043  1.2624  1.5698
   25SAPC   C39 3358   3.755   5.970   7.432  0.0337  0.1525  0.1435
   25SAPC   H9X 3359   3.703   5.881   7.392  0.8179  0.0942 -0.7771
   25SAPC   H9Y 3360   3.698   6.065   7.433  2.2075  1.6364 -2.2588
   25SAPC  C310 3361   3.784   5.950   7.585 -0.1434 -0.0587  0.2488
   25SAPC  H10X 3362   3.727   6.024   7.645  1.7168  1.1114  0.6564
   25SAPC  H10Y 3363   3.892   5.969   7.604  0.4071  0.1557 -2.6568
   25SAPC  C311 3364   3.744   5.805   7.637 -0.5647  0.2097 -0.1617
   25SAPC  H11X 3365   3.817   5.732   7.599 -1.4300 -0.6141 -0.2806
   25SAPC  H11Y 3366   3.643   5.777   7.601 -0.6447 -0.3545  0.4740
   25SAPC  C312 3367   3.741   5.786   7.791 -0.2227 -0.5278  0.4775
   25SAPC  H12X 3368   3.692   5.688   7.807  2.0644 -1.5807  1.4943
   25SAPC  H12Y 3369   3.671   5.861   7.834  0.5249  0.0985  0.6354
   25SAPC  C313 3370   3.875   5.784   7.853 -0.3731 -0.2253  0.0400
   25SAPC  H13X 3371   3.927   5.875   7.817 -1.4927  0.8026  0.9345
   25SAPC  H13Y 3372   3.937   5.700   7.814 -3.3375 -2.2134 -0.7499
   25SAPC  C314 3373   3.867   5.807   8.009  0.0868 -0.2688  0.4809
   25SAPC  H14X 3374   3.781   5.749   8.050 -0.5244 -0.3367 -0.8341
   25SAPC  H14Y 3375   3.845   5.915   8.022 -0.3108 -0.2794 -0.0793
   25SAPC  C315 3376   3.999   5.795   8.081 -0.9345 -0.2927 -0.4861
   25SAPC  H15X 3377   4.077   5.841   8.017 -0.3988 -0.9735 -0.3377
   25SAPC  H15Y 3378   4.028   5.690   8.104  2.8293  1.2097  2.9481
   25SAPC  C316 3379   4.006   5.897   8.201 -0.1957 -0.2879  0.9268
   25SAPC  H16X 3380   3.909   5.903   8.254 -0.5947 -2.0493  0.4833
   25SAPC  H16Y 3381   4.035   5.997   8.163  1.0986 -1.3948 -1.2163
   25SAPC  C317 3382   4.114   5.848   8.298 -0.3699 -0.4261  0.2093
   25SAPC  H17X 3383   4.094   5.748   8.341  3.1683 -1.1134  0.5837
   25SAPC  H17Y 3384   4.107   5.911   8.390  0.9023  1.9478 -1.2036
   25SAPC  C318 3385   4.262   5.852   8.240  0.1037  0.4677  0.1818
   25SAPC  H18X 3386   4.282   5.949   8.190 -0.4173  0.3748 -0.2161
   25SAPC  H18Y 3387   4.294   5.773   8.169  0.4902  1.4638 -0.7700
   25SAPC  H18Z 3388   4.331   5.835   8.326 -1.2539 -0.8652  1.0530
   26SAPC     N 3389   2.677   5.954   5.628 -0.9702 -0.0857 -0.1336
   26SAPC   C12 3390   2.672   5.958   5.783  0.0835  0.3746  0.0819
   26SAPC  H12A 3391   2.764   5.999   5.821 -1.0328  1.0711  2.2206
   26SAPC  H12B 3392   2.668   5.855   5.817  0.0403  0.5857  0.7221
   26SAPC   C13 3393   2.716   6.088   5.580  0.3131 -0.0695  0.5075
   26SAPC  H13A 3394   2.802   6.140   5.621  1.6269 -0.3295 -1.7697
   26SAPC  H13B 3395   2.729   6.078   5.474 -0.4851 -1.7810  0.5264
   26SAPC  H13C 3396   2.641   6.160   5.607  0.4737  0.3909 -0.2476
   26SAPC   C14 3397   2.793   5.862   5.597  0.4710 -0.1377  0.0609
   26SAPC  H14A 3398   2.767   5.761   5.626 -2.3339  0.3909 -0.3131
   26SAPC  H14B 3399   2.819   5.870   5.492 -1.7785 -1.7011 -0.6977
   26SAPC  H14C 3400   2.883   5.892   5.648  0.2843  0.2594  0.1607
   26SAPC   C15 3401   2.549   5.927   5.564  0.3790 -0.1554  1.0136
   26SAPC  H15A 3402   2.476   6.000   5.595 -0.0130 -0.8381  1.7158
   26SAPC  H15B 3403   2.546   5.914   5.457  0.3974 -0.6387  1.0724
   26SAPC  H15C 3404   2.503   5.837   5.599  0.6956 -1.1863 -1.0591
   26SAPC   C11 3405   2.563   6.037   5.841 -0.0406  0.6055 -0.8801
   26SAPC  H11A 3406   2.569   6.033   5.952  0.8364  0.8802 -0.9071
   26SAPC  H11B 3407   2.471   5.981   5.813 -0.4158  0.2673  0.9014
   26SAPC     P 3408   2.634   6.299   5.841  0.5367  0.6116  0.2482
   26SAPC   O13 3409   2.767   6.260   5.893  0.3504 -0.1163 -0.2027
   26SAPC   O14 3410   2.629   6.410   5.743 -0.1025  0.3610 -0.4365
   26SAPC   O12 3411   2.558   6.170   5.797  0.3920  0.6738  0.3696
   26SAPC   O11 3412   2.550   6.340   5.970  0.2172 -0.3193 -0.0610
   26SAPC    C1 3413   2.417   6.377   5.981 -0.0325 -0.0541 -0.3591
   26SAPC    HA 3414   2.402   6.482   5.947  0.1025 -0.0683 -0.4609
   26SAPC    HB 3415   2.349   6.321   5.914 -1.1761  1.1228 -0.2359
   26SAPC    C2 3416   2.368   6.370   6.127  0.6409  0.0142  0.0491
   26SAPC    HS 3417   2.424   6.449   6.182 -1.2551  0.8474  0.8913
   26SAPC   O21 3418   2.403   6.243   6.186 -0.2477  0.4550  0.4219
   26SAPC   C21 3419   2.434   6.246   6.311  0.4020  0.1620 -0.2749
   26SAPC   O22 3420   2.435   6.349   6.382 -0.7080 -0.2614  0.2179
   26SAPC   C22 3421   2.465   6.104   6.352 -0.6880 -0.0721 -0.3038
   26SAPC   H2R 3422   2.423   6.035   6.275 -2.2121 -0.9956  1.2685
   26SAPC   H2S 3423   2.576   6.112   6.351 -0.8101  2.0766 -0.5711
   26SAPC    C3 3424   2.217   6.406   6.126  0.2142  0.3702  0.3426
   26SAPC    HX 3425   2.170   6.311   6.092  0.3679 -0.2555  1.7780
   26SAPC    HY 3426   2.190   6.479   6.047  2.1678 -0.0097 -0.7262
   26SAPC   O31 3427   2.159   6.425   6.259  0.1391  0.0818  0.2165
   26SAPC   C31 3428   2.186   6.546   6.301 -0.6254  0.4889  0.0758
   26SAPC   O32 3429   2.245   6.635   6.240  0.4654 -0.3257 -0.2175
   26SAPC   C32 3430   2.119   6.558   6.432  0.5197 -0.4271  0.0758
   26SAPC   H2X 3431   2.159   6.477   6.496  0.3421  0.7942  1.8252
   26SAPC   H2Y 3432   2.012   6.539   6.408  0.6760 -1.6082  0.2561
   26SAPC   C23 3433   2.400   6.066   6.490  0.1420 -0.3988 -0.0071
   26SAPC   H3R 3434   2.295   6.033   6.477  0.1298 -0.8280  1.0670
   26SAPC   H3S 3435   2.394   6.158   6.552  1.6460 -0.9112  0.9571
   26SAPC   C24 3436   2.468   5.944   6.559  0.0053  0.3862 -0.1246
   26SAPC   H4R 3437   2.476   5.869   6.478 -0.9925 -0.4592  0.5398
   26SAPC   H4S 3438   2.394   5.895   6.625  0.0756 -1.9695 -1.7013
   26SAPC   C25 3439   2.607   5.972   6.616 -0.1709 -0.7923  0.2310
   26SAPC   H5R 3440   2.675   6.030   6.552  1.5874 -2.6048  0.3710
   26SAPC   C26 3441   2.632   5.958   6.747 -0.2859 -0.0499 -0.2005
   26SAPC   H6R 3442   2.733   5.983   6.782 -0.6678  1.8174 -0.3633
   26SAPC   C27 3443   2.556   5.892   6.850  0.1488  0.0155  0.4270
   26SAPC   H7R 3444   2.510   5.798   6.812  3.1085 -1.9008  1.2735
   26SAPC   H7S 3445   2.473   5.957   6.884  1.6205  0.7006  2.9833
   26SAPC   C28 3446   2.643   5.847   6.971  0.9082  1.0778 -0.2960
   26SAPC   H8R 3447   2.712   5.765   6.944  0.7891 -0.1738  2.8407
   26SAPC   C29 3448   2.646   5.886   7.100 -0.0829 -0.6521 -0.6213
   26SAPC   H9R 3449   2.720   5.833   7.161  0.2715  1.5771  1.0213
   26SAPC  C210 3450   2.551   5.981   7.177  0.3489  0.2207 -0.0265
   26SAPC  H10R 3451   2.465   6.010   7.114  1.3991 -1.6307 -2.5067
   26SAPC  H10S 3452   2.604   6.076   7.202  1.5381  0.0745 -1.7591
   26SAPC  C211 3453   2.502   5.918   7.313  0.3256 -0.4713  0.0087
   26SAPC  H11R 3454   2.436   5.830   7.305 -1.6969  0.9303  0.6446
   26SAPC  C212 3455   2.540   5.960   7.436  0.0012  0.0730  0.0096
   26SAPC  H12R 3456   2.508   5.899   7.522 -2.5300 -0.4073 -1.1940
   26SAPC  C213 3457   2.633   6.077   7.471 -0.3982 -0.5376  0.6223
   26SAPC  H13R 3458   2.733   6.056   7.429 -0.6937  1.6379 -1.3839
   26SAPC  H13S 3459   2.649   6.066   7.581 -2.6951  1.1714  1.2184
   26SAPC  C214 3460   2.597   6.219   7.431  0.2308  0.3253  0.2904
   26SAPC  H14R 3461   2.490   6.241   7.434  0.3565  0.8633  1.2868
   26SAPC  C215 3462   2.680   6.318   7.377  0.2899  0.6122 -0.2003
   26SAPC  H15R 3463   2.634   6.413   7.347 -0.5363  0.4563  0.5274
   26SAPC  C216 3464   2.827   6.295   7.356 -0.0807  0.0956 -0.9379
   26SAPC  H16R 3465   2.866   6.223   7.431  1.5687 -2.2999 -3.8769
   26SAPC  H16S 3466   2.888   6.386   7.373 -1.8792  1.3032 -0.7043
   26SAPC  C217 3467   2.846   6.220   7.221  0.4184 -0.2668 -0.1708
   26SAPC  H17R 3468   2.796   6.121   7.228  1.6876 -0.8412  1.4345
   26SAPC  H17S 3469   2.953   6.196   7.205  0.1862 -1.0062 -0.6316
   26SAPC  C218 3470   2.783   6.300   7.099  0.5828 -0.4078 -0.4812
   26SAPC  H18R 3471   2.831   6.400   7.095  1.4991 -0.8676 -1.2908
   26SAPC  H18S 3472   2.674   6.320   7.106  0.5586 -0.0369 -1.7286
   26SAPC  C219 3473   2.813   6.227   6.965  0.4405  0.3961  0.2908
   26SAPC  H19R 3474   2.778   6.123   6.982  1.2499  0.0868  0.0734
   26SAPC  H19S 3475   2.924   6.219   6.966  0.3338 -1.6034  0.7252
   26SAPC  C220 3476   2.764   6.302   6.842  0.1341  0.0093  0.6269
   26SAPC  H20R 3477   2.810   6.265   6.748 -2.2000  0.1384 -0.6426
   26SAPC  H20S 3478   2.785   6.411   6.850 -1.3261  0.2204  2.2832
   26SAPC  H20T 3479   2.654   6.287   6.830  0.2261  0.1213 -0.5121
   26SAPC   C33 3480   2.148   6.695   6.497  0.4218 -0.1315 -0.7284
   26SAPC   H3X 3481   2.102   6.778   6.437 -0.6530  0.0092  0.2553
   26SAPC   H3Y 3482   2.255   6.719   6.513  0.5246 -0.9215 -0.1935
   26SAPC   C34 3483   2.076   6.711   6.636 -0.5827  0.2848  0.8531
   26SAPC   H4X 3484   1.976   6.664   6.632 -0.8921  1.0253 -0.5168
   26SAPC   H4Y 3485   2.057   6.820   6.642  0.7238  0.5285  0.9780
   26SAPC   C35 3486   2.161   6.657   6.758 -0.9523  0.2253 -0.0853
   26SAPC   H5X 3487   2.252   6.718   6.778  0.5195 -1.9140  0.0974
   26SAPC   H5Y 3488   2.196   6.556   6.730  0.4370  0.3927  0.9456
   26SAPC   C36 3489   2.087   6.658   6.889  0.3375 -0.4410 -1.0851
   26SAPC   H6X 3490   2.164   6.608   6.951  1.3006  1.8878 -0.2696
   26SAPC   H6Y 3491   1.994   6.599   6.878  0.0637 -0.3725  0.6502
   26SAPC   C37 3492   2.053   6.799   6.948 -0.3063 -0.4316  0.3305
   26SAPC   H7X 3493   1.988   6.846   6.871 -0.6080  0.9945  1.4171
   26SAPC   H7Y 3494   2.147   6.857   6.963  0.4032 -1.4115 -0.1142
   26SAPC   C38 3495   1.977   6.795   7.082  0.2342  0.8853  0.1380
   26SAPC   H8X 3496   2.040   6.735   7.152  1.6464  0.8942 -1.0856
   26SAPC   H8Y 3497   1.880   6.746   7.058  0.9271 -0.2026 -0.4956
   26SAPC   C39 3498   1.941   6.934   7.136  0.7455  0.2488  0.8785
   26SAPC   H9X 3499   1.868   6.981   7.066 -0.1066 -0.6335  1.1617
   26SAPC   H9Y 3500   2.038   6.985   7.155  0.4901  0.1096  2.6834
   26SAPC  C310 3501   1.860   6.927   7.264 -0.2141  0.5475 -0.0928
   26SAPC  H10X 3502   1.771   6.860   7.257  0.2005 -0.0963  0.5938
   26SAPC  H10Y 3503   1.826   7.031   7.281 -0.8060  0.4763 -0.7827
   26SAPC  C311 3504   1.944   6.878   7.392  1.0143 -0.0615 -0.1640
   26SAPC  H11X 3505   2.025   6.951   7.412  2.8048 -1.6105 -1.3977
   26SAPC  H11Y 3506   1.991   6.780   7.367  0.3812 -0.5182  0.3951
   26SAPC  C312 3507   1.869   6.857   7.525  0.1707  0.6502 -0.0907
   26SAPC  H12X 3508   1.932   6.798   7.595  0.1831  1.5191  0.6375
   26SAPC  H12Y 3509   1.779   6.792   7.523  1.3776 -1.3751  3.0736
   26SAPC  C313 3510   1.844   6.989   7.597 -0.2489  0.1321 -0.1464
   26SAPC  H13X 3511   1.762   7.055   7.561 -2.0449  0.2873  3.7376
   26SAPC  H13Y 3512   1.940   7.044   7.578 -1.0706  1.0110 -2.0639
   26SAPC  C314 3513   1.838   6.981   7.753 -0.1636  0.0703  0.0574
   26SAPC  H14X 3514   1.917   6.912   7.790  1.2615  0.7895 -1.4940
   26SAPC  H14Y 3515   1.738   6.935   7.766  0.3093 -1.5775 -1.7156
   26SAPC  C315 3516   1.841   7.122   7.810 -0.3772 -0.5628 -0.8783
   26SAPC  H15X 3517   1.769   7.200   7.779  0.9215  0.5526 -1.1692
   26SAPC  H15Y 3518   1.937   7.173   7.787 -0.6323 -0.2340 -1.2049
   26SAPC  C316 3519   1.827   7.124   7.965 -0.6344  0.8659  0.4346
   26SAPC  H16X 3520   1.803   7.224   8.009 -2.1232  0.6274  0.2418
   26SAPC  H16Y 3521   1.917   7.084   8.016 -0.8258 -0.2834 -0.0996
   26SAPC  C317 3522   1.691   7.063   8.012 -0.3969  0.4941 -1.2749
   26SAPC  H17X 3523   1.686   7.058   8.123  0.3477  0.2748 -1.2399
   26SAPC  H17Y 3524   1.705   6.955   7.987 -2.6692 -0.5853  1.5494
   26SAPC  C318 3525   1.565   7.132   7.959  0.1152  0.0564  0.2483
   26SAPC  H18X 3526   1.485   7.134   8.036 -0.3302  0.7105 -0.2197
   26SAPC  H18Y 3527   1.541   7.078   7.865  0.2927 -0.9177  0.7510
   26SAPC  H18Z 3528   1.587   7.239   7.943 -1.0773  0.4426  1.0530
   27SAPC     N 3529   1.902   1.756   5.681  0.6362  0.6096  1.0763
   27SAPC   C12 3530   1.876   1.761   5.824 -0.5198 -0.3020 -0.6752
   27SAPC  H12A 3531   1.959   1.723   5.881 -1.2342  2.2466  2.3510
   27SAPC  H12B 3532   1.792   1.700   5.855 -1.8746  1.0476 -1.5711
   27SAPC   C13 3533   2.034   1.814   5.641  0.2150  0.4342 -0.5653
   27SAPC  H13A 3534   2.042   1.807   5.534 -1.9938 -0.2778 -0.7493
   27SAPC  H13B 3535   2.035   1.918   5.668  0.3218 -0.2450  2.4270
   27SAPC  H13C 3536   2.115   1.767   5.695 -0.5556 -1.7079 -1.1802
   27SAPC   C14 3537   1.903   1.608   5.648  0.7625 -0.4485  0.3902
   27SAPC  H14A 3538   1.907   1.596   5.541 -1.2416  0.4635  0.1519
   27SAPC  H14B 3539   1.976   1.553   5.705  2.6914  2.8770  1.3899
   27SAPC  H14C 3540   1.806   1.565   5.666 -0.6305  1.1888 -2.4424
   27SAPC   C15 3541   1.797   1.832   5.608 -0.0622  0.8124 -0.9579
   27SAPC  H15A 3542   1.774   1.931   5.643 -0.6651  0.2546  0.2856
   27SAPC  H15B 3543   1.822   1.840   5.503  1.2636 -0.1857 -0.7472
   27SAPC  H15C 3544   1.698   1.788   5.609 -0.7503  2.1862 -2.8163
   27SAPC   C11 3545   1.853   1.899   5.889 -0.4066 -0.5767 -0.3099
   27SAPC  H11A 3546   1.929   1.969   5.852  1.4351 -2.8289 -1.0294
   27SAPC  H11B 3547   1.870   1.890   5.999 -2.5982 -2.0622 -0.0155
   27SAPC     P 3548   1.599   1.872   5.950 -0.1743 -0.3731 -0.0132
   27SAPC   O13 3549   1.477   1.944   5.931 -0.2197  0.1428  0.1995
   27SAPC   O14 3550   1.595   1.731   5.901 -0.4496  0.0418 -0.7773
   27SAPC   O12 3551   1.717   1.948   5.878 -0.4772  0.3564 -0.0342
   27SAPC   O11 3552   1.630   1.878   6.105  0.3352 -0.2862 -0.8694
   27SAPC    C1 3553   1.619   2.001   6.175  0.3782 -0.7494 -0.1195
   27SAPC    HA 3554   1.709   2.006   6.239  0.7666  0.0144 -0.7035
   27SAPC    HB 3555   1.614   2.091   6.110 -0.7397  0.3144  1.3569
   27SAPC    C2 3556   1.489   2.011   6.257 -0.5421 -0.3435 -0.1297
   27SAPC    HS 3557   1.423   2.085   6.207 -1.6195  0.3633  2.1885
   27SAPC   O21 3558   1.524   2.056   6.391 -0.4750  0.2329 -0.0589
   27SAPC   C21 3559   1.509   2.187   6.419 -0.8661 -0.3420 -0.5691
   27SAPC   O22 3560   1.467   2.265   6.338 -0.1336 -0.5249 -0.3743
   27SAPC   C22 3561   1.553   2.218   6.561  0.2590  0.2748 -0.5789
   27SAPC   H2R 3562   1.650   2.164   6.559 -0.9345 -1.9784 -2.3624
   27SAPC   H2S 3563   1.588   2.324   6.569 -0.7960  0.5162  1.5245
   27SAPC    C3 3564   1.397   1.892   6.275 -0.8303  0.5634 -0.4026
   27SAPC    HX 3565   1.455   1.822   6.337  0.7067  0.6334 -1.7081
   27SAPC    HY 3566   1.373   1.844   6.177  2.5263  1.8834 -2.0319
   27SAPC   O31 3567   1.282   1.926   6.356 -0.3871  0.0091  0.5108
   27SAPC   C31 3568   1.236   1.830   6.432 -0.3598  0.3534  1.1554
   27SAPC   O32 3569   1.273   1.713   6.432 -0.2831  0.1708  0.2359
   27SAPC   C32 3570   1.144   1.897   6.530  0.2949 -0.2703  0.4245
   27SAPC   H2X 3571   1.066   1.949   6.471  1.2523  0.8514  0.1010
   27SAPC   H2Y 3572   1.194   1.984   6.577  2.0925  0.4038 -2.4842
   27SAPC   C23 3573   1.461   2.182   6.681  0.3019  0.1234  0.8236
   27SAPC   H3R 3574   1.462   2.071   6.688 -1.1087 -0.2151 -2.4650
   27SAPC   H3S 3575   1.358   2.194   6.640  0.2807  0.3378  0.9360
   27SAPC   C24 3576   1.460   2.266   6.805 -0.3844 -0.4770 -0.0939
   27SAPC   H4R 3577   1.373   2.254   6.873  1.7015 -1.8899  2.5009
   27SAPC   H4S 3578   1.454   2.367   6.759 -2.0675 -1.1485 -1.4551
   27SAPC   C25 3579   1.596   2.243   6.869  0.7507  0.5964 -0.0220
   27SAPC   H5R 3580   1.677   2.300   6.820 -0.5116  2.5754  0.0645
   27SAPC   C26 3581   1.621   2.162   6.963  0.1872 -0.0931 -0.6720
   27SAPC   H6R 3582   1.721   2.166   7.009  0.8104 -2.8327 -1.6072
   27SAPC   C27 3583   1.527   2.079   7.046 -0.0932  0.0773  0.6049
   27SAPC   H7R 3584   1.437   2.052   6.987 -1.5749 -0.1538  2.8184
   27SAPC   H7S 3585   1.486   2.136   7.133  1.2998 -2.5914  3.1965
   27SAPC   C28 3586   1.590   1.954   7.102 -0.5723 -0.5779 -0.7146
   27SAPC   H8R 3587   1.642   1.893   7.027 -0.5719 -1.4707  0.0058
   27SAPC   C29 3588   1.591   1.915   7.233 -0.8435  0.2687 -0.5518
   27SAPC   H9R 3589   1.628   1.815   7.261 -0.3928  0.7564  0.6339
   27SAPC  C210 3590   1.515   1.992   7.335  0.5525 -0.4777 -0.2297
   27SAPC  H10R 3591   1.431   2.053   7.296  1.2078  1.1029  0.7337
   27SAPC  H10S 3592   1.587   2.068   7.371 -0.5216 -0.0619  1.1599
   27SAPC  C211 3593   1.470   1.920   7.457 -0.1373 -0.2457  0.4892
   27SAPC  H11R 3594   1.370   1.876   7.445  0.1280 -0.2934 -2.4682
   27SAPC  C212 3595   1.539   1.897   7.574  0.1338 -0.1437 -0.8588
   27SAPC  H12R 3596   1.488   1.854   7.662 -1.3860  1.1094 -1.0812
   27SAPC  C213 3597   1.680   1.940   7.603 -0.2849 -0.5149 -0.4128
   27SAPC  H13R 3598   1.700   2.040   7.559  0.4327 -0.7548 -0.6651
   27SAPC  H13S 3599   1.748   1.874   7.543  0.3278 -1.3346  1.1330
   27SAPC  C214 3600   1.736   1.928   7.743  0.7600 -0.3495 -0.0804
   27SAPC  H14R 3601   1.749   2.025   7.794 -0.1973  0.0613 -0.6100
   27SAPC  C215 3602   1.755   1.810   7.808 -0.1568  0.0986  0.4055
   27SAPC  H15R 3603   1.799   1.815   7.909 -0.6052 -1.9253  0.7369
   27SAPC  C216 3604   1.741   1.672   7.761  0.2812 -0.5574 -0.0400
   27SAPC  H16R 3605   1.846   1.637   7.749 -0.3628 -1.9834 -2.1335
   27SAPC  H16S 3606   1.702   1.656   7.658  1.2471 -3.0923 -0.1068
   27SAPC  C217 3607   1.674   1.569   7.856  0.3717  0.1870 -0.0767
   27SAPC  H17R 3608   1.726   1.579   7.954  0.6629 -1.2462 -0.0682
   27SAPC  H17S 3609   1.704   1.475   7.805  2.3996  1.0531 -0.5938
   27SAPC  C218 3610   1.517   1.588   7.856  0.1134 -0.5164 -0.5560
   27SAPC  H18R 3611   1.495   1.608   7.749 -0.9125 -2.1182 -0.6862
   27SAPC  H18S 3612   1.479   1.662   7.930 -3.1263 -0.5379 -2.0298
   27SAPC  C219 3613   1.446   1.454   7.903  0.3066 -0.1750 -0.1378
   27SAPC  H19R 3614   1.489   1.359   7.864  0.1444 -1.1486  1.9225
   27SAPC  H19S 3615   1.344   1.468   7.862  0.8135  1.2876 -0.9684
   27SAPC  C220 3616   1.450   1.448   8.055 -0.2461 -0.1248 -0.1954
   27SAPC  H20R 3617   1.560   1.438   8.069 -0.1294  2.7081  1.8741
   27SAPC  H20S 3618   1.397   1.353   8.076 -0.4614  0.1564  0.5443
   27SAPC  H20T 3619   1.392   1.530   8.103  1.9154  0.8029  0.9792
   27SAPC   C33 3620   1.079   1.791   6.622  0.3306 -0.0197 -0.6402
   27SAPC   H3X 3621   1.158   1.741   6.682 -1.2179  0.1376  1.6737
   27SAPC   H3Y 3622   1.033   1.707   6.567  0.3174  1.7200 -3.4883
   27SAPC   C34 3623   0.989   1.858   6.723 -0.8580 -0.2140 -0.7934
   27SAPC   H4X 3624   0.907   1.788   6.751 -1.3576  1.2975  1.7903
   27SAPC   H4Y 3625   0.936   1.944   6.677 -2.0234 -0.4918 -0.0270
   27SAPC   C35 3626   1.078   1.899   6.847  0.4236  0.2265  0.0661
   27SAPC   H5X 3627   1.152   1.977   6.819 -0.6579  2.0139  1.9092
   27SAPC   H5Y 3628   1.130   1.803   6.871  1.8862  1.0998  0.5356
   27SAPC   C36 3629   0.995   1.944   6.964  0.5996  0.3095  0.0765
   27SAPC   H6X 3630   0.917   1.871   6.994  0.3017  0.8272  0.5816
   27SAPC   H6Y 3631   0.944   2.040   6.940 -0.5490 -0.3809 -0.3234
   27SAPC   C37 3632   1.073   1.972   7.092 -0.6226  0.1409 -0.5978
   27SAPC   H7X 3633   1.143   2.053   7.063 -1.3005  0.4271 -1.4930
   27SAPC   H7Y 3634   1.133   1.884   7.125 -0.4572  0.7184  0.7037
   27SAPC   C38 3635   0.977   1.994   7.212  0.5264 -0.0332  0.5299
   27SAPC   H8X 3636   0.919   1.901   7.231  0.1422 -0.1360 -1.0389
   27SAPC   H8Y 3637   0.890   2.062   7.198 -0.3531 -1.1364  0.4477
   27SAPC   C39 3638   1.050   2.047   7.333 -0.7786 -0.2035  0.3071
   27SAPC   H9X 3639   1.131   2.113   7.297 -0.5041  0.3500  1.8500
   27SAPC   H9Y 3640   1.115   1.973   7.385  0.2128  0.8021  0.5385
   27SAPC  C310 3641   0.966   2.115   7.432  0.8351  0.0886 -0.7398
   27SAPC  H10X 3642   0.881   2.053   7.469  1.5316 -1.0885 -1.0672
   27SAPC  H10Y 3643   0.933   2.201   7.369 -1.4443 -0.3172 -0.2131
   27SAPC  C311 3644   1.046   2.157   7.552 -0.1329  0.3176  0.7463
   27SAPC  H11X 3645   0.983   2.225   7.613  0.8948  0.5396  1.5730
   27SAPC  H11Y 3646   1.137   2.214   7.523  1.7125 -2.0844  1.4995
   27SAPC  C312 3647   1.101   2.043   7.652 -0.3216  0.3947  0.8655
   27SAPC  H12X 3648   1.160   2.094   7.732  0.1631  2.6270 -0.8124
   27SAPC  H12Y 3649   1.173   1.978   7.599  0.3274  0.7943  1.2363
   27SAPC  C313 3650   0.988   1.955   7.711  0.5680 -0.1614 -0.0069
   27SAPC  H13X 3651   1.046   1.865   7.740  0.9145 -1.5189 -4.2022
   27SAPC  H13Y 3652   0.922   1.906   7.636  0.3958  1.7664 -1.1807
   27SAPC  C314 3653   0.912   2.031   7.828  0.3301  0.2484  0.2587
   27SAPC  H14X 3654   0.811   2.071   7.801 -0.6015 -0.9436  1.7978
   27SAPC  H14Y 3655   0.979   2.113   7.861  0.0257  0.2229  0.9489
   27SAPC  C315 3656   0.876   1.938   7.946 -0.1414  0.1763 -0.3636
   27SAPC  H15X 3657   0.971   1.929   8.003 -0.7600  1.7442  0.9957
   27SAPC  H15Y 3658   0.838   1.840   7.909 -0.7928 -0.5588  2.0216
   27SAPC  C316 3659   0.775   1.987   8.052  0.0551 -0.4478 -0.0391
   27SAPC  H16X 3660   0.673   1.993   8.010 -0.8285 -0.7998  1.9554
   27SAPC  H16Y 3661   0.798   2.091   8.085 -1.3675  0.2737 -1.2384
   27SAPC  C317 3662   0.766   1.894   8.168 -0.1298 -0.1556 -0.1299
   27SAPC  H17X 3663   0.866   1.872   8.212  0.8067  1.5772 -1.3063
   27SAPC  H17Y 3664   0.738   1.800   8.116 -1.3871  0.4877 -0.6395
   27SAPC  C318 3665   0.679   1.934   8.281 -0.0710  0.1136  0.6556
   27SAPC  H18X 3666   0.697   2.036   8.321  1.3209  0.9993 -1.9960
   27SAPC  H18Y 3667   0.688   1.857   8.361  2.3180 -1.0260 -0.5815
   27SAPC  H18Z 3668   0.573   1.940   8.249 -0.0983  0.4931  0.8219
   28SAPC     N 3669   0.202   6.093   5.873  0.4647  0.0623  0.0687
   28SAPC   C12 3670   0.244   6.227   5.808  0.6545  0.7665 -0.4542
   28SAPC  H12A 3671   0.304   6.217   5.719 -1.1240  1.4504 -1.8114
   28SAPC  H12B 3672   0.309   6.280   5.876  2.7487 -0.0541 -1.7257
   28SAPC   C13 3673   0.111   6.128   5.988  0.8254  0.4161  0.0738
   28SAPC  H13A 3674   0.078   6.034   6.029  1.1072 -0.0652 -0.7766
   28SAPC  H13B 3675   0.151   6.186   6.070  3.3655 -1.1918  0.0844
   28SAPC  H13C 3676   0.024   6.181   5.951 -0.4183  0.7692  3.1775
   28SAPC   C14 3677   0.133   5.996   5.778  0.5258 -0.0367  0.8539
   28SAPC  H14A 3678   0.099   5.905   5.826 -0.9179 -0.0186 -0.0798
   28SAPC  H14B 3679   0.047   6.044   5.734  0.1749 -0.6674  0.8439
   28SAPC  H14C 3680   0.196   5.973   5.693  0.1373  1.0630  0.2436
   28SAPC   C15 3681   0.323   6.040   5.932 -0.1930 -0.4989  0.1913
   28SAPC  H15A 3682   0.363   6.099   6.013  0.7752  0.0377 -0.6672
   28SAPC  H15B 3683   0.316   5.940   5.973  1.2700 -0.8974 -0.4808
   28SAPC  H15C 3684   0.402   6.037   5.859 -2.7495  0.4373 -2.8719
   28SAPC   C11 3685   0.127   6.321   5.763 -0.2082 -0.5132 -0.2351
   28SAPC  H11A 3686   0.060   6.255   5.705 -2.8867  1.3037  0.5972
   28SAPC  H11B 3687   0.165   6.395   5.689  1.8611  0.0562  1.2959
   28SAPC     P 3688  -0.087   6.432   5.875 -0.0010 -0.0289  0.0917
   28SAPC   O13 3689  -0.116   6.516   5.754  0.0515 -0.0959  0.3524
   28SAPC   O14 3690  -0.165   6.302   5.893 -0.2024  0.2432  0.0906
   28SAPC   O12 3691   0.069   6.395   5.874  0.1773 -0.1784  0.3344
   28SAPC   O11 3692  -0.102   6.523   6.005  0.1389  0.4520 -0.4603
   28SAPC    C1 3693   0.007   6.595   6.059 -0.4856 -0.2269 -0.3092
   28SAPC    HA 3694   0.068   6.643   5.979 -2.8355  1.3504 -1.2492
   28SAPC    HB 3695  -0.028   6.678   6.124 -1.6177 -1.8931  1.2915
   28SAPC    C2 3696   0.089   6.503   6.150 -0.7150  0.7180 -0.7131
   28SAPC    HS 3697   0.105   6.411   6.090  0.2333  2.0781 -2.6561
   28SAPC   O21 3698   0.028   6.482   6.277  0.5130 -0.7835  0.0332
   28SAPC   C21 3699   0.048   6.363   6.330 -0.2584  1.4343  0.7732
   28SAPC   O22 3700   0.103   6.268   6.282 -0.6865  0.4483  0.1877
   28SAPC   C22 3701  -0.027   6.360   6.457 -0.1921 -0.0883 -0.0160
   28SAPC   H2R 3702  -0.121   6.414   6.433  0.3221  0.0873 -1.8492
   28SAPC   H2S 3703  -0.030   6.255   6.494 -0.7107  0.4991  1.6537
   28SAPC    C3 3704   0.228   6.564   6.186  0.1724  0.9485 -0.5437
   28SAPC    HX 3705   0.212   6.656   6.245 -0.7264 -0.2072  1.1113
   28SAPC    HY 3706   0.286   6.595   6.097 -1.2992  0.1641 -1.8177
   28SAPC   O31 3707   0.307   6.471   6.262  0.1624 -0.1172  0.2564
   28SAPC   C31 3708   0.387   6.387   6.193 -0.0942  0.4446  0.6807
   28SAPC   O32 3709   0.381   6.366   6.072  0.3323  0.3867  0.1314
   28SAPC   C32 3710   0.479   6.315   6.289 -0.5519 -0.0292 -0.0282
   28SAPC   H2X 3711   0.554   6.393   6.314 -2.3787  2.8557 -2.7750
   28SAPC   H2Y 3712   0.534   6.241   6.228  0.0541 -0.1384  0.6356
   28SAPC   C23 3713   0.053   6.436   6.568 -0.6262 -1.0936 -0.2293
   28SAPC   H3R 3714   0.104   6.526   6.529 -1.4664 -0.3820  0.2720
   28SAPC   H3S 3715   0.128   6.366   6.611  1.8298  1.7980  0.5930
   28SAPC   C24 3716  -0.038   6.474   6.687  0.3523  0.4043  0.8692
   28SAPC   H4R 3717  -0.130   6.524   6.649  0.0921  0.0319  1.0114
   28SAPC   H4S 3718  -0.067   6.375   6.728 -0.2983 -0.5201 -1.6675
   28SAPC   C25 3719   0.031   6.559   6.792 -0.2346 -0.6453  0.3425
   28SAPC   H5R 3720   0.033   6.668   6.777 -2.9216 -0.4996  0.5248
   28SAPC   C26 3721   0.102   6.514   6.894 -0.1462  0.4639  0.3201
   28SAPC   H6R 3722   0.152   6.589   6.957  1.6926 -0.8893  0.5557
   28SAPC   C27 3723   0.125   6.370   6.936 -0.3561 -0.4358 -0.3523
   28SAPC   H7R 3724   0.151   6.305   6.850 -1.0712 -0.3709 -0.6251
   28SAPC   H7S 3725   0.029   6.321   6.965  0.8558 -1.5124  2.1151
   28SAPC   C28 3726   0.221   6.346   7.054  0.2790  0.4368 -0.3606
   28SAPC   H8R 3727   0.327   6.331   7.028  0.5107  0.6039  0.4576
   28SAPC   C29 3728   0.198   6.373   7.184 -0.5208 -0.4923  0.1758
   28SAPC   H9R 3729   0.277   6.357   7.260 -0.2054 -1.7051 -0.3771
   28SAPC  C210 3730   0.058   6.413   7.242  0.0283 -0.7460  0.2336
   28SAPC  H10R 3731  -0.022   6.380   7.173 -1.3538  1.8854  0.4536
   28SAPC  H10S 3732   0.049   6.524   7.244  1.1647 -0.6387  1.8098
   28SAPC  C211 3733   0.022   6.365   7.382  0.1348 -0.0626 -0.0834
   28SAPC  H11R 3734   0.005   6.256   7.383  1.3535 -0.2659  1.2161
   28SAPC  C212 3735   0.008   6.440   7.495 -0.2162 -0.3586 -0.1392
   28SAPC  H12R 3736  -0.008   6.378   7.584 -0.1977 -0.8049 -0.4388
   28SAPC  C213 3737   0.044   6.583   7.526 -0.5012  0.1064 -0.0701
   28SAPC  H13R 3738  -0.036   6.647   7.569  0.9432  1.0066  1.3901
   28SAPC  H13S 3739   0.074   6.634   7.432 -1.2766 -0.2973 -0.5523
   28SAPC  C214 3740   0.169   6.578   7.610 -0.0069 -0.1325  0.7573
   28SAPC  H14R 3741   0.247   6.517   7.561 -0.6599 -1.6683  1.5627
   28SAPC  C215 3742   0.195   6.641   7.729  0.0767 -0.0005  0.4493
   28SAPC  H15R 3743   0.292   6.620   7.777 -0.4674  0.5636  1.8395
   28SAPC  C216 3744   0.096   6.726   7.802 -0.1915  0.2294  0.6489
   28SAPC  H16R 3745   0.049   6.793   7.728  0.4907 -0.1681 -0.1600
   28SAPC  H16S 3746   0.149   6.786   7.880  2.8235 -2.4286  0.8553
   28SAPC  C217 3747  -0.008   6.637   7.863 -0.0750 -0.0133  0.0675
   28SAPC  H17R 3748   0.026   6.571   7.946 -1.5642 -0.8453  0.0546
   28SAPC  H17S 3749  -0.042   6.563   7.788  0.5940 -0.3329  0.0729
   28SAPC  C218 3750  -0.127   6.714   7.904  0.3464  0.1169  0.2563
   28SAPC  H18R 3751  -0.165   6.765   7.813 -1.0780  0.1208  0.8218
   28SAPC  H18S 3752  -0.109   6.787   7.985 -0.1570 -0.6288  1.0527
   28SAPC  C219 3753  -0.224   6.609   7.955  0.6181  0.1122 -0.8383
   28SAPC  H19R 3754  -0.184   6.565   8.048 -0.9275 -2.1593 -1.1596
   28SAPC  H19S 3755  -0.237   6.528   7.879  1.4107  0.0049 -0.8696
   28SAPC  C220 3756  -0.368   6.665   7.987 -0.6027  0.6299 -0.6738
   28SAPC  H20R 3757  -0.423   6.681   7.891  0.9031  0.1138 -1.6600
   28SAPC  H20S 3758  -0.359   6.766   8.032 -1.1061  0.7766 -0.8927
   28SAPC  H20T 3759  -0.418   6.595   8.057  1.0813 -0.9736 -0.9849
   28SAPC   C33 3760   0.400   6.264   6.404  0.4020 -0.6437  0.1030
   28SAPC   H3X 3761   0.338   6.180   6.367 -1.3002  0.4951  0.2658
   28SAPC   H3Y 3762   0.333   6.344   6.441  1.8938  1.0452 -0.6792
   28SAPC   C34 3763   0.497   6.216   6.510  0.2054  0.0576 -0.2198
   28SAPC   H4X 3764   0.567   6.298   6.537  0.4138  0.1172 -0.9274
   28SAPC   H4Y 3765   0.565   6.139   6.466  1.2470  2.2827 -2.7568
   28SAPC   C35 3766   0.423   6.163   6.637  0.2353  0.5430  0.1021
   28SAPC   H5X 3767   0.413   6.053   6.627  0.2494  0.5251  0.2768
   28SAPC   H5Y 3768   0.324   6.212   6.630  0.0567 -0.0930 -4.0006
   28SAPC   C36 3769   0.492   6.207   6.779  0.0987  0.4644  0.1835
   28SAPC   H6X 3770   0.436   6.159   6.862  0.9243  0.6499  0.8622
   28SAPC   H6Y 3771   0.480   6.318   6.783  0.6969  0.7096 -2.6253
   28SAPC   C37 3772   0.642   6.165   6.789  0.0172 -0.1702 -0.3464
   28SAPC   H7X 3773   0.692   6.210   6.701 -0.2550 -0.4486 -0.6460
   28SAPC   H7Y 3774   0.654   6.055   6.785  2.5867 -0.0273  1.3006
   28SAPC   C38 3775   0.705   6.221   6.922  0.2013  0.7163  0.1834
   28SAPC   H8X 3776   0.715   6.332   6.922 -2.3170  1.0150  0.4016
   28SAPC   H8Y 3777   0.805   6.174   6.930 -0.7217 -1.0987  1.9513
   28SAPC   C39 3778   0.631   6.183   7.052  0.3645 -0.0229  0.2963
   28SAPC   H9X 3779   0.579   6.086   7.036 -0.6383  0.6633 -0.6925
   28SAPC   H9Y 3780   0.541   6.248   7.057  0.0822 -0.2813 -1.0460
   28SAPC  C310 3781   0.716   6.200   7.178 -0.2147  0.5030  0.5012
   28SAPC  H10X 3782   0.755   6.303   7.197  2.6307  0.1008 -2.2265
   28SAPC  H10Y 3783   0.807   6.137   7.173  0.4182  1.4634 -1.9556
   28SAPC  C311 3784   0.631   6.162   7.299 -0.5463  0.2360 -0.6655
   28SAPC  H11X 3785   0.579   6.064   7.289 -1.4816  0.7489 -0.9727
   28SAPC  H11Y 3786   0.561   6.247   7.311  0.1293  0.4479  3.4693
   28SAPC  C312 3787   0.710   6.152   7.434  0.6148  0.0161 -0.0826
   28SAPC  H12X 3788   0.771   6.244   7.432 -1.3679  1.3979 -0.2670
   28SAPC  H12Y 3789   0.768   6.057   7.436  2.5250  1.1415 -0.6093
   28SAPC  C313 3790   0.620   6.152   7.562  1.1021 -0.0091 -0.8656
   28SAPC  H13X 3791   0.560   6.061   7.540  1.7063 -0.1849 -1.8587
   28SAPC  H13Y 3792   0.553   6.239   7.573 -0.1724 -1.1245  0.5755
   28SAPC  C314 3793   0.699   6.156   7.699  0.4063  0.7557  0.6483
   28SAPC  H14X 3794   0.622   6.185   7.774 -0.4342 -0.5984  0.3364
   28SAPC  H14Y 3795   0.786   6.224   7.706  1.3983 -0.5206  1.1618
   28SAPC  C315 3796   0.752   6.020   7.732 -0.6671 -0.2623  0.3562
   28SAPC  H15X 3797   0.839   5.998   7.667 -0.0249  2.2138  0.2846
   28SAPC  H15Y 3798   0.676   5.940   7.721 -1.8898  1.0087 -0.9562
   28SAPC  C316 3799   0.803   6.006   7.875  0.1816  0.2178 -0.3457
   28SAPC  H16X 3800   0.723   6.013   7.953 -0.1329 -0.7233 -0.5642
   28SAPC  H16Y 3801   0.879   6.082   7.902  1.0776  0.1091 -2.3872
   28SAPC  C317 3802   0.884   5.875   7.895 -0.0387  0.4059 -0.2083
   28SAPC  H17X 3803   0.959   5.863   7.814 -0.7933  0.4863 -0.9426
   28SAPC  H17Y 3804   0.813   5.790   7.888  1.7678 -1.2255  0.7736
   28SAPC  C318 3805   0.958   5.858   8.028 -0.6501 -0.7735  0.0325
   28SAPC  H18X 3806   0.888   5.844   8.112 -0.4572 -1.8522  0.0251
   28SAPC  H18Y 3807   1.014   5.954   8.035 -0.0288 -1.1681  0.5657
   28SAPC  H18Z 3808   1.035   5.778   8.022  0.9051  0.7375 -1.3211
   29SAPC     N 3809   1.229   0.300  10.578  0.8335  0.0091 -0.3523
   29SAPC   C12 3810   1.318   0.426  10.569  0.6190 -0.1973  0.1577
   29SAPC  H12A 3811   1.396   0.400  10.638 -0.9252 -1.2252  1.6118
   29SAPC  H12B 3812   1.266   0.510  10.615  0.2459 -0.7747  0.8038
   29SAPC   C13 3813   1.300   0.177  10.531 -0.5839  0.6936 -0.2534
   29SAPC  H13A 3814   1.313   0.170  10.424 -0.2692 -1.1830 -0.1252
   29SAPC  H13B 3815   1.399   0.169  10.574 -0.4891 -0.1486 -0.6109
   29SAPC  H13C 3816   1.248   0.087  10.561  1.2577 -0.2849  0.1821
   29SAPC   C14 3817   1.179   0.282  10.722  0.6034  0.5974 -0.1593
   29SAPC  H14A 3818   1.085   0.228  10.724  1.1003 -0.2777  0.7873
   29SAPC  H14B 3819   1.244   0.213  10.773  0.6820  0.9464  0.2128
   29SAPC  H14C 3820   1.169   0.372  10.780 -2.1362  0.9009 -0.9534
   29SAPC   C15 3821   1.105   0.305  10.494 -0.4268 -0.0657 -0.3805
   29SAPC  H15A 3822   1.138   0.335  10.396 -1.6598  2.1626 -0.1932
   29SAPC  H15B 3823   1.067   0.204  10.487  2.1025 -1.0493 -0.7460
   29SAPC  H15C 3824   1.027   0.367  10.536 -2.4321 -3.4540  1.3153
   29SAPC   C11 3825   1.368   0.473  10.429  0.5619  0.3520  0.1322
   29SAPC  H11A 3826   1.408   0.382  10.380 -1.0572 -0.1121 -0.4047
   29SAPC  H11B 3827   1.451   0.546  10.440  1.5217 -0.2893 -2.1829
   29SAPC     P 3828   1.191   0.648  10.370  0.0558 -0.2381  0.2079
   29SAPC   O13 3829   1.046   0.618  10.378 -0.0716  0.3342 -0.4043
   29SAPC   O14 3830   1.253   0.731  10.481  0.5950  0.1702  0.1382
   29SAPC   O12 3831   1.264   0.514  10.346 -0.2952  0.5509  0.4727
   29SAPC   O11 3832   1.225   0.718  10.235 -0.2399 -0.0944  0.7103
   29SAPC    C1 3833   1.251   0.650  10.111 -0.2932  0.0989  0.0142
   29SAPC    HA 3834   1.341   0.586  10.123  1.5633  2.5118 -0.2934
   29SAPC    HB 3835   1.163   0.588  10.086 -0.8694  0.5901  0.7750
   29SAPC    C2 3836   1.282   0.731   9.987  0.7752 -0.1861 -0.3396
   29SAPC    HS 3837   1.346   0.671   9.919  1.3917  1.9526 -1.7587
   29SAPC   O21 3838   1.346   0.853  10.017  0.0631 -0.5536  0.0412
   29SAPC   C21 3839   1.463   0.851  10.085 -0.5474  0.3191 -0.1886
   29SAPC   O22 3840   1.523   0.749  10.112 -0.2333 -0.6428  0.5805
   29SAPC   C22 3841   1.503   1.001  10.114  0.4590  0.4068 -0.9900
   29SAPC   H2R 3842   1.433   1.073  10.066 -0.6386  1.5161  1.9983
   29SAPC   H2S 3843   1.499   1.015  10.224  2.8843 -1.2979 -0.6084
   29SAPC    C3 3844   1.150   0.759   9.907 -0.2739  0.0524  0.1110
   29SAPC    HX 3845   1.072   0.805   9.971 -1.5824 -2.3762  0.3704
   29SAPC    HY 3846   1.122   0.656   9.877 -2.1092  0.7111 -0.5407
   29SAPC   O31 3847   1.184   0.839   9.795  0.2865  0.1847 -0.1882
   29SAPC   C31 3848   1.136   0.954   9.791 -0.2626 -0.0459  0.5281
   29SAPC   O32 3849   1.046   1.006   9.857 -0.5841  0.1652 -0.3181
   29SAPC   C32 3850   1.203   1.036   9.680  0.0952 -0.0369 -1.0665
   29SAPC   H2X 3851   1.162   1.140   9.682  0.0429 -0.0648 -0.3736
   29SAPC   H2Y 3852   1.167   0.987   9.587  0.2074 -0.2005 -1.0229
   29SAPC   C23 3853   1.652   1.038  10.073  0.0383  0.4509 -1.3718
   29SAPC   H3R 3854   1.721   0.975  10.133  0.7188  4.3110  2.4609
   29SAPC   H3S 3855   1.662   1.141  10.114 -0.1477 -0.1940  0.3579
   29SAPC   C24 3856   1.693   1.048   9.929 -0.7942  0.2579  0.3693
   29SAPC   H4R 3857   1.776   1.122   9.920 -1.1955  0.5162 -1.9563
   29SAPC   H4S 3858   1.608   1.098   9.878 -2.4247 -0.6078  2.1362
   29SAPC   C25 3859   1.727   0.916   9.877 -0.1052 -0.0328  0.0168
   29SAPC   H5R 3860   1.711   0.844   9.959 -1.7139 -0.1963 -0.3960
   29SAPC   C26 3861   1.784   0.896   9.757 -0.8405 -0.4709  0.1666
   29SAPC   H6R 3862   1.819   0.797   9.724 -2.1661 -0.0218 -2.9289
   29SAPC   C27 3863   1.817   1.014   9.663  0.6478 -0.3162 -0.2228
   29SAPC   H7R 3864   1.927   1.021   9.673  0.7583  0.8774 -1.8969
   29SAPC   H7S 3865   1.787   1.114   9.700 -0.6196 -0.6730 -0.2342
   29SAPC   C28 3866   1.787   0.977   9.524  0.3225  0.2771  0.1744
   29SAPC   H8R 3867   1.680   0.989   9.502  0.1446 -0.9877  0.3152
   29SAPC   C29 3868   1.868   0.918   9.441 -0.1392 -0.1115  0.1853
   29SAPC   H9R 3869   1.828   0.885   9.344  2.4858 -3.7024  0.1311
   29SAPC  C210 3870   2.016   0.885   9.454  0.1724 -0.3024  0.2421
   29SAPC  H10R 3871   2.038   0.864   9.561 -1.4175 -0.1274  0.6351
   29SAPC  H10S 3872   2.072   0.978   9.431  0.6250 -0.5474  0.3489
   29SAPC  C211 3873   2.081   0.771   9.374 -0.3251 -0.1165  0.3351
   29SAPC  H11R 3874   2.078   0.675   9.427  0.4435 -0.2074  0.2212
   29SAPC  C212 3875   2.131   0.778   9.248 -0.4755 -0.2104  0.9337
   29SAPC  H12R 3876   2.166   0.684   9.202  0.9965  1.1298 -0.8226
   29SAPC  C213 3877   2.125   0.886   9.151 -0.1465 -0.1286 -0.1385
   29SAPC  H13R 3878   2.221   0.894   9.095 -0.7648 -0.1747 -1.2228
   29SAPC  H13S 3879   2.130   0.985   9.201  2.3832  0.4188 -1.3240
   29SAPC  C214 3880   2.005   0.885   9.053 -0.3427 -0.0534 -0.3509
   29SAPC  H14R 3881   1.920   0.947   9.083  0.6960  0.6927  1.1826
   29SAPC  C215 3882   2.000   0.826   8.929 -0.4525  0.5633 -0.1259
   29SAPC  H15R 3883   1.909   0.830   8.868 -0.3009  3.3954 -0.2789
   29SAPC  C216 3884   2.104   0.733   8.866 -0.5911 -0.1606  0.2655
   29SAPC  H16R 3885   2.066   0.635   8.830 -1.1219  0.7723 -1.8848
   29SAPC  H16S 3886   2.186   0.714   8.939 -0.4782 -1.2497 -0.1276
   29SAPC  C217 3887   2.153   0.811   8.740 -0.6151  0.5783  0.0565
   29SAPC  H17R 3888   2.246   0.761   8.704 -1.5980 -1.2314 -0.0718
   29SAPC  H17S 3889   2.194   0.908   8.774  2.1967 -0.3949 -0.2412
   29SAPC  C218 3890   2.059   0.831   8.623  0.5572 -1.0299  0.3819
   29SAPC  H18R 3891   1.981   0.898   8.664  1.3762  0.5800 -0.5801
   29SAPC  H18S 3892   2.019   0.737   8.581 -4.0014 -0.3957  2.7455
   29SAPC  C219 3893   2.127   0.914   8.512 -0.1299 -0.1216 -0.0177
   29SAPC  H19R 3894   2.196   0.847   8.457 -0.1083 -1.4524  1.5745
   29SAPC  H19S 3895   2.180   0.997   8.564 -1.7567 -0.6844  2.7013
   29SAPC  C220 3896   2.016   0.967   8.422 -0.6014 -0.7845  0.1760
   29SAPC  H20R 3897   1.947   0.884   8.398 -2.3596  0.5924  0.2972
   29SAPC  H20S 3898   2.046   1.006   8.323 -0.5034  1.6478  1.0964
   29SAPC  H20T 3899   1.966   1.052   8.473  0.3863  0.6462 -1.1578
   29SAPC   C33 3900   1.354   1.028   9.696 -0.1164  0.3318  0.3154
   29SAPC   H3X 3901   1.382   0.921   9.681 -0.5976  0.2984 -0.4385
   29SAPC   H3Y 3902   1.392   1.074   9.790  1.1142  0.1352 -0.0605
   29SAPC   C34 3903   1.432   1.104   9.583 -0.6713  0.4287 -0.1799
   29SAPC   H4X 3904   1.535   1.071   9.608 -0.7003  0.2955 -0.2327
   29SAPC   H4Y 3905   1.433   1.214   9.598 -0.6285  0.2459  1.3486
   29SAPC   C35 3906   1.386   1.079   9.444 -0.4703  0.2671  0.5061
   29SAPC   H5X 3907   1.443   1.147   9.377 -1.4175  1.6545  1.0656
   29SAPC   H5Y 3908   1.281   1.115   9.435  0.4345  3.2286  0.7631
   29SAPC   C36 3909   1.404   0.934   9.404  0.4084 -0.0841  0.2985
   29SAPC   H6X 3910   1.330   0.874   9.462 -1.5572  2.1452  0.2367
   29SAPC   H6Y 3911   1.503   0.901   9.442 -0.3203  0.5995  3.0065
   29SAPC   C37 3912   1.377   0.890   9.256 -0.2365 -0.9876 -0.6996
   29SAPC   H7X 3913   1.282   0.941   9.231  0.0739 -0.7313 -1.4032
   29SAPC   H7Y 3914   1.361   0.781   9.250 -1.1672 -1.1793  3.0165
   29SAPC   C38 3915   1.482   0.941   9.149 -0.1773 -0.3903  0.2525
   29SAPC   H8X 3916   1.580   0.898   9.181  0.4004  0.2689 -0.5530
   29SAPC   H8Y 3917   1.482   1.052   9.145 -3.1570 -0.3208 -0.0076
   29SAPC   C39 3918   1.450   0.909   9.002  0.6951  0.6523  0.5729
   29SAPC   H9X 3919   1.350   0.955   8.985 -0.8562 -1.8047  2.4563
   29SAPC   H9Y 3920   1.442   0.802   8.975  0.6741  0.3976  1.5574
   29SAPC  C310 3921   1.554   0.957   8.904  0.5449  0.1722  0.4561
   29SAPC  H10X 3922   1.651   0.928   8.948  0.1515 -2.6290 -0.3666
   29SAPC  H10Y 3923   1.549   1.068   8.898  2.2747  0.2949  0.9000
   29SAPC  C311 3924   1.546   0.899   8.761 -0.1368 -0.1953 -0.8924
   29SAPC  H11X 3925   1.439   0.910   8.733 -0.1384  0.3252 -0.7094
   29SAPC  H11Y 3926   1.567   0.791   8.775  1.8497 -0.0942 -2.6613
   29SAPC  C312 3927   1.640   0.965   8.661  0.1482 -0.7171 -0.4313
   29SAPC  H12X 3928   1.744   0.975   8.700 -0.4804 -0.3420  1.2258
   29SAPC  H12Y 3929   1.610   1.071   8.652 -1.0686 -1.0113  0.0412
   29SAPC  C313 3930   1.640   0.906   8.519 -0.5501  0.2797  0.7088
   29SAPC  H13X 3931   1.697   0.961   8.442 -2.3122  0.5383 -0.4764
   29SAPC  H13Y 3932   1.541   0.927   8.472  0.4627  3.8179 -0.1501
   29SAPC  C314 3933   1.682   0.758   8.506  0.8713  0.0770  0.3951
   29SAPC  H14X 3934   1.666   0.699   8.598  2.0514 -2.5650 -0.9632
   29SAPC  H14Y 3935   1.792   0.740   8.500  0.9866  1.1262 -1.6017
   29SAPC  C315 3936   1.612   0.694   8.392 -0.2354 -0.6400 -0.7310
   29SAPC  H15X 3937   1.505   0.720   8.406  0.1083 -0.8694  3.9221
   29SAPC  H15Y 3938   1.620   0.584   8.411  1.2500 -0.8081 -2.0622
   29SAPC  C316 3939   1.664   0.731   8.250 -0.1551 -0.3859 -0.1148
   29SAPC  H16X 3940   1.775   0.728   8.241 -0.1818  0.2120 -0.7430
   29SAPC  H16Y 3941   1.638   0.838   8.236  0.2387 -0.4838 -1.8063
   29SAPC  C317 3942   1.607   0.643   8.141  0.1414  0.9374  0.1735
   29SAPC  H17X 3943   1.622   0.535   8.164 -0.4003  1.2637  2.3060
   29SAPC  H17Y 3944   1.653   0.669   8.043 -1.0672  0.5009 -0.5194
   29SAPC  C318 3945   1.452   0.656   8.122 -0.2533  0.4484 -0.0644
   29SAPC  H18X 3946   1.407   0.613   8.214  3.1013 -1.6981  0.7472
   29SAPC  H18Y 3947   1.420   0.604   8.029 -0.8356  1.9013 -0.6969
   29SAPC  H18Z 3948   1.419   0.761   8.113 -2.6296 -0.2364  0.0072
   30SAPC     N 3949   3.784   1.189   5.912  0.4229 -0.3258 -0.2431
   30SAPC   C12 3950   3.765   1.305   6.016 -0.2179  0.7431  0.0322
   30SAPC  H12A 3951   3.837   1.289   6.095  1.3527  0.4839 -1.3998
   30SAPC  H12B 3952   3.672   1.286   6.066 -0.1138 -0.5600 -0.2433
   30SAPC   C13 3953   3.748   1.058   5.979 -0.3402 -0.3407  0.4651
   30SAPC  H13A 3954   3.817   1.043   6.061 -0.6171  0.9324  0.9579
   30SAPC  H13B 3955   3.647   1.056   6.019 -0.1563  0.2609  0.9637
   30SAPC  H13C 3956   3.760   0.982   5.903 -0.8065 -0.5242  0.5715
   30SAPC   C14 3957   3.697   1.211   5.786 -0.0781 -0.2556 -0.2408
   30SAPC  H14A 3958   3.594   1.236   5.805  0.4719  2.0465 -0.0217
   30SAPC  H14B 3959   3.734   1.297   5.732  2.1379 -2.0584 -1.7891
   30SAPC  H14C 3960   3.695   1.125   5.721 -1.4873 -0.7684  0.4372
   30SAPC   C15 3961   3.925   1.189   5.859 -0.1644 -0.3883 -1.1776
   30SAPC  H15A 3962   3.927   1.113   5.783  1.3882 -2.4848  0.8032
   30SAPC  H15B 3963   3.953   1.281   5.811  1.7624  0.1064  0.7120
   30SAPC  H15C 3964   4.002   1.173   5.933  2.2014  1.4798 -3.0612
   30SAPC   C11 3965   3.769   1.455   5.978 -0.3793  0.1564 -0.4260
   30SAPC  H11A 3966   3.734   1.514   6.065  0.3976 -0.1770  0.1175
   30SAPC  H11B 3967   3.702   1.481   5.893 -1.0170  0.6773  0.2237
   30SAPC     P 3968   4.004   1.571   6.018 -0.1411  0.0948  0.0456
   30SAPC   O13 3969   4.119   1.482   6.057 -0.2664  0.0845  0.1511
   30SAPC   O14 3970   4.029   1.694   5.944  0.2098 -0.2542  0.0605
   30SAPC   O12 3971   3.901   1.482   5.934 -0.2233 -0.4819  0.3504
   30SAPC   O11 3972   3.927   1.604   6.148 -0.3460  0.5060  0.2496
   30SAPC    C1 3973   3.986   1.615   6.278 -0.0931  0.2879  0.3406
   30SAPC    HA 3974   3.981   1.522   6.339  3.4487 -1.0434 -1.1710
   30SAPC    HB 3975   4.094   1.635   6.262  0.4457 -2.5101 -0.0341
   30SAPC    C2 3976   3.922   1.738   6.353  0.3817  0.2776  0.5546
   30SAPC    HS 3977   3.920   1.819   6.276 -0.6460 -1.0081 -0.8169
   30SAPC   O21 3978   3.988   1.777   6.474 -0.2335 -0.5031  0.1756
   30SAPC   C21 3979   4.112   1.834   6.464 -0.0707  0.2052  0.1750
   30SAPC   O22 3980   4.170   1.850   6.359 -0.0641 -0.0035  0.0582
   30SAPC   C22 3981   4.164   1.848   6.600 -0.0887 -0.0163  0.1669
   30SAPC   H2R 3982   4.099   1.894   6.677  0.8505 -0.6089  1.3532
   30SAPC   H2S 3983   4.204   1.748   6.626  1.4685  0.7912  1.0186
   30SAPC    C3 3984   3.775   1.705   6.387  0.1458 -0.0761  0.6539
   30SAPC    HX 3985   3.735   1.665   6.292 -2.7384  1.8420  0.9348
   30SAPC    HY 3986   3.723   1.801   6.408 -0.7008  0.1621 -2.1495
   30SAPC   O31 3987   3.771   1.599   6.482 -0.0803  0.4041 -0.8624
   30SAPC   C31 3988   3.661   1.530   6.488  0.9752 -1.0711  0.6577
   30SAPC   O32 3989   3.561   1.553   6.416  0.2674 -0.0952  0.1786
   30SAPC   C32 3990   3.668   1.423   6.596 -0.2450 -0.0913 -0.7110
   30SAPC   H2X 3991   3.694   1.478   6.689 -2.1597  0.9633 -0.7420
   30SAPC   H2Y 3992   3.755   1.357   6.576  0.4538  1.2834 -2.5397
   30SAPC   C23 3993   4.293   1.932   6.596 -0.0721 -0.2426  0.0119
   30SAPC   H3R 3994   4.263   2.039   6.589 -0.7305 -0.5165 -2.4396
   30SAPC   H3S 3995   4.361   1.911   6.511 -2.0592  1.3668 -2.1132
   30SAPC   C24 3996   4.363   1.919   6.728 -0.9822  0.0195 -0.5784
   30SAPC   H4R 3997   4.298   1.963   6.807 -1.0755 -3.4075  1.4830
   30SAPC   H4S 3998   4.465   1.965   6.724  0.1207 -1.9556  1.8862
   30SAPC   C25 3999   4.401   1.786   6.773 -1.2163  0.6418 -0.3128
   30SAPC   H5R 4000   4.492   1.758   6.716 -0.1120  0.1450  1.5996
   30SAPC   C26 4001   4.369   1.706   6.874 -0.2004  0.6177  0.5977
   30SAPC   H6R 4002   4.434   1.621   6.899  0.9527  1.7423  1.5340
   30SAPC   C27 4003   4.266   1.744   6.981 -0.4085  0.3790 -0.0330
   30SAPC   H7R 4004   4.207   1.650   6.981 -0.9380  0.7076 -0.2260
   30SAPC   H7S 4005   4.197   1.824   6.946  0.2627  0.6981 -0.6328
   30SAPC   C28 4006   4.330   1.780   7.112 -0.3163 -0.2868  0.3785
   30SAPC   H8R 4007   4.440   1.783   7.114 -0.3280  0.2646  0.7329
   30SAPC   C29 4008   4.259   1.802   7.223  0.4746 -0.3219  0.3063
   30SAPC   H9R 4009   4.315   1.834   7.313  0.0960  0.8988  0.1306
   30SAPC  C210 4010   4.108   1.786   7.230  0.0323  0.3084  0.2561
   30SAPC  H10R 4011   4.066   1.815   7.131  0.6106 -0.7390 -0.3205
   30SAPC  H10S 4012   4.077   1.856   7.310  0.6741  2.7484 -1.4941
   30SAPC  C211 4013   4.062   1.644   7.247  1.0536  0.0882  0.2678
   30SAPC  H11R 4014   4.063   1.581   7.157 -0.8877  1.4897 -0.8333
   30SAPC  C212 4015   4.013   1.592   7.356  0.3381  0.0725  0.4744
   30SAPC  H12R 4016   3.993   1.484   7.356  1.1406 -0.0979  1.9371
   30SAPC  C213 4017   4.017   1.665   7.485  0.4241  0.2386 -0.3664
   30SAPC  H13R 4018   3.969   1.604   7.565  0.7774 -0.3846 -0.6184
   30SAPC  H13S 4019   3.956   1.757   7.471  0.9682  0.8535  1.1052
   30SAPC  C214 4020   4.151   1.712   7.540  0.2476  0.8451  0.4335
   30SAPC  H14R 4021   4.244   1.666   7.502 -0.5175  0.4560 -1.0246
   30SAPC  C215 4022   4.161   1.797   7.644  1.0088 -0.4352  0.4716
   30SAPC  H15R 4023   4.251   1.823   7.702  0.0936 -1.7036  2.5703
   30SAPC  C216 4024   4.041   1.854   7.707 -0.2022 -0.7356 -0.5336
   30SAPC  H16R 4025   4.030   1.807   7.807  0.0988 -0.2269 -0.2541
   30SAPC  H16S 4026   3.942   1.826   7.665  0.2207  0.1762 -2.2248
   30SAPC  C217 4027   4.035   2.006   7.721 -0.2215 -0.0498 -0.2272
   30SAPC  H17R 4028   3.929   2.038   7.736  0.5574  3.3092 -1.1799
   30SAPC  H17S 4029   4.074   2.064   7.635  1.8860  0.2497  0.8590
   30SAPC  C218 4030   4.112   2.060   7.845 -0.7744  0.5949 -0.5021
   30SAPC  H18R 4031   4.219   2.063   7.818 -1.1404  1.0499 -1.9690
   30SAPC  H18S 4032   4.096   1.988   7.929 -3.1416  0.6487 -0.8345
   30SAPC  C219 4033   4.055   2.192   7.887 -0.1622  0.0083 -0.5350
   30SAPC  H19R 4034   3.946   2.183   7.909  0.0265  1.0645  1.0744
   30SAPC  H19S 4035   4.064   2.275   7.814 -0.9287 -1.4290 -2.3449
   30SAPC  C220 4036   4.129   2.240   8.019 -0.6493  0.6835 -0.3009
   30SAPC  H20R 4037   4.239   2.235   8.007 -0.5721 -1.2350  0.8107
   30SAPC  H20S 4038   4.092   2.168   8.095 -0.7495  0.7716 -0.2653
   30SAPC  H20T 4039   4.096   2.345   8.038 -0.9479  0.7347 -1.0756
   30SAPC   C33 4040   3.541   1.333   6.619  0.1640 -0.1725  0.4498
   30SAPC   H3X 4041   3.509   1.283   6.525 -0.1393  1.0591 -0.1124
   30SAPC   H3Y 4042   3.459   1.397   6.657  1.0203  1.7438 -0.7651
   30SAPC   C34 4043   3.547   1.222   6.725 -0.4237 -0.0962  0.1237
   30SAPC   H4X 4044   3.581   1.264   6.822 -1.9314 -1.2609  1.2040
   30SAPC   H4Y 4045   3.610   1.135   6.695 -1.1101 -0.5586 -0.0154
   30SAPC   C35 4046   3.415   1.174   6.766  0.2902  0.0164  0.6078
   30SAPC   H5X 4047   3.379   1.118   6.677  2.0038 -1.9020  1.0565
   30SAPC   H5Y 4048   3.337   1.251   6.786 -1.0610 -0.4509 -2.3460
   30SAPC   C36 4049   3.417   1.080   6.889 -0.0094  0.6963  0.0778
   30SAPC   H6X 4050   3.494   1.129   6.953  1.5410  0.8214 -1.7882
   30SAPC   H6Y 4051   3.465   0.987   6.851  0.9085  1.5417 -0.9200
   30SAPC   C37 4052   3.281   1.061   6.945 -0.1580  0.6241 -0.3601
   30SAPC   H7X 4053   3.219   1.007   6.870 -0.2179 -0.6661  0.5730
   30SAPC   H7Y 4054   3.218   1.151   6.959 -1.0936  0.0256 -0.6033
   30SAPC   C38 4055   3.275   0.988   7.082  0.6072  0.2412  0.1545
   30SAPC   H8X 4056   3.348   0.905   7.089 -0.0475 -0.4037 -0.4603
   30SAPC   H8Y 4057   3.183   0.927   7.092  1.8569 -1.8296 -0.2947
   30SAPC   C39 4058   3.282   1.086   7.198  0.6812  0.4676  0.3245
   30SAPC   H9X 4059   3.195   1.154   7.185 -0.7393 -1.4682 -0.7362
   30SAPC   H9Y 4060   3.377   1.136   7.171  0.9100  0.1967  0.6190
   30SAPC  C310 4061   3.295   1.038   7.342  0.1653 -0.0860 -0.2955
   30SAPC  H10X 4062   3.382   0.969   7.347 -0.5067 -0.8523  1.8140
   30SAPC  H10Y 4063   3.209   0.979   7.380  1.3101 -0.6552  1.5697
   30SAPC  C311 4064   3.314   1.153   7.442  0.1054 -0.9727 -0.0927
   30SAPC  H11X 4065   3.216   1.204   7.448 -0.7972 -2.6931  0.6020
   30SAPC  H11Y 4066   3.402   1.211   7.407 -0.2213  0.2678  1.0581
   30SAPC  C312 4067   3.349   1.103   7.584 -0.3229  0.3611  0.3519
   30SAPC  H12X 4068   3.262   1.040   7.614 -2.1350  2.4469 -0.2547
   30SAPC  H12Y 4069   3.362   1.189   7.653  1.0060  0.2191  0.3092
   30SAPC  C313 4070   3.465   1.010   7.582 -0.2717  0.1362 -0.6835
   30SAPC  H13X 4071   3.530   1.013   7.492 -0.4765 -0.6001 -0.8594
   30SAPC  H13Y 4072   3.427   0.906   7.574 -1.0371  0.2309  1.1731
   30SAPC  C314 4073   3.566   1.024   7.704 -0.6697 -0.0918 -0.0270
   30SAPC  H14X 4074   3.518   1.002   7.802 -2.1871  0.9090 -0.5119
   30SAPC  H14Y 4075   3.610   1.124   7.725 -1.7698  0.3838  0.0823
   30SAPC  C315 4076   3.668   0.914   7.681 -0.1597  0.8011 -0.1636
   30SAPC  H15X 4077   3.723   0.944   7.589 -1.8980  1.0240 -1.1847
   30SAPC  H15Y 4078   3.629   0.813   7.656  0.0083  0.4423  0.9773
   30SAPC  C316 4079   3.770   0.899   7.794 -0.5484 -0.1239 -0.4859
   30SAPC  H16X 4080   3.715   0.872   7.886  1.2802  1.0498  1.0339
   30SAPC  H16Y 4081   3.816   0.998   7.812  1.1369 -0.9716  0.1028
   30SAPC  C317 4082   3.887   0.808   7.773 -0.8375 -0.4637 -0.2407
   30SAPC  H17X 4083   3.912   0.815   7.665 -1.4633 -0.6254 -0.3990
   30SAPC  H17Y 4084   3.867   0.702   7.796  0.1600 -1.1672 -2.3546
   30SAPC  C318 4085   4.012   0.854   7.846  0.1780  0.5607 -0.5334
   30SAPC  H18X 4086   4.093   0.779   7.834 -0.2117  0.1284 -0.4946
   30SAPC  H18Y 4087   4.014   0.849   7.957 -0.8022 -0.3180 -0.5379
   30SAPC  H18Z 4088   4.051   0.951   7.812 -0.5694  1.1489  0.2340
   31SAPC     N 4089   6.079   2.311   5.783 -0.1431  0.1197 -0.3123
   31SAPC   C12 4090   6.012   2.363   5.903  0.4471  0.3902  0.0535
   31SAPC  H12A 4091   5.987   2.277   5.964  1.4315 -0.7805 -1.1493
   31SAPC  H12B 4092   5.926   2.423   5.878  0.2602  0.6906  1.3343
   31SAPC   C13 4093   6.105   2.426   5.687 -0.1633  0.5483 -0.9595
   31SAPC  H13A 4094   6.144   2.387   5.594  2.2869 -0.5946  0.4553
   31SAPC  H13B 4095   6.011   2.471   5.658 -0.6242  0.4509  0.3201
   31SAPC  H13C 4096   6.174   2.502   5.720 -0.4395  0.8013 -0.9666
   31SAPC   C14 4097   6.206   2.234   5.809  0.2128 -0.3647 -0.4831
   31SAPC  H14A 4098   6.176   2.138   5.849  0.1439 -0.7479 -1.4348
   31SAPC  H14B 4099   6.266   2.223   5.720  3.7725 -1.9607  1.8801
   31SAPC  H14C 4100   6.263   2.290   5.882  1.1659 -0.1208 -1.3935
   31SAPC   C15 4101   5.985   2.220   5.707 -0.2624 -0.3224 -0.2935
   31SAPC  H15A 4102   5.897   2.272   5.674  1.4246  0.9732 -3.0612
   31SAPC  H15B 4103   6.040   2.178   5.624 -1.1099 -2.8503  0.3235
   31SAPC  H15C 4104   5.949   2.136   5.765 -0.9112 -0.1264 -0.4078
   31SAPC   C11 4105   6.092   2.456   5.995 -0.3452 -0.7677  0.4181
   31SAPC  H11A 4106   6.187   2.406   6.023 -1.2487 -2.9463 -0.2154
   31SAPC  H11B 4107   6.035   2.473   6.089  0.2223 -0.7043  0.7527
   31SAPC     P 4108   6.197   2.691   5.988  0.2273  0.2220  0.1725
   31SAPC   O13 4109   6.320   2.714   5.909  0.6290 -0.3824  0.1341
   31SAPC   O14 4110   6.106   2.805   6.010  0.8741  0.6021  0.5332
   31SAPC   O12 4111   6.110   2.579   5.921  0.0268 -0.0992 -0.1100
   31SAPC   O11 4112   6.239   2.637   6.129  0.3234  0.5701 -0.1447
   31SAPC    C1 4113   6.154   2.645   6.247  0.2180  0.0975 -0.5008
   31SAPC    HA 4114   6.048   2.657   6.219  0.0911 -1.9539 -1.0407
   31SAPC    HB 4115   6.164   2.554   6.310 -1.2203  1.0336  1.1894
   31SAPC    C2 4116   6.186   2.763   6.348 -0.9847  0.1996 -0.0845
   31SAPC    HS 4117   6.173   2.849   6.280  1.3435 -0.4305 -1.4485
   31SAPC   O21 4118   6.321   2.743   6.391  0.0862 -0.1206 -0.9233
   31SAPC   C21 4119   6.372   2.858   6.432 -0.2909  0.2998 -0.2663
   31SAPC   O22 4120   6.321   2.968   6.422  0.9864  0.0487 -0.3382
   31SAPC   C22 4121   6.508   2.830   6.499 -0.3115  0.1022 -0.0237
   31SAPC   H2R 4122   6.560   2.755   6.436  0.1158  0.5916 -0.2555
   31SAPC   H2S 4123   6.566   2.925   6.501  0.1819 -0.1508 -1.5105
   31SAPC    C3 4124   6.079   2.781   6.461 -0.7595  0.3711  0.2754
   31SAPC    HX 4125   5.979   2.816   6.428  0.3734  2.8370 -0.7799
   31SAPC    HY 4126   6.124   2.862   6.522  2.7323  0.0522 -1.6023
   31SAPC   O31 4127   6.075   2.672   6.553 -0.1030 -0.2438 -0.2109
   31SAPC   C31 4128   5.997   2.573   6.521 -0.2957 -0.3860 -0.4034
   31SAPC   O32 4129   5.913   2.573   6.432  0.0846  0.8207 -0.0246
   31SAPC   C32 4130   6.031   2.455   6.611  0.4769  0.0577  0.1089
   31SAPC   H2X 4131   6.067   2.494   6.708  0.0730  0.3132  0.1599
   31SAPC   H2Y 4132   6.113   2.391   6.574 -0.8066 -1.9143  0.5447
   31SAPC   C23 4133   6.483   2.773   6.640 -0.1669 -0.3257 -1.1294
   31SAPC   H3R 4134   6.404   2.695   6.640  1.2112 -1.7596 -1.6308
   31SAPC   H3S 4135   6.455   2.858   6.706  1.2498 -2.1824  2.1146
   31SAPC   C24 4136   6.615   2.711   6.704 -0.0599  0.3214  0.3796
   31SAPC   H4R 4137   6.662   2.635   6.638 -1.5867 -2.1254  1.9144
   31SAPC   H4S 4138   6.587   2.641   6.786  1.6099  0.4645  1.1096
   31SAPC   C25 4139   6.714   2.822   6.736 -0.1393 -0.0529  0.2852
   31SAPC   H5R 4140   6.735   2.891   6.654  0.8554 -1.3215 -0.5665
   31SAPC   C26 4141   6.778   2.836   6.851  0.1934  0.6581 -0.3873
   31SAPC   H6R 4142   6.875   2.887   6.855  0.4142  0.1735  0.9346
   31SAPC   C27 4143   6.752   2.747   6.965 -0.4752  0.5985 -0.8456
   31SAPC   H7R 4144   6.737   2.639   6.948  1.5677  0.2037 -0.4145
   31SAPC   H7S 4145   6.652   2.774   7.006 -0.4852 -0.0475 -0.4307
   31SAPC   C28 4146   6.868   2.754   7.065 -0.5934 -0.6485  0.3391
   31SAPC   H8R 4147   6.958   2.710   7.019  0.6671  0.1883  1.9121
   31SAPC   C29 4148   6.860   2.790   7.192 -0.0900  0.7767  0.2500
   31SAPC   H9R 4149   6.948   2.788   7.258  0.1886 -0.3360 -0.1342
   31SAPC  C210 4150   6.734   2.822   7.265  0.4038 -0.0737  0.0319
   31SAPC  H10R 4151   6.641   2.812   7.204 -0.5596 -2.4401  1.7217
   31SAPC  H10S 4152   6.734   2.930   7.289  0.9756  0.5679 -2.5606
   31SAPC  C211 4153   6.718   2.725   7.386 -0.5168  0.2995  0.4159
   31SAPC  H11R 4154   6.769   2.629   7.375  0.5221  0.8485  0.3540
   31SAPC  C212 4155   6.655   2.742   7.507  0.2480 -0.1165 -0.5963
   31SAPC  H12R 4156   6.665   2.662   7.582  2.3351  1.6666  1.1807
   31SAPC  C213 4157   6.599   2.876   7.555  0.2077  0.0399 -0.0065
   31SAPC  H13R 4158   6.491   2.865   7.579 -0.2804  0.5363 -1.7836
   31SAPC  H13S 4159   6.590   2.946   7.469 -2.7235 -0.4387 -0.2132
   31SAPC  C214 4160   6.676   2.939   7.674  0.5742  0.5686 -0.1336
   31SAPC  H14R 4161   6.759   3.000   7.638  1.8178 -3.1514 -4.5234
   31SAPC  C215 4162   6.645   2.936   7.804  1.0212 -0.0746 -0.4163
   31SAPC  H15R 4163   6.708   2.987   7.877  1.4578  1.2406 -1.6690
   31SAPC  C216 4164   6.530   2.860   7.868 -0.8446  0.1393 -0.2605
   31SAPC  H16R 4165   6.587   2.782   7.922  2.0347  1.4161 -1.2395
   31SAPC  H16S 4166   6.464   2.807   7.796  2.9392 -1.9699 -2.5347
   31SAPC  C217 4167   6.448   2.926   7.982  0.6011 -0.4034 -1.0266
   31SAPC  H17R 4168   6.354   2.870   7.996 -0.1276  1.1123  0.5676
   31SAPC  H17S 4169   6.411   3.026   7.949  0.0839  0.6021  2.2263
   31SAPC  C218 4170   6.522   2.950   8.119  0.0671  0.8223 -0.4637
   31SAPC  H18R 4171   6.605   3.023   8.103 -0.0255  1.0246 -0.0287
   31SAPC  H18S 4172   6.555   2.850   8.155  0.5896  0.5612 -1.6022
   31SAPC  C219 4173   6.440   3.017   8.232 -0.4592  0.0901  1.1042
   31SAPC  H19R 4174   6.425   3.127   8.219 -0.8729 -0.0778  0.0537
   31SAPC  H19S 4175   6.503   3.024   8.323  0.9821 -1.9577  0.3529
   31SAPC  C220 4176   6.299   2.971   8.268  0.6638  0.4744  0.1738
   31SAPC  H20R 4177   6.259   3.030   8.354  1.5853  1.1233  0.1679
   31SAPC  H20S 4178   6.286   2.862   8.287 -1.7012  0.4311 -1.3305
   31SAPC  H20T 4179   6.234   3.004   8.184 -0.0538  0.2181  0.6168
   31SAPC   C33 4180   5.907   2.364   6.622 -0.7429  0.7615 -0.2745
   31SAPC   H3X 4181   5.865   2.326   6.527 -0.6945  0.0249 -0.0081
   31SAPC   H3Y 4182   5.822   2.413   6.675  0.3586 -0.5643  3.0180
   31SAPC   C34 4183   5.932   2.237   6.708 -0.0619 -0.2928 -0.1635
   31SAPC   H4X 4184   5.998   2.173   6.645  0.8738  0.3675  0.1074
   31SAPC   H4Y 4185   5.837   2.190   6.738 -0.3528  2.0659  3.1231
   31SAPC   C35 4186   6.014   2.269   6.827  0.5624 -0.7715  0.3518
   31SAPC   H5X 4187   5.959   2.356   6.869 -0.5678  1.5422 -5.0808
   31SAPC   H5Y 4188   6.116   2.306   6.802  0.1895  0.2112  0.2523
   31SAPC   C36 4189   6.029   2.160   6.930  0.3164 -0.3764  0.7236
   31SAPC   H6X 4190   6.113   2.096   6.894 -2.0064 -2.0645 -2.1983
   31SAPC   H6Y 4191   5.934   2.103   6.938 -0.4306  0.2012 -2.6635
   31SAPC   C37 4192   6.051   2.215   7.074 -0.4012  0.2938  0.3391
   31SAPC   H7X 4193   5.963   2.281   7.087  0.3222  1.3681 -0.0968
   31SAPC   H7Y 4194   6.142   2.278   7.080 -0.9759  1.0817  0.9890
   31SAPC   C38 4195   6.049   2.091   7.164  0.0194 -0.4251  0.1560
   31SAPC   H8X 4196   6.125   2.021   7.125  1.0963  3.1397 -5.2019
   31SAPC   H8Y 4197   5.951   2.041   7.149 -0.2883  0.2839 -0.2547
   31SAPC   C39 4198   6.055   2.120   7.311  0.0357 -0.4277 -0.0044
   31SAPC   H9X 4199   6.111   2.214   7.328 -0.5408  0.3806 -2.2599
   31SAPC   H9Y 4200   6.117   2.043   7.362  0.1968  0.5537  1.3349
   31SAPC  C310 4201   5.917   2.111   7.393 -0.3442  0.1241  0.6209
   31SAPC  H10X 4202   5.867   2.013   7.375 -1.5457  0.6511  0.9952
   31SAPC  H10Y 4203   5.850   2.191   7.356 -0.1579 -0.8603 -2.0856
   31SAPC  C311 4204   5.946   2.126   7.547  0.1803 -0.7087  0.7362
   31SAPC  H11X 4205   6.036   2.185   7.578 -1.1900  1.4841  0.7831
   31SAPC  H11Y 4206   5.977   2.034   7.601  0.9833 -1.2758 -0.6423
   31SAPC  C312 4207   5.834   2.184   7.622 -0.1008  0.3022 -0.4702
   31SAPC  H12X 4208   5.749   2.112   7.616  0.9962 -0.9380 -1.9154
   31SAPC  H12Y 4209   5.792   2.281   7.588  0.4296  1.1978  1.2669
   31SAPC  C313 4210   5.872   2.227   7.773 -0.7442  0.2644  0.0677
   31SAPC  H13X 4211   5.936   2.315   7.749 -2.9412  1.5548 -1.4567
   31SAPC  H13Y 4212   5.914   2.138   7.823 -4.1770 -0.4336  2.0021
   31SAPC  C314 4213   5.748   2.278   7.845 -0.3721 -0.5744 -0.3882
   31SAPC  H14X 4214   5.680   2.196   7.875 -2.0770  1.2435  1.0419
   31SAPC  H14Y 4215   5.680   2.340   7.783  1.6815  1.4687 -0.7336
   31SAPC  C315 4216   5.785   2.374   7.961  0.1925  0.0833  0.2197
   31SAPC  H15X 4217   5.791   2.477   7.921 -0.6383 -0.6296 -1.8886
   31SAPC  H15Y 4218   5.885   2.352   8.004 -0.2747 -0.0311  1.2606
   31SAPC  C316 4219   5.688   2.371   8.083 -0.7403  0.0149 -0.0493
   31SAPC  H16X 4220   5.682   2.264   8.112  3.5414 -0.6515 -0.9838
   31SAPC  H16Y 4221   5.592   2.408   8.042  0.8040  2.4888 -1.7226
   31SAPC  C317 4222   5.722   2.447   8.211 -0.9538  0.1930 -0.3123
   31SAPC  H17X 4223   5.636   2.430   8.278  0.4131 -0.8043  1.2651
   31SAPC  H17Y 4224   5.731   2.556   8.193  0.2410  0.2355  0.4696
   31SAPC  C318 4225   5.842   2.398   8.288  0.6331  0.2477 -0.0552
   31SAPC  H18X 4226   5.857   2.448   8.386  1.9390  1.6046 -0.8856
   31SAPC  H18Y 4227   5.933   2.410   8.226  0.3559 -0.1451 -0.5427
   31SAPC  H18Z 4228   5.836   2.287   8.294  4.8537 -0.1729 -0.7971
   32SAPC     N 4229   6.385   4.835   5.485  0.7198 -0.1566  0.1358
   32SAPC   C12 4230   6.403   4.872   5.634  0.4353 -0.1961 -0.2311
   32SAPC  H12A 4231   6.465   4.959   5.650 -1.9511  1.2935  1.7711
   32SAPC  H12B 4232   6.451   4.792   5.689  3.0192  0.2056 -1.7298
   32SAPC   C13 4233   6.528   4.816   5.439  0.0833  0.0803 -0.5935
   32SAPC  H13A 4234   6.586   4.904   5.463  2.2309 -1.8467  1.8133
   32SAPC  H13B 4235   6.569   4.734   5.495 -0.7578 -0.0181 -0.1012
   32SAPC  H13C 4236   6.539   4.804   5.332  0.1050 -0.4508 -0.5346
   32SAPC   C14 4237   6.329   4.695   5.471  0.7681 -0.7487 -0.8794
   32SAPC  H14A 4238   6.376   4.632   5.545  0.8451  0.6224  0.2788
   32SAPC  H14B 4239   6.224   4.689   5.496  1.0816 -0.8941  0.4894
   32SAPC  H14C 4240   6.362   4.657   5.376  1.0309  1.8021 -1.9029
   32SAPC   C15 4241   6.312   4.928   5.387  0.0062  0.2418 -1.0971
   32SAPC  H15A 4242   6.212   4.952   5.419  0.3034 -0.5713  0.5528
   32SAPC  H15B 4243   6.360   5.025   5.390 -0.3040  0.4039 -1.3471
   32SAPC  H15C 4244   6.296   4.886   5.289  0.6785 -1.2496 -0.6068
   32SAPC   C11 4245   6.268   4.903   5.702 -0.0149 -0.4984 -0.3456
   32SAPC  H11A 4246   6.218   4.985   5.645  1.2168  0.6538  0.1881
   32SAPC  H11B 4247   6.292   4.966   5.791  1.7865  1.8442 -2.3391
   32SAPC     P 4248   6.232   4.671   5.828 -0.0350  0.1237 -0.1642
   32SAPC   O13 4249   6.118   4.598   5.886  0.1926 -0.2707  0.4762
   32SAPC   O14 4250   6.334   4.586   5.769 -0.0282 -0.3114  0.2566
   32SAPC   O12 4251   6.190   4.786   5.723  0.0776  0.3691  0.2340
   32SAPC   O11 4252   6.303   4.763   5.945 -0.2621  0.2851 -0.0328
   32SAPC    C1 4253   6.402   4.710   6.028 -0.2471  0.5885  0.1486
   32SAPC    HA 4254   6.382   4.608   6.066  0.9842  0.6014  0.9167
   32SAPC    HB 4255   6.495   4.702   5.968 -0.9919 -0.7333 -0.8588
   32SAPC    C2 4256   6.431   4.813   6.143  0.4639 -0.5056 -0.3897
   32SAPC    HS 4257   6.506   4.771   6.214  1.2261 -0.5217 -1.1910
   32SAPC   O21 4258   6.311   4.832   6.217  1.0544 -0.4058 -0.2398
   32SAPC   C21 4259   6.280   4.750   6.317 -1.1048  0.5538  0.5046
   32SAPC   O22 4260   6.354   4.663   6.358 -0.2197  0.0757  0.7257
   32SAPC   C22 4261   6.141   4.770   6.373  0.9748 -0.2172 -0.3810
   32SAPC   H2R 4262   6.076   4.823   6.300  0.2320  0.1583  0.5340
   32SAPC   H2S 4263   6.092   4.673   6.399  1.5319 -0.0964  1.2642
   32SAPC    C3 4264   6.481   4.947   6.086  0.1132  0.1774 -0.2074
   32SAPC    HX 4265   6.404   4.984   6.015  0.0607  1.3457  0.4400
   32SAPC    HY 4266   6.570   4.929   6.022 -0.3851  1.5154 -1.3332
   32SAPC   O31 4267   6.490   5.056   6.180 -0.3053  0.0677  0.4144
   32SAPC   C31 4268   6.603   5.053   6.249 -0.6309 -0.7384  0.6963
   32SAPC   O32 4269   6.702   4.982   6.230  0.4950 -0.2207  0.1434
   32SAPC   C32 4270   6.601   5.155   6.358 -1.0441 -0.1327 -0.3713
   32SAPC   H2X 4271   6.519   5.126   6.427 -0.6444 -0.2837  0.0463
   32SAPC   H2Y 4272   6.591   5.254   6.307  0.8451  0.0754 -0.4000
   32SAPC   C23 4273   6.151   4.845   6.514  0.3135  0.8808 -1.2635
   32SAPC   H3R 4274   6.194   4.946   6.498  0.6414  0.8005 -0.9160
   32SAPC   H3S 4275   6.215   4.792   6.588  0.6060  2.1648 -0.5679
   32SAPC   C24 4276   6.017   4.870   6.587 -0.7815  0.6839  0.0043
   32SAPC   H4R 4277   5.952   4.912   6.507  0.3283 -0.5024 -1.6057
   32SAPC   H4S 4278   6.043   4.943   6.666 -0.2081 -0.4622  0.9172
   32SAPC   C25 4279   5.951   4.754   6.654  0.3395  0.2865  0.1336
   32SAPC   H5R 4280   5.904   4.684   6.583  1.2440 -1.0910  0.8433
   32SAPC   C26 4281   5.953   4.717   6.782 -0.0476 -0.3410  0.3828
   32SAPC   H6R 4282   5.914   4.618   6.810  0.3970 -0.5617  0.2231
   32SAPC   C27 4283   6.035   4.783   6.890 -1.4891 -0.0198 -0.2054
   32SAPC   H7R 4284   6.094   4.865   6.844  0.0517  0.3125  2.2080
   32SAPC   H7S 4285   6.108   4.704   6.920 -0.0789  0.3479 -2.4100
   32SAPC   C28 4286   5.947   4.844   6.994  0.2691  0.3326  0.2258
   32SAPC   H8R 4287   5.877   4.922   6.962 -0.7828 -0.7235 -0.1353
   32SAPC   C29 4288   5.955   4.814   7.127  0.5179 -0.1086 -0.1271
   32SAPC   H9R 4289   5.882   4.861   7.195  1.0261 -0.5338  0.7421
   32SAPC  C210 4290   6.052   4.724   7.201  0.4128 -0.3107 -0.2532
   32SAPC  H10R 4291   6.123   4.795   7.247  0.4286  0.2061 -1.0711
   32SAPC  H10S 4292   6.113   4.663   7.131  0.7359  0.1834 -0.3985
   32SAPC  C211 4293   5.988   4.634   7.299  1.1821 -0.0562 -0.1447
   32SAPC  H11R 4294   5.924   4.553   7.261 -1.2858  2.4574 -1.7495
   32SAPC  C212 4295   5.998   4.641   7.434 -0.4074  0.1485  0.5140
   32SAPC  H12R 4296   5.952   4.570   7.505 -1.2131 -0.0904 -0.2315
   32SAPC  C213 4297   6.072   4.750   7.507  0.1442 -0.5125 -0.3948
   32SAPC  H13R 4298   6.063   4.846   7.451 -1.1962 -0.1079  0.4456
   32SAPC  H13S 4299   6.177   4.716   7.506  0.5465  0.6160  0.5543
   32SAPC  C214 4300   6.030   4.759   7.654 -0.2155 -0.5882 -0.0763
   32SAPC  H14R 4301   6.047   4.667   7.713 -0.9082 -0.0574  0.9877
   32SAPC  C215 4302   5.965   4.863   7.714  0.6649  0.0828  0.1593
   32SAPC  H15R 4303   5.945   4.846   7.821  0.6324 -0.5919  0.0513
   32SAPC  C216 4304   5.903   4.989   7.658  0.0179  0.1308  0.2579
   32SAPC  H16R 4305   5.922   4.986   7.549 -1.0023 -3.1851  0.0661
   32SAPC  H16S 4306   5.951   5.082   7.697 -0.7824 -0.0730  1.8164
   32SAPC  C217 4307   5.750   5.002   7.676  0.2649  0.9732  0.5085
   32SAPC  H17R 4308   5.699   5.098   7.651 -0.0235  1.0649  1.4268
   32SAPC  H17S 4309   5.733   4.994   7.785  1.3823 -0.1505  0.6264
   32SAPC  C218 4310   5.676   4.895   7.598  0.2744 -0.0915  0.1812
   32SAPC  H18R 4311   5.577   4.902   7.649  1.0852  1.2380  1.6475
   32SAPC  H18S 4312   5.709   4.793   7.628 -1.3433 -0.3943  1.0477
   32SAPC  C219 4313   5.680   4.909   7.441 -0.7275  0.2935 -0.1303
   32SAPC  H19R 4314   5.637   4.820   7.392 -1.8516  0.8339 -0.1505
   32SAPC  H19S 4315   5.790   4.906   7.422 -0.5627  1.8377  0.4190
   32SAPC  C220 4316   5.631   5.044   7.385  0.1717  0.3320  0.3368
   32SAPC  H20R 4317   5.524   5.047   7.414 -0.0963  0.0641 -0.5822
   32SAPC  H20S 4318   5.628   5.054   7.274 -0.7847 -4.7874 -0.3361
   32SAPC  H20T 4319   5.673   5.136   7.432  1.0608 -0.3970  1.0080
   32SAPC   C33 4320   6.739   5.148   6.438  0.9217  0.2499 -0.1956
   32SAPC   H3X 4321   6.812   5.194   6.367  1.0137  0.8129  0.2512
   32SAPC   H3Y 4322   6.764   5.041   6.454 -0.0388 -0.0112 -0.4333
   32SAPC   C34 4323   6.730   5.216   6.579  0.6510 -0.2859  0.3928
   32SAPC   H4X 4324   6.640   5.182   6.635  0.4624  1.1749  1.0133
   32SAPC   H4Y 4325   6.713   5.324   6.560 -1.9889 -0.8161 -0.7266
   32SAPC   C35 4326   6.850   5.186   6.659  0.6941  0.2660 -0.0966
   32SAPC   H5X 4327   6.936   5.216   6.596  1.5033  0.2352  0.9768
   32SAPC   H5Y 4328   6.865   5.077   6.668 -0.2050  0.1420  0.0124
   32SAPC   C36 4329   6.872   5.240   6.803  0.3801  0.0430  0.0286
   32SAPC   H6X 4330   6.846   5.348   6.806  0.9616  0.1616  1.3912
   32SAPC   H6Y 4331   6.979   5.226   6.831  0.5163  0.1071 -0.4456
   32SAPC   C37 4332   6.784   5.173   6.910  0.6232  0.2242 -0.9094
   32SAPC   H7X 4333   6.832   5.074   6.930  1.3164  0.1019 -2.9287
   32SAPC   H7Y 4334   6.680   5.162   6.874  0.3065 -2.1344  0.5128
   32SAPC   C38 4335   6.769   5.255   7.044 -0.4074 -0.7061  0.5438
   32SAPC   H8X 4336   6.690   5.206   7.104  0.6643  0.1075  2.7506
   32SAPC   H8Y 4337   6.730   5.351   7.005  1.3297 -0.8770 -1.8009
   32SAPC   C39 4338   6.902   5.268   7.124 -0.6772 -0.1952 -0.6635
   32SAPC   H9X 4339   6.975   5.330   7.068 -0.3043 -1.0050 -1.0807
   32SAPC   H9Y 4340   6.946   5.166   7.124 -1.3335 -0.5042 -2.4482
   32SAPC  C310 4341   6.879   5.317   7.268 -0.5419 -0.1136  0.1977
   32SAPC  H10X 4342   6.812   5.253   7.330 -0.0615  0.3363  1.2027
   32SAPC  H10Y 4343   6.827   5.414   7.258  2.8364  1.8216 -0.1269
   32SAPC  C311 4344   7.009   5.331   7.345 -0.7763 -0.2457  0.1856
   32SAPC  H11X 4345   7.076   5.380   7.272 -0.7826 -1.3540 -0.5742
   32SAPC  H11Y 4346   7.049   5.234   7.380 -0.9686 -0.0223  1.0544
   32SAPC  C312 4347   7.008   5.427   7.462 -0.5615 -1.1851  0.7132
   32SAPC  H12X 4348   6.949   5.391   7.549 -1.5040 -0.9207  0.1994
   32SAPC  H12Y 4349   6.959   5.525   7.444 -0.1831 -1.0639  0.3454
   32SAPC  C313 4350   7.152   5.459   7.512  0.7882  0.1559 -0.2257
   32SAPC  H13X 4351   7.206   5.496   7.422  1.4112 -0.8362 -0.2788
   32SAPC  H13Y 4352   7.194   5.359   7.535 -1.2322 -0.7224 -0.1276
   32SAPC  C314 4353   7.171   5.556   7.630  0.5023 -0.2763 -0.2460
   32SAPC  H14X 4354   7.119   5.497   7.709 -1.1223 -0.1766 -1.1810
   32SAPC  H14Y 4355   7.114   5.648   7.601  0.3948 -0.3962 -0.4197
   32SAPC  C315 4356   7.317   5.581   7.662  0.4481  0.1941  0.3657
   32SAPC  H15X 4357   7.363   5.593   7.562 -2.5760 -0.4862 -1.2471
   32SAPC  H15Y 4358   7.360   5.489   7.707 -0.1515  0.8822  2.4656
   32SAPC  C316 4359   7.346   5.695   7.761 -0.0015  0.1094 -0.2806
   32SAPC  H16X 4360   7.306   5.778   7.699 -0.7370 -0.3898 -0.4888
   32SAPC  H16Y 4361   7.454   5.693   7.785 -0.5317  0.2703  2.3412
   32SAPC  C317 4362   7.265   5.674   7.893  0.1534 -0.6164  0.0546
   32SAPC  H17X 4363   7.287   5.570   7.925  0.8165 -0.8711 -1.1435
   32SAPC  H17Y 4364   7.155   5.666   7.874  0.4478  0.2621 -2.3781
   32SAPC  C318 4365   7.293   5.774   8.007 -0.7367 -0.9724 -0.7741
   32SAPC  H18X 4366   7.383   5.748   8.067 -1.6596 -0.8718  0.6996
   32SAPC  H18Y 4367   7.209   5.767   8.079  0.4008  1.7628  0.9858
   32SAPC  H18Z 4368   7.299   5.877   7.966 -2.5718 -0.8618 -0.8186
   33POPC     N 4369   2.089   0.728  10.669  0.3342 -0.0696  0.6586
   33POPC   C12 4370   2.235   0.755  10.711  0.0433  0.1226 -0.5000
   33POPC  H12A 4371   2.234   0.849  10.764 -0.6998 -0.4436  0.5506
   33POPC  H12B 4372   2.299   0.768  10.625  1.9692  0.0929  0.8536
   33POPC   C13 4373   2.058   0.847  10.584 -0.0615 -0.1904 -0.1036
   33POPC  H13A 4374   1.953   0.860  10.562 -0.0379 -1.0605 -0.7851
   33POPC  H13B 4375   2.072   0.942  10.634 -1.3652  0.8108 -1.5391
   33POPC  H13C 4376   2.101   0.847  10.485 -1.7448 -0.6383 -0.8723
   33POPC   C14 4377   2.062   0.597  10.590  0.6429  0.8820 -0.4396
   33POPC  H14A 4378   2.118   0.589  10.498  0.8465 -1.6478 -0.1593
   33POPC  H14B 4379   2.090   0.512  10.650 -2.0361  1.4616  1.8041
   33POPC  H14C 4380   1.961   0.592  10.552  0.5492 -1.4347 -0.0308
   33POPC   C15 4381   2.007   0.727  10.792 -0.1982  0.5066 -0.9328
   33POPC  H15A 4382   1.900   0.719  10.779 -0.5455  0.4847  1.3572
   33POPC  H15B 4383   2.022   0.817  10.850 -1.8895  0.0606  0.2816
   33POPC  H15C 4384   2.024   0.641  10.855  0.0953  0.8782 -0.4949
   33POPC   C11 4385   2.297   0.638  10.793  0.3160  0.5753  0.1195
   33POPC  H11A 4386   2.223   0.582  10.854 -1.5101  0.7879 -1.7692
   33POPC  H11B 4387   2.366   0.690  10.863  1.1578  1.3559 -1.2334
   33POPC     P 4388   2.510   0.589  10.646  0.4276 -0.2456  0.0304
   33POPC   O13 4389   2.565   0.472  10.576 -0.4816  0.0304 -0.0343
   33POPC   O14 4390   2.593   0.665  10.744  0.1513 -0.5837  0.5505
   33POPC   O12 4391   2.372   0.547  10.710 -0.3362 -0.0946 -0.1133
   33POPC   O11 4392   2.455   0.686  10.534 -0.1828  0.2942  0.6403
   33POPC    C1 4393   2.374   0.634  10.430 -1.3213 -1.0628  0.3143
   33POPC    HA 4394   2.373   0.523  10.434 -0.2217 -1.1278 -0.8669
   33POPC    HB 4395   2.274   0.683  10.422  0.3260  2.5959  0.3463
   33POPC    C2 4396   2.441   0.673  10.290  0.6860  0.7266  0.3514
   33POPC    HS 4397   2.543   0.633  10.306 -0.0318 -0.0463  3.8771
   33POPC   O21 4398   2.431   0.814  10.279  0.3154 -0.3454 -0.2569
   33POPC   C21 4399   2.536   0.871  10.234 -0.6135 -0.3784  0.0281
   33POPC   O22 4400   2.645   0.813  10.223  0.1307  0.2721  0.3636
   33POPC   C22 4401   2.510   1.018  10.192 -0.5267  0.0686 -1.2330
   33POPC   H2R 4402   2.545   1.082  10.276 -1.9349  0.4446 -0.8994
   33POPC   H2S 4403   2.401   1.032  10.204 -0.5542 -1.0207  0.1515
   33POPC    C3 4404   2.385   0.601  10.161 -0.1494 -0.3964  0.3290
   33POPC    HX 4405   2.285   0.650  10.160 -0.3632 -0.8226 -0.8537
   33POPC    HY 4406   2.361   0.494  10.174 -0.8702 -0.2920 -0.0506
   33POPC   O31 4407   2.447   0.638  10.028  0.0876  0.0982 -0.8045
   33POPC   C31 4408   2.550   0.553  10.006 -0.2267 -1.1049  0.6486
   33POPC   O32 4409   2.576   0.447  10.060  0.2656 -0.1799  0.1596
   33POPC   C32 4410   2.636   0.603   9.886 -0.1515  0.1811  0.0592
   33POPC   H2X 4411   2.665   0.709   9.900  1.0436 -0.1370  0.1170
   33POPC   H2Y 4412   2.574   0.591   9.795  1.4845  1.0507 -1.2243
   33POPC   C23 4413   2.567   1.057  10.060  0.0196 -0.4651 -0.2853
   33POPC   H3R 4414   2.525   1.155  10.027 -0.0163 -0.3486  0.1054
   33POPC   H3S 4415   2.536   0.976   9.991  1.0649 -1.5605  0.5082
   33POPC   C24 4416   2.717   1.070  10.060 -0.0403  0.4646  0.4329
   33POPC   H4R 4417   2.767   0.978  10.097 -1.4448  0.2392  1.8559
   33POPC   H4S 4418   2.748   1.145  10.136 -0.9356  0.9728  0.3141
   33POPC   C25 4419   2.790   1.097   9.929 -0.6141  0.3606 -0.4077
   33POPC   H5R 4420   2.807   1.005   9.869 -0.8399  0.7050 -1.0086
   33POPC   H5S 4421   2.889   1.140   9.958  0.0007 -2.0671  1.4584
   33POPC   C26 4422   2.708   1.176   9.835  0.4633 -0.7058 -0.4723
   33POPC   H6R 4423   2.679   1.268   9.889 -0.5139 -0.8627 -0.7150
   33POPC   H6S 4424   2.624   1.112   9.801  0.9196 -0.6198 -1.8705
   33POPC   C27 4425   2.776   1.221   9.709 -0.7253  0.3711 -0.0969
   33POPC   H7R 4426   2.816   1.136   9.650  1.0882  1.9906 -1.3614
   33POPC   H7S 4427   2.868   1.275   9.740 -0.7541  0.7802 -0.6877
   33POPC   C28 4428   2.683   1.315   9.625 -0.1818 -0.1060 -0.2564
   33POPC   H8R 4429   2.639   1.389   9.695 -1.6011  0.3260 -1.5544
   33POPC   H8S 4430   2.590   1.264   9.592  0.0682 -2.2701  2.1108
   33POPC   C29 4431   2.753   1.393   9.517 -0.2711 -0.8453  0.0311
   33POPC   H91 4432   2.818   1.470   9.561 -0.8913 -0.3697  0.1306
   33POPC  C210 4433   2.736   1.402   9.389 -0.1515 -0.0323  0.5270
   33POPC  H101 4434   2.806   1.463   9.331 -0.1115 -0.7703 -0.2311
   33POPC  C211 4435   2.651   1.316   9.294  0.0320  0.4953 -0.5473
   33POPC  H11R 4436   2.566   1.370   9.247 -1.8170 -2.0463 -0.3482
   33POPC  H11S 4437   2.603   1.230   9.346  2.4757 -0.9759 -0.5853
   33POPC  C212 4438   2.728   1.247   9.186  0.4639 -0.0428  0.3055
   33POPC  H12R 4439   2.652   1.193   9.126 -1.8700 -0.3347  3.2654
   33POPC  H12S 4440   2.789   1.158   9.215 -0.3984 -1.4913 -2.0561
   33POPC  C213 4441   2.797   1.335   9.090  0.6876 -0.4036  0.1827
   33POPC  H13R 4442   2.885   1.390   9.131 -0.8694  1.3395  1.3702
   33POPC  H13S 4443   2.715   1.407   9.069 -0.2253 -0.9455  1.7569
   33POPC  C214 4444   2.835   1.251   8.967 -0.4791  0.0983 -0.2793
   33POPC  H14R 4445   2.747   1.214   8.910  1.0684 -1.8197 -1.5228
   33POPC  H14S 4446   2.875   1.156   9.008 -0.7113  0.2781  0.3920
   33POPC  C215 4447   2.938   1.318   8.872  0.0496 -0.1925 -0.1598
   33POPC  H15R 4448   3.044   1.306   8.902 -0.1778  0.4532  0.9378
   33POPC  H15S 4449   2.914   1.426   8.861 -2.7650 -0.7057  0.1057
   33POPC  C216 4450   2.934   1.251   8.731 -0.3695 -0.4921 -0.0359
   33POPC  H16R 4451   2.830   1.247   8.693 -0.4838  2.8979 -0.4401
   33POPC  H16S 4452   2.975   1.149   8.725 -0.0613 -0.2884 -2.5924
   33POPC  C217 4453   3.015   1.327   8.626  0.1282 -0.5216  0.2382
   33POPC  H17R 4454   2.978   1.284   8.530 -3.5808  0.0394  1.2525
   33POPC  H17S 4455   3.122   1.310   8.649 -0.0999  0.3744  2.1757
   33POPC  C218 4456   2.982   1.481   8.617  0.5028  0.6997  0.0816
   33POPC  H18R 4457   3.021   1.524   8.712  3.2085 -0.5902 -0.3522
   33POPC  H18S 4458   2.874   1.500   8.601  0.5746 -0.7166 -2.7057
   33POPC  H18T 4459   3.026   1.525   8.525  0.3863 -0.8885 -0.7742
   33POPC   C33 4460   2.765   0.513   9.877 -0.4681  0.6466  0.3783
   33POPC   H3X 4461   2.742   0.405   9.889  1.1602  0.0733 -1.2040
   33POPC   H3Y 4462   2.821   0.540   9.969 -0.7303  0.7446  0.5097
   33POPC   C34 4463   2.855   0.523   9.755 -0.4682 -0.7221  1.0042
   33POPC   H4X 4464   2.947   0.465   9.779 -0.4789 -1.1771 -0.0092
   33POPC   H4Y 4465   2.878   0.627   9.722  0.3034 -0.2039  3.0183
   33POPC   C35 4466   2.803   0.455   9.625 -0.3141  0.2424  0.8554
   33POPC   H5X 4467   2.717   0.521   9.602  0.0564  0.9309  1.4102
   33POPC   H5Y 4468   2.749   0.360   9.642  0.0586 -0.4125 -1.3730
   33POPC   C36 4469   2.908   0.441   9.514  0.1624 -0.3117  0.2346
   33POPC   H6X 4470   2.977   0.363   9.554 -0.1865 -0.4512  0.5766
   33POPC   H6Y 4471   2.975   0.529   9.500  0.0060  0.0792  1.7699
   33POPC   C37 4472   2.835   0.418   9.385  0.0571 -0.4923 -0.5619
   33POPC   H7X 4473   2.782   0.510   9.350  0.1760  0.1951  0.9852
   33POPC   H7Y 4474   2.756   0.343   9.407 -2.1907  1.9900  0.3467
   33POPC   C38 4475   2.924   0.366   9.267 -0.2406  0.3956  0.3920
   33POPC   H8X 4476   2.967   0.267   9.295 -0.0123 -0.3094 -2.1614
   33POPC   H8Y 4477   3.014   0.428   9.254  0.1414 -0.5456 -2.1637
   33POPC   C39 4478   2.858   0.365   9.128  0.3826 -0.3554 -0.2979
   33POPC   H9X 4479   2.825   0.468   9.101  1.2816  0.1298  0.3959
   33POPC   H9Y 4480   2.773   0.294   9.132  0.8824 -0.9520 -0.0132
   33POPC  C310 4481   2.949   0.307   9.017 -0.5831  0.1513  0.7195
   33POPC  H10X 4482   2.989   0.212   9.058  2.2902  0.7863 -0.4027
   33POPC  H10Y 4483   3.042   0.365   9.003 -1.0260  0.4850 -1.0044
   33POPC  C311 4484   2.876   0.276   8.884  0.0866 -0.8399  0.1743
   33POPC  H11X 4485   2.787   0.212   8.902 -0.6323 -0.6761 -2.4245
   33POPC  H11Y 4486   2.945   0.228   8.811  0.6429 -0.1273  0.2160
   33POPC  C312 4487   2.818   0.405   8.819 -0.0677 -0.1409  0.2144
   33POPC  H12X 4488   2.912   0.463   8.808 -1.7545  2.9383  1.0383
   33POPC  H12Y 4489   2.747   0.467   8.877 -1.2492  0.1617 -1.4647
   33POPC  C313 4490   2.755   0.377   8.683  0.3346  0.6141  1.3637
   33POPC  H13X 4491   2.659   0.322   8.694 -0.1375  1.6386  2.7011
   33POPC  H13Y 4492   2.829   0.312   8.632  0.8677  1.3537  1.1710
   33POPC  C314 4493   2.737   0.502   8.596 -0.0619 -0.6742 -0.0905
   33POPC  H14X 4494   2.835   0.549   8.575  0.7148 -1.7664  0.9252
   33POPC  H14Y 4495   2.682   0.578   8.656  0.6669 -1.1584  1.2407
   33POPC  C315 4496   2.656   0.488   8.466  0.0042 -0.0210  0.9992
   33POPC  H15X 4497   2.579   0.409   8.479 -0.2476  0.2580  1.2210
   33POPC  H15Y 4498   2.719   0.465   8.377  0.8854  2.4471  0.8974
   33POPC  C316 4499   2.572   0.619   8.430 -0.3211 -0.5346  0.1926
   33POPC  H16X 4500   2.640   0.694   8.384  0.1205 -0.6485  0.6479
   33POPC  H16Y 4501   2.514   0.656   8.517  0.3357 -0.4394  0.5970
   33POPC  H16Z 4502   2.496   0.593   8.353 -1.5800  2.2412  0.3819
   34POPC     N 4503   0.661   5.622  10.477 -0.4481 -0.4332 -0.5092
   34POPC   C12 4504   0.549   5.629  10.375 -0.4876 -0.4743  1.3343
   34POPC  H12A 4505   0.478   5.708  10.395 -0.8407 -0.7355  1.1414
   34POPC  H12B 4506   0.487   5.541  10.381 -0.3200 -0.6626  0.4979
   34POPC   C13 4507   0.608   5.598  10.609 -0.5651  0.5681  0.6622
   34POPC  H13A 4508   0.546   5.680  10.640 -0.7145  0.5905  0.2978
   34POPC  H13B 4509   0.548   5.508  10.609  0.7804 -0.3707  0.7603
   34POPC  H13C 4510   0.699   5.589  10.668 -0.7707 -0.6985  0.8132
   34POPC   C14 4511   0.748   5.505  10.442  0.3264  0.0761  0.2035
   34POPC  H14A 4512   0.689   5.418  10.465 -0.6983  0.7495  0.1484
   34POPC  H14B 4513   0.775   5.496  10.338 -0.2724 -1.6664  0.1708
   34POPC  H14C 4514   0.836   5.515  10.505 -0.0168  2.0112  0.4418
   34POPC   C15 4515   0.748   5.744  10.483  0.0238 -0.3515  0.2890
   34POPC  H15A 4516   0.791   5.767  10.387 -0.9402  2.7359  0.4919
   34POPC  H15B 4517   0.839   5.741  10.541 -0.0209  0.8164  0.4392
   34POPC  H15C 4518   0.689   5.828  10.517 -1.0185 -1.4835  1.3663
   34POPC   C11 4519   0.599   5.644  10.223 -0.0881  0.0593 -0.1803
   34POPC  H11A 4520   0.509   5.634  10.158  1.0823 -0.7706 -1.7304
   34POPC  H11B 4521   0.665   5.557  10.203  1.2415  0.4550  2.0667
   34POPC     P 4522   0.600   5.900  10.202  0.0746  0.1266  0.3799
   34POPC   O13 4523   0.707   5.996  10.195 -0.3783 -0.4433 -0.4028
   34POPC   O14 4524   0.508   5.913  10.317 -0.1463  0.4580 -0.0571
   34POPC   O12 4525   0.670   5.761  10.195 -0.1875  0.0276  0.1463
   34POPC   O11 4526   0.507   5.899  10.079  0.6625 -0.0986  0.4117
   34POPC    C1 4527   0.544   5.833   9.952  0.3748 -0.1610  0.5242
   34POPC    HA 4528   0.453   5.816   9.891  1.3788  0.9915 -1.4042
   34POPC    HB 4529   0.586   5.732   9.975  2.1781  0.9958  2.6904
   34POPC    C2 4530   0.645   5.916   9.869  0.0468 -0.7251 -0.2420
   34POPC    HS 4531   0.730   5.926   9.940 -0.4785 -1.1277  0.4453
   34POPC   O21 4532   0.583   6.038   9.836 -0.8980  0.1833  0.6895
   34POPC   C21 4533   0.669   6.140   9.810 -0.3887  0.1705  0.6946
   34POPC   O22 4534   0.790   6.135   9.833  0.4680  0.4952  0.0380
   34POPC   C22 4535   0.593   6.263   9.758 -0.6071  0.1923 -0.1251
   34POPC   H2R 4536   0.591   6.346   9.832 -1.4796  0.3168 -0.2781
   34POPC   H2S 4537   0.487   6.231   9.755 -0.4324 -0.6619  1.8858
   34POPC    C3 4538   0.703   5.850   9.736  0.5300  0.6670  0.4930
   34POPC    HX 4539   0.780   5.771   9.753 -0.5335 -0.0211  2.5067
   34POPC    HY 4540   0.754   5.924   9.672 -0.6381  0.5689 -0.5809
   34POPC   O31 4541   0.593   5.806   9.656 -0.0534 -0.2768 -0.1783
   34POPC   C31 4542   0.618   5.749   9.540 -0.2658 -0.0041 -0.7038
   34POPC   O32 4543   0.728   5.732   9.497 -0.1914 -0.2371  0.4163
   34POPC   C32 4544   0.492   5.691   9.478 -0.4786  0.0093  0.1926
   34POPC   H2X 4545   0.424   5.778   9.465 -0.5381 -0.2246 -1.0988
   34POPC   H2Y 4546   0.459   5.613   9.551  0.0771 -0.7006 -0.3029
   34POPC   C23 4547   0.633   6.299   9.616  0.7310  0.2230  0.2176
   34POPC   H3R 4548   0.609   6.216   9.547 -0.8680  0.7040  0.1598
   34POPC   H3S 4549   0.743   6.315   9.604  2.0407 -2.9450  5.1951
   34POPC   C24 4550   0.562   6.421   9.563 -0.5538 -0.4086  0.7417
   34POPC   H4R 4551   0.604   6.509   9.616 -1.9932  0.7666  0.0014
   34POPC   H4S 4552   0.457   6.417   9.598 -0.0496 -0.3867  2.3456
   34POPC   C25 4553   0.584   6.447   9.412 -0.4536 -0.2089  0.5167
   34POPC   H5R 4554   0.536   6.361   9.361 -2.8552  0.3763  1.6590
   34POPC   H5S 4555   0.694   6.454   9.400 -0.5704  1.0072 -0.0138
   34POPC   C26 4556   0.524   6.578   9.363 -0.4963 -0.3718 -0.4442
   34POPC   H6R 4557   0.559   6.663   9.427 -0.1171 -1.1006  0.3356
   34POPC   H6S 4558   0.414   6.589   9.369 -0.3565  2.1051 -1.2221
   34POPC   C27 4559   0.555   6.595   9.213 -0.4231 -0.2163  0.2640
   34POPC   H7R 4560   0.510   6.513   9.152 -0.8599  1.0189 -1.1175
   34POPC   H7S 4561   0.665   6.597   9.201 -0.2627  0.9910  1.6779
   34POPC   C28 4562   0.497   6.716   9.142  0.3033  0.3089  0.0833
   34POPC   H8R 4563   0.544   6.802   9.195  0.4032 -1.4080  3.0057
   34POPC   H8S 4564   0.393   6.727   9.178  0.9743 -0.2445  2.3401
   34POPC   C29 4565   0.504   6.714   8.991 -0.6889 -0.0027  0.0761
   34POPC   H91 4566   0.599   6.755   8.953 -1.7766  1.0167 -1.7147
   34POPC  C210 4567   0.423   6.657   8.901  0.2069 -0.3185  0.6358
   34POPC  H101 4568   0.431   6.658   8.792 -3.3288 -1.9160  0.2338
   34POPC  C211 4569   0.307   6.571   8.939  0.6018 -0.1456 -0.7540
   34POPC  H11R 4570   0.215   6.608   8.889  1.5955  0.4475 -2.1996
   34POPC  H11S 4571   0.274   6.578   9.045  2.1773  1.0829 -0.3163
   34POPC  C212 4572   0.347   6.421   8.910  0.2238 -0.2469 -1.0668
   34POPC  H12R 4573   0.303   6.350   8.983 -0.1461  0.6322 -0.4240
   34POPC  H12S 4574   0.456   6.408   8.929  0.3431  2.0997  0.1991
   34POPC  C213 4575   0.325   6.392   8.762 -0.1505 -0.1013  0.1358
   34POPC  H13R 4576   0.370   6.295   8.732 -1.6839 -1.3430  1.6507
   34POPC  H13S 4577   0.381   6.464   8.698  0.8070  0.9316  2.0667
   34POPC  C214 4578   0.178   6.364   8.726  0.3233  0.1473  0.3362
   34POPC  H14R 4579   0.124   6.453   8.765  0.0457 -0.0427  0.3886
   34POPC  H14S 4580   0.137   6.274   8.778 -0.9165 -0.3561 -1.4373
   34POPC  C215 4581   0.158   6.337   8.574 -0.1170 -0.4718 -0.1484
   34POPC  H15R 4582   0.054   6.300   8.557 -0.1867 -0.2134 -0.2865
   34POPC  H15S 4583   0.238   6.264   8.549  1.8395  1.1531  1.0941
   34POPC  C216 4584   0.163   6.462   8.483  0.1735  0.6513 -0.3114
   34POPC  H16R 4585   0.245   6.529   8.517  1.0515 -0.6700  0.2126
   34POPC  H16S 4586   0.067   6.515   8.502  0.7097  1.4570  0.1954
   34POPC  C217 4587   0.185   6.437   8.333  0.0138  0.0092  0.3112
   34POPC  H17R 4588   0.096   6.378   8.303  1.1682 -3.4852  3.0201
   34POPC  H17S 4589   0.265   6.362   8.317  2.1135  2.0446  0.7805
   34POPC  C218 4590   0.194   6.569   8.250 -0.7311  0.6064 -0.0505
   34POPC  H18R 4591   0.253   6.552   8.157  0.5977 -0.6705  0.9788
   34POPC  H18S 4592   0.254   6.634   8.317 -0.0730 -0.5155  0.4791
   34POPC  H18T 4593   0.096   6.619   8.235 -0.5681  1.0129  0.2343
   34POPC   C33 4594   0.509   5.644   9.334  0.0407  0.1159 -0.4901
   34POPC   H3X 4595   0.562   5.547   9.334 -3.1176 -1.7941  1.4732
   34POPC   H3Y 4596   0.561   5.716   9.267 -1.1177  2.6141  1.1365
   34POPC   C34 4597   0.378   5.637   9.257  0.3654 -0.4863 -0.2417
   34POPC   H4X 4598   0.333   5.739   9.258  1.1520 -0.1059 -1.5284
   34POPC   H4Y 4599   0.316   5.573   9.324  1.5129  0.3698  1.7226
   34POPC   C35 4600   0.395   5.578   9.120 -0.1234  0.3668  0.3283
   34POPC   H5X 4601   0.436   5.477   9.140  1.8283  1.5330  2.5754
   34POPC   H5Y 4602   0.472   5.638   9.067  1.6087 -0.6278  1.6090
   34POPC   C36 4603   0.262   5.587   9.030  0.2096 -0.0365  0.2091
   34POPC   H6X 4604   0.247   5.697   9.029  2.0319  0.2331 -0.3099
   34POPC   H6Y 4605   0.187   5.536   9.095  0.5493  1.5287  1.9027
   34POPC   C37 4606   0.259   5.547   8.878 -0.3218  0.1884 -0.5819
   34POPC   H7X 4607   0.340   5.612   8.837 -0.1800  0.5270  0.2206
   34POPC   H7Y 4608   0.163   5.590   8.842 -1.3501 -1.0347  0.6136
   34POPC   C38 4609   0.268   5.393   8.841  0.4322  0.4178 -0.1009
   34POPC   H8X 4610   0.195   5.322   8.884  1.4936  0.0551  1.1871
   34POPC   H8Y 4611   0.366   5.357   8.880 -0.2964 -0.2556  1.1748
   34POPC   C39 4612   0.269   5.370   8.693  0.6143 -0.4440  0.5819
   34POPC   H9X 4613   0.350   5.438   8.659 -0.1488  0.3311  0.2744
   34POPC   H9Y 4614   0.177   5.427   8.668  0.4179 -0.0792  2.0246
   34POPC  C310 4615   0.291   5.231   8.656  0.5224 -0.4717  0.5312
   34POPC  H10X 4616   0.219   5.163   8.707 -0.5890  1.5412  1.8172
   34POPC  H10Y 4617   0.394   5.204   8.686  1.5493  1.9511 -0.5112
   34POPC  C311 4618   0.279   5.214   8.507 -0.0347  0.0622  0.1816
   34POPC  H11X 4619   0.365   5.149   8.480  2.3393  0.9273  4.6878
   34POPC  H11Y 4620   0.307   5.317   8.475  0.8732  0.0113  0.7613
   34POPC  C312 4621   0.137   5.190   8.453  0.0514 -0.3091 -0.4424
   34POPC  H12X 4622   0.071   5.277   8.472  0.0265 -0.4029 -0.0948
   34POPC  H12Y 4623   0.091   5.101   8.501 -0.0729 -0.4443 -0.8120
   34POPC  C313 4624   0.135   5.170   8.300 -0.1803 -0.2823 -0.3122
   34POPC  H13X 4625   0.040   5.125   8.262 -0.5594  0.5727 -0.4205
   34POPC  H13Y 4626   0.210   5.091   8.282  2.5711  2.4031 -1.6121
   34POPC  C314 4627   0.169   5.300   8.223  0.3931 -0.3246 -0.1069
   34POPC  H14X 4628   0.163   5.281   8.113  0.6498  1.5705 -0.4765
   34POPC  H14Y 4629   0.269   5.340   8.250  0.6919 -0.8047 -0.4777
   34POPC  C315 4630   0.066   5.424   8.225  0.5073  0.4240 -0.1093
   34POPC  H15X 4631   0.060   5.456   8.331 -0.3252  1.4030 -0.4404
   34POPC  H15Y 4632  -0.033   5.395   8.185  0.6170  1.5482 -1.2393
   34POPC  C316 4633   0.133   5.542   8.158 -0.0748 -0.0350 -0.8715
   34POPC  H16X 4634   0.161   5.512   8.055 -0.0826 -4.1199  0.1339
   34POPC  H16Y 4635   0.210   5.594   8.218 -1.1404 -0.3838  0.8812
   34POPC  H16Z 4636   0.058   5.623   8.147  2.1683  1.9387 -2.5614
   35POPC     N 4637   1.857   3.931  10.387  0.3133  0.3659  1.3915
   35POPC   C12 4638   1.724   3.980  10.338  0.5985  0.0413  0.9869
   35POPC  H12A 4639   1.665   4.033  10.412 -0.9894  0.5980 -0.6112
   35POPC  H12B 4640   1.665   3.894  10.309  0.9405  0.4166 -0.9499
   35POPC   C13 4641   1.838   3.815  10.482 -0.3660  0.1867 -0.3796
   35POPC  H13A 4642   1.783   3.855  10.566 -1.6736  1.5055 -1.8110
   35POPC  H13B 4643   1.789   3.730  10.439  0.9173 -1.3055  0.9643
   35POPC  H13C 4644   1.931   3.773  10.518  1.2041  2.4772 -1.4683
   35POPC   C14 4645   1.926   3.867  10.278  0.3650  0.1370  1.8500
   35POPC  H14A 4646   1.870   3.788  10.230 -0.1816  1.0690  0.8968
   35POPC  H14B 4647   1.936   3.934  10.194  0.8828 -1.2592  0.7620
   35POPC  H14C 4648   2.023   3.827  10.303  1.8207  2.4752  0.3172
   35POPC   C15 4649   1.944   4.037  10.442  0.3361 -0.7389  0.0989
   35POPC  H15A 4650   1.959   4.120  10.374  1.0883  0.2088  1.3696
   35POPC  H15B 4651   2.032   3.988  10.482 -0.2637 -1.7649  0.1794
   35POPC  H15C 4652   1.900   4.072  10.534 -0.0210  0.1812 -0.4142
   35POPC   C11 4653   1.734   4.076  10.215 -0.3816 -0.3514  0.7090
   35POPC  H11A 4654   1.636   4.075  10.164  1.2414 -0.2450 -2.6777
   35POPC  H11B 4655   1.807   4.044  10.138 -1.8539  1.4949 -1.5742
   35POPC     P 4656   1.672   4.323  10.282 -0.3023  0.1874 -0.4000
   35POPC   O13 4657   1.744   4.432  10.355  0.4057 -0.1089  0.2154
   35POPC   O14 4658   1.542   4.265  10.336 -0.2572 -0.3521 -0.0025
   35POPC   O12 4659   1.774   4.204  10.258 -0.0766  0.0481 -0.0055
   35POPC   O11 4660   1.644   4.378  10.137  0.4365  0.2247  0.1045
   35POPC    C1 4661   1.754   4.400  10.043  0.8380 -0.3357 -0.1743
   35POPC    HA 4662   1.742   4.317   9.970 -0.6243 -0.5992  0.3285
   35POPC    HB 4663   1.853   4.398  10.093  0.4251 -1.9155  0.6285
   35POPC    C2 4664   1.739   4.533   9.975 -0.0582 -0.1405 -0.5343
   35POPC    HS 4665   1.723   4.606  10.057 -2.6713 -1.6890  0.4771
   35POPC   O21 4666   1.623   4.540   9.881 -0.5919 -0.5346  0.0969
   35POPC   C21 4667   1.562   4.658   9.858 -0.4545  0.1167  0.0102
   35POPC   O22 4668   1.587   4.764   9.919  0.5003 -0.1798  0.5086
   35POPC   C22 4669   1.479   4.651   9.734 -0.8200 -0.2458  0.0859
   35POPC   H2R 4670   1.524   4.587   9.656  0.6713  2.8569 -1.7653
   35POPC   H2S 4671   1.505   4.748   9.688  3.3143 -0.9405  0.6122
   35POPC    C3 4672   1.867   4.574   9.899  0.3000 -0.1787  0.8986
   35POPC    HX 4673   1.954   4.575   9.968  0.4240  2.0060  0.7780
   35POPC    HY 4674   1.847   4.681   9.875  0.8257 -0.4687 -0.9597
   35POPC   O31 4675   1.888   4.498   9.778 -0.1467 -0.2979 -0.2428
   35POPC   C31 4676   1.887   4.565   9.665 -0.4058 -0.4440 -0.9507
   35POPC   O32 4677   1.869   4.684   9.651 -0.6129 -0.3019 -0.4616
   35POPC   C32 4678   1.915   4.471   9.549 -0.3337  0.0250 -0.9538
   35POPC   H2X 4679   1.835   4.395   9.562 -1.0688  0.9073 -0.0896
   35POPC   H2Y 4680   2.014   4.428   9.575  0.0365  0.0681 -2.2135
   35POPC   C23 4681   1.327   4.645   9.742 -0.0709  0.0596 -0.6684
   35POPC   H3R 4682   1.293   4.714   9.823  2.6224  1.7723 -0.8631
   35POPC   H3S 4683   1.307   4.545   9.785  0.2175 -0.3525 -1.4848
   35POPC   C24 4684   1.261   4.661   9.609 -0.9928  0.2248  0.7135
   35POPC   H4R 4685   1.155   4.628   9.617 -0.9536  0.5279  3.2152
   35POPC   H4S 4686   1.324   4.610   9.533 -2.5188  0.0490 -0.4795
   35POPC   C25 4687   1.269   4.811   9.549  0.2318  0.5721 -0.2520
   35POPC   H5R 4688   1.275   4.811   9.438 -0.0657  2.0649 -0.2932
   35POPC   H5S 4689   1.368   4.849   9.582  1.5081 -3.7943  1.6751
   35POPC   C26 4690   1.167   4.907   9.609  0.0302  0.2236  0.5569
   35POPC   H6R 4691   1.201   4.930   9.712  1.1054 -1.9427  0.7581
   35POPC   H6S 4692   1.068   4.859   9.624 -0.3604  0.7887 -0.1756
   35POPC   C27 4693   1.142   5.029   9.512 -0.1823 -0.0147 -0.7116
   35POPC   H7R 4694   1.070   5.092   9.567  0.4975  1.3563 -1.3522
   35POPC   H7S 4695   1.093   4.986   9.422  1.2030 -1.5062 -0.8097
   35POPC   C28 4696   1.267   5.106   9.478 -0.3388 -0.8633  0.3489
   35POPC   H8R 4697   1.341   5.042   9.425  0.1430  0.3281 -0.4718
   35POPC   H8S 4698   1.313   5.139   9.573  2.1003 -0.3795 -0.9135
   35POPC   C29 4699   1.255   5.235   9.404  0.7384 -0.4802 -0.1760
   35POPC   H91 4700   1.314   5.310   9.458  2.6086 -0.8048 -1.7041
   35POPC  C210 4701   1.189   5.253   9.287  0.6938  0.0662 -0.5946
   35POPC  H101 4702   1.187   5.357   9.252 -1.0617 -0.0805 -1.0288
   35POPC  C211 4703   1.106   5.149   9.212  0.1367  0.2001  0.0249
   35POPC  H11R 4704   1.014   5.137   9.273  1.4794 -0.9127  1.9463
   35POPC  H11S 4705   1.158   5.052   9.225  1.3293  0.9755  1.4681
   35POPC  C212 4706   1.085   5.186   9.068 -0.0119  0.0538  0.4112
   35POPC  H12R 4707   1.037   5.287   9.069 -1.7308 -0.6987  2.9384
   35POPC  H12S 4708   1.013   5.115   9.022  0.2623 -0.7890  1.2720
   35POPC  C213 4709   1.217   5.180   8.988 -0.2096  0.0026 -0.3545
   35POPC  H13R 4710   1.241   5.072   8.974  1.9624  0.5394 -1.1674
   35POPC  H13S 4711   1.305   5.209   9.050 -0.9018 -0.0379  0.6890
   35POPC  C214 4712   1.205   5.245   8.856  0.0790 -0.0091 -0.0259
   35POPC  H14R 4713   1.195   5.354   8.875  0.0210 -0.2683  1.5716
   35POPC  H14S 4714   1.118   5.227   8.789  0.3416 -0.9419 -0.1303
   35POPC  C215 4715   1.336   5.233   8.772  0.1232 -0.2369 -0.1122
   35POPC  H15R 4716   1.372   5.128   8.762  0.5909 -0.2150  1.0950
   35POPC  H15S 4717   1.416   5.289   8.825  0.8392  1.2260 -2.5727
   35POPC  C216 4718   1.325   5.291   8.631  0.6960 -0.3628 -0.0241
   35POPC  H16R 4719   1.288   5.395   8.636  2.8433  0.3766  2.6233
   35POPC  H16S 4720   1.245   5.222   8.595  0.6094  0.1132 -0.7573
   35POPC  C217 4721   1.449   5.279   8.542 -0.4045 -0.1374  0.0291
   35POPC  H17R 4722   1.416   5.304   8.439 -1.7639 -1.8420  0.0087
   35POPC  H17S 4723   1.488   5.175   8.542 -0.4558 -0.1635 -0.6835
   35POPC  C218 4724   1.567   5.367   8.585  0.2192 -0.6930 -0.9317
   35POPC  H18R 4725   1.646   5.349   8.509 -0.9384 -3.5294 -1.6063
   35POPC  H18S 4726   1.594   5.348   8.691 -0.2540  0.0952 -0.6575
   35POPC  H18T 4727   1.534   5.473   8.579  1.7994 -0.1908 -1.1171
   35POPC   C33 4728   1.914   4.544   9.411  0.1587  0.4113 -0.2871
   35POPC   H3X 4729   1.985   4.629   9.419  1.9695 -1.1827  3.0718
   35POPC   H3Y 4730   1.812   4.582   9.388 -0.5929 -2.1844 -1.6902
   35POPC   C34 4731   1.971   4.456   9.297 -0.3480 -0.2080  0.2662
   35POPC   H4X 4732   1.903   4.368   9.293 -0.2556 -0.2524 -0.6374
   35POPC   H4Y 4733   2.078   4.430   9.310 -0.0035  1.4835  1.0973
   35POPC   C35 4734   1.970   4.532   9.159 -0.8219  0.2317  0.5258
   35POPC   H5X 4735   2.049   4.611   9.157  2.3481 -2.7371 -0.2235
   35POPC   H5Y 4736   1.872   4.582   9.149 -1.1015 -0.4179  0.0106
   35POPC   C36 4737   1.992   4.434   9.048 -0.4388  0.1848 -0.0394
   35POPC   H6X 4738   1.912   4.358   9.041  0.4196 -0.6299 -1.4935
   35POPC   H6Y 4739   2.094   4.388   9.048 -1.4940 -2.3869 -1.7820
   35POPC   C37 4740   1.988   4.488   8.909 -0.2550 -0.5588  0.5901
   35POPC   H7X 4741   2.038   4.586   8.899 -1.0298 -0.2739 -0.7105
   35POPC   H7Y 4742   1.881   4.500   8.883 -0.3389  0.5941  1.4279
   35POPC   C38 4743   2.050   4.392   8.800  0.1032  0.6263 -1.0465
   35POPC   H8X 4744   1.980   4.310   8.775 -0.6941  1.0520 -0.2473
   35POPC   H8Y 4745   2.149   4.352   8.831 -1.0140 -0.9415  0.7173
   35POPC   C39 4746   2.072   4.459   8.664  0.2224 -0.1944  0.4410
   35POPC   H9X 4747   2.104   4.379   8.594  1.2026  1.3754 -0.9571
   35POPC   H9Y 4748   2.156   4.531   8.663  0.4010 -0.3659  1.6414
   35POPC  C310 4749   1.958   4.533   8.599  0.1105 -0.0887  0.3795
   35POPC  H10X 4750   1.939   4.634   8.640 -1.4150 -0.5031  0.7659
   35POPC  H10Y 4751   1.863   4.475   8.599 -2.2264  3.2647 -3.1361
   35POPC  C311 4752   1.996   4.575   8.456  0.0830 -0.0691 -0.7076
   35POPC  H11X 4753   1.898   4.608   8.414 -1.5300 -1.8474  1.4173
   35POPC  H11Y 4754   2.029   4.484   8.402 -0.1723 -0.9915  0.6508
   35POPC  C312 4755   2.102   4.687   8.439  0.2902  0.0037 -0.7542
   35POPC  H12X 4756   2.194   4.661   8.497 -0.6742  2.1703  2.0037
   35POPC  H12Y 4757   2.061   4.776   8.491 -0.6209 -0.6359 -0.3385
   35POPC  C313 4758   2.134   4.723   8.294  0.0607 -0.6634 -0.2903
   35POPC  H13X 4759   2.151   4.628   8.240  2.7058 -1.1480  1.1893
   35POPC  H13Y 4760   2.225   4.785   8.280 -1.3373  2.0904  1.7461
   35POPC  C314 4761   2.023   4.802   8.237  0.6907 -0.2711 -0.3478
   35POPC  H14X 4762   1.978   4.871   8.311 -2.7455 -0.9706 -1.5842
   35POPC  H14Y 4763   1.943   4.731   8.206  1.2514 -0.7998 -0.6267
   35POPC  C315 4764   2.057   4.881   8.107 -0.1556 -0.0152 -0.6101
   35POPC  H15X 4765   2.042   4.816   8.018 -0.5396 -2.0618  0.8790
   35POPC  H15Y 4766   2.168   4.886   8.109 -0.1826  0.5782  0.6716
   35POPC  C316 4767   1.994   5.017   8.091  0.1068 -0.1062  0.6395
   35POPC  H16X 4768   2.022   5.056   7.990 -0.5768  2.1905  1.2568
   35POPC  H16Y 4769   2.031   5.091   8.166 -0.0369  0.9837 -0.3286
   35POPC  H16Z 4770   1.883   5.017   8.088 -0.0112  3.5961  0.2278
   36POPC     N 4771   6.135   2.617  10.593  0.0850  0.3969  0.1727
   36POPC   C12 4772   6.079   2.490  10.530  0.1521 -0.6612  0.0099
   36POPC  H12A 4773   5.998   2.520  10.466  0.3455  1.3128  0.6030
   36POPC  H12B 4774   6.040   2.428  10.609 -0.0802  1.6538  1.8060
   36POPC   C13 4775   6.018   2.698  10.625  0.1811  0.3943 -0.2826
   36POPC  H13A 4776   5.955   2.716  10.539 -1.7344 -1.8004  0.5488
   36POPC  H13B 4777   5.954   2.653  10.700 -1.0737  1.6575 -0.5459
   36POPC  H13C 4778   6.044   2.797  10.661 -0.2557 -0.0468  1.3800
   36POPC   C14 4779   6.212   2.594  10.718  0.6679 -0.5910 -0.2133
   36POPC  H14A 4780   6.245   2.689  10.760  0.1602  0.1977 -1.5406
   36POPC  H14B 4781   6.156   2.538  10.791 -0.1328  0.5795  0.0952
   36POPC  H14C 4782   6.294   2.537  10.679  0.9352  0.0752 -0.6461
   36POPC   C15 4783   6.233   2.686  10.504 -0.8062  0.1737 -0.4660
   36POPC  H15A 4784   6.314   2.616  10.486  0.2730  0.3262  3.0885
   36POPC  H15B 4785   6.279   2.771  10.553 -3.4098  1.0411  0.6409
   36POPC  H15C 4786   6.192   2.719  10.410  0.6885 -0.8263 -1.5241
   36POPC   C11 4787   6.176   2.413  10.443 -0.2255  0.2164 -0.1085
   36POPC  H11A 4788   6.260   2.374  10.505 -1.4201  0.3552  1.6756
   36POPC  H11B 4789   6.222   2.481  10.368  2.7988  0.6184  1.9150
   36POPC     P 4790   6.051   2.175  10.436  0.5561 -0.1094  0.1343
   36POPC   O13 4791   5.941   2.121  10.358  0.6354 -0.3317 -0.5293
   36POPC   O14 4792   6.018   2.199  10.579  0.5943 -0.0833 -0.0656
   36POPC   O12 4793   6.104   2.309  10.371  0.2940 -0.7757 -0.0448
   36POPC   O11 4794   6.164   2.070  10.441  0.0066  0.0123 -0.2237
   36POPC    C1 4795   6.299   2.084  10.403  0.2954  0.0779 -0.3585
   36POPC    HA 4796   6.354   1.988  10.417  0.7261  0.1591 -1.3997
   36POPC    HB 4797   6.344   2.169  10.459 -0.7681  0.9316 -0.7711
   36POPC    C2 4798   6.323   2.114  10.253 -0.5710 -0.8478  0.5412
   36POPC    HS 4799   6.287   2.217  10.231  2.4368  0.1115 -0.4501
   36POPC   O21 4800   6.264   2.006  10.170  0.3887 -0.0628  0.5080
   36POPC   C21 4801   6.213   2.047  10.055 -0.1750 -0.2963 -0.4003
   36POPC   O22 4802   6.201   2.161  10.014  0.2219 -0.3952 -0.3867
   36POPC   C22 4803   6.161   1.922   9.977  0.0709  1.2927 -0.5048
   36POPC   H2R 4804   6.077   1.876  10.034  1.1709  0.8126  0.7672
   36POPC   H2S 4805   6.242   1.847   9.987  0.3045  1.8276  2.9326
   36POPC    C3 4806   6.481   2.105  10.229 -0.0265 -0.2278 -0.1806
   36POPC    HX 4807   6.517   2.004  10.255  0.9856  0.0000 -0.6546
   36POPC    HY 4808   6.524   2.171  10.308  0.9001 -0.4022 -0.5318
   36POPC   O31 4809   6.523   2.146  10.100  0.1521 -0.1088 -0.1418
   36POPC   C31 4810   6.531   2.276  10.085 -0.0668 -0.3217 -0.2472
   36POPC   O32 4811   6.492   2.363  10.163 -0.0962 -0.5074 -0.2121
   36POPC   C32 4812   6.613   2.307   9.959 -0.8327 -0.6149 -0.0773
   36POPC   H2X 4813   6.660   2.212   9.925  2.3789  0.1513  1.7525
   36POPC   H2Y 4814   6.701   2.368   9.989  0.1627 -1.6968 -0.6812
   36POPC   C23 4815   6.105   1.950   9.837  0.0964 -0.9560 -0.5307
   36POPC   H3R 4816   6.038   2.038   9.839  1.3910  0.1364 -2.3361
   36POPC   H3S 4817   6.049   1.859   9.804 -0.0536 -1.3394  0.7307
   36POPC   C24 4818   6.216   1.983   9.738 -0.3219 -0.0771 -0.5481
   36POPC   H4R 4819   6.295   2.046   9.785  0.1770  0.8088 -2.4593
   36POPC   H4S 4820   6.185   2.029   9.641 -2.5185 -0.8720 -0.2636
   36POPC   C25 4821   6.282   1.845   9.688 -0.1235  0.0609 -0.3933
   36POPC   H5R 4822   6.259   1.761   9.756 -1.5854  0.8474  0.1242
   36POPC   H5S 4823   6.389   1.873   9.677  0.1125  0.0222  1.4835
   36POPC   C26 4824   6.220   1.802   9.561  0.3738 -0.1608 -0.5537
   36POPC   H6R 4825   6.115   1.767   9.564  0.7666 -1.7345 -2.5958
   36POPC   H6S 4826   6.271   1.713   9.518  4.7096  1.7845  0.0406
   36POPC   C27 4827   6.242   1.901   9.438 -0.5181  0.2589 -0.1781
   36POPC   H7R 4828   6.336   1.948   9.474 -0.3742  0.1486 -0.4088
   36POPC   H7S 4829   6.152   1.965   9.446 -0.8203 -0.2276  0.3792
   36POPC   C28 4830   6.270   1.828   9.297 -0.2014  0.0041  0.8106
   36POPC   H8R 4831   6.362   1.767   9.312  0.0075  0.5005  1.6664
   36POPC   H8S 4832   6.279   1.914   9.228 -2.4505 -0.0837  0.3606
   36POPC   C29 4833   6.147   1.744   9.261  0.2050 -0.1544 -0.5540
   36POPC   H91 4834   6.087   1.710   9.346 -1.0114  1.3069 -0.7959
   36POPC  C210 4835   6.114   1.703   9.141 -0.0286  0.0272 -0.1869
   36POPC  H101 4836   6.019   1.649   9.133 -0.2037  0.1378  1.0528
   36POPC  C211 4837   6.183   1.734   9.008  0.4327 -0.3010 -0.0278
   36POPC  H11R 4838   6.288   1.698   9.014  0.1853 -1.2496 -1.0038
   36POPC  H11S 4839   6.191   1.842   8.987  1.6701 -0.3270  0.2281
   36POPC  C212 4840   6.111   1.667   8.886  0.6045  0.3693 -0.2012
   36POPC  H12R 4841   6.017   1.718   8.859 -0.5977 -1.5704  0.1370
   36POPC  H12S 4842   6.071   1.565   8.907  0.1995  0.6845  0.5890
   36POPC  C213 4843   6.198   1.654   8.758  0.1775 -0.1114 -0.3406
   36POPC  H13R 4844   6.294   1.607   8.788  1.7631  2.3632 -1.2031
   36POPC  H13S 4845   6.224   1.759   8.730  0.1063  0.9675  3.1234
   36POPC  C214 4846   6.115   1.580   8.658 -0.0128  0.2081 -0.2757
   36POPC  H14R 4847   6.029   1.637   8.617 -0.8133 -0.1351  0.8580
   36POPC  H14S 4848   6.062   1.499   8.714 -1.5881  2.1725  1.2345
   36POPC  C215 4849   6.208   1.525   8.545  0.1797 -0.6946 -0.4906
   36POPC  H15R 4850   6.296   1.502   8.609 -1.1793  0.4785  1.9896
   36POPC  H15S 4851   6.227   1.607   8.472  0.3053 -0.5183 -0.2622
   36POPC  C216 4852   6.159   1.400   8.476  0.7431  0.1315  0.4329
   36POPC  H16R 4853   6.117   1.321   8.542 -0.5890  1.7376  1.6041
   36POPC  H16S 4854   6.245   1.356   8.421  0.4729 -0.6261  0.6155
   36POPC  C217 4855   6.043   1.429   8.380 -0.5014  0.1154 -0.2244
   36POPC  H17R 4856   6.084   1.497   8.302 -0.9718  0.0956 -0.4951
   36POPC  H17S 4857   5.964   1.486   8.433  0.4469  1.2331  0.0238
   36POPC  C218 4858   5.990   1.303   8.310  0.1216  0.4224 -0.0282
   36POPC  H18R 4859   5.994   1.219   8.382 -0.8913 -0.7864 -1.3188
   36POPC  H18S 4860   6.054   1.284   8.221  0.8878 -0.7528  0.7453
   36POPC  H18T 4861   5.883   1.320   8.287  0.0043 -0.6042 -0.2931
   36POPC   C33 4862   6.529   2.393   9.857  0.0983  0.1890  0.1032
   36POPC   H3X 4863   6.597   2.430   9.778 -0.2099 -0.4546 -0.4687
   36POPC   H3Y 4864   6.488   2.484   9.906 -1.2307  0.4314 -1.3954
   36POPC   C34 4865   6.422   2.307   9.775 -0.4188  0.4841 -0.3766
   36POPC   H4X 4866   6.355   2.261   9.852 -0.5540 -0.7742 -1.2170
   36POPC   H4Y 4867   6.459   2.217   9.721 -1.6794 -1.5640  1.9627
   36POPC   C35 4868   6.344   2.399   9.687 -0.8132  0.2929  0.3424
   36POPC   H5X 4869   6.412   2.468   9.633 -1.3298  2.7243  2.5471
   36POPC   H5Y 4870   6.291   2.462   9.762  0.1365 -1.5299  2.6912
   36POPC   C36 4871   6.254   2.335   9.583 -0.3411  0.0264  0.2351
   36POPC   H6X 4872   6.152   2.318   9.623  0.1380  0.1050  1.5315
   36POPC   H6Y 4873   6.291   2.241   9.537  3.3031  1.2251  0.4213
   36POPC   C37 4874   6.238   2.426   9.459  0.2774  0.4362 -0.3670
   36POPC   H7X 4875   6.341   2.439   9.419 -0.2335  1.2937 -1.4601
   36POPC   H7Y 4876   6.201   2.524   9.496 -1.1465 -0.3885  0.4639
   36POPC   C38 4877   6.131   2.384   9.358 -1.3026 -0.2904  0.3941
   36POPC   H8X 4878   6.103   2.473   9.297 -1.7952 -0.8445 -0.2068
   36POPC   H8Y 4879   6.041   2.360   9.418 -2.0314  0.7658 -0.2308
   36POPC   C39 4880   6.193   2.268   9.274  0.4678 -1.1477 -0.0519
   36POPC   H9X 4881   6.171   2.169   9.319  0.1614 -1.8320 -1.6516
   36POPC   H9Y 4882   6.304   2.279   9.265  0.1409  1.0127 -3.2042
   36POPC  C310 4883   6.146   2.264   9.124 -1.0358  0.2544 -0.3368
   36POPC  H10X 4884   6.143   2.366   9.080  0.0997  0.7333  0.6138
   36POPC  H10Y 4885   6.043   2.224   9.131 -0.3799 -1.1925  3.8427
   36POPC  C311 4886   6.224   2.170   9.036  0.0398  0.4803  0.4547
   36POPC  H11X 4887   6.221   2.065   9.074 -0.6457  0.1097 -0.5868
   36POPC  H11Y 4888   6.331   2.199   9.046  0.1208  1.0758 -1.7434
   36POPC  C312 4889   6.156   2.176   8.897 -0.1374  0.2197 -0.2720
   36POPC  H12X 4890   6.172   2.275   8.849 -0.8842  1.6948  2.3433
   36POPC  H12Y 4891   6.046   2.162   8.901 -0.4557  1.2160 -2.9911
   36POPC  C313 4892   6.194   2.062   8.813 -0.1376 -0.7729 -0.1317
   36POPC  H13X 4893   6.160   1.969   8.863  1.5830 -0.5997  1.4610
   36POPC  H13Y 4894   6.305   2.067   8.808 -0.1180 -0.5660  0.3991
   36POPC  C314 4895   6.145   2.052   8.669  0.1567 -0.5010 -0.8339
   36POPC  H14X 4896   6.179   1.956   8.624 -0.0818 -1.1044  0.2397
   36POPC  H14Y 4897   6.176   2.137   8.604  1.5171 -0.7598 -0.5586
   36POPC  C315 4898   5.994   2.053   8.661 -0.3600  0.0121 -0.5163
   36POPC  H15X 4899   5.967   2.157   8.691 -0.5797  0.0202 -0.7415
   36POPC  H15Y 4900   5.950   1.976   8.728  0.1124  0.6215  0.5120
   36POPC  C316 4901   5.949   2.021   8.517 -0.0764 -0.4677 -0.1581
   36POPC  H16X 4902   5.843   2.049   8.497  0.5472  0.3154 -2.7825
   36POPC  H16Y 4903   5.949   1.911   8.499 -0.2417 -1.1811  3.4946
   36POPC  H16Z 4904   6.016   2.071   8.445  1.2152 -1.1722  0.5225
   37POPC     N 4905   2.465   3.799   7.919  0.4670 -0.0636 -0.2271
   37POPC   C12 4906   2.405   3.814   8.053 -0.9740  0.0230  0.2601
   37POPC  H12A 4907   2.426   3.732   8.120  3.4628  1.4807  0.9466
   37POPC  H12B 4908   2.297   3.818   8.045 -0.9480  1.4041  0.3665
   37POPC   C13 4909   2.394   3.682   7.853 -0.0631  0.4924  0.0271
   37POPC  H13A 4910   2.414   3.588   7.902 -0.6579 -1.0897 -2.6007
   37POPC  H13B 4911   2.287   3.687   7.862 -0.2600  0.4065 -1.8998
   37POPC  H13C 4912   2.417   3.678   7.748 -1.0671  0.5734 -0.2075
   37POPC   C14 4913   2.432   3.921   7.830  0.1120 -0.2804  0.0854
   37POPC  H14A 4914   2.327   3.946   7.830  0.1413 -0.0427 -1.6353
   37POPC  H14B 4915   2.485   4.009   7.862 -0.0612 -0.7895  1.8862
   37POPC  H14C 4916   2.461   3.901   7.729 -0.8575 -1.5728  0.0327
   37POPC   C15 4917   2.617   3.775   7.919  0.6774  0.3391 -0.3228
   37POPC  H15A 4918   2.640   3.673   7.944  1.8363  0.6388 -0.0683
   37POPC  H15B 4919   2.654   3.838   7.999 -0.6536  0.9497 -0.1606
   37POPC  H15C 4920   2.663   3.803   7.826 -2.2926  0.3641 -1.8990
   37POPC   C11 4921   2.449   3.936   8.123  0.4366  1.4233  0.5233
   37POPC  H11A 4922   2.554   3.944   8.089 -0.0581 -0.9524 -1.9323
   37POPC  H11B 4923   2.434   3.915   8.231  1.5259 -0.2825  0.3867
   37POPC     P 4924   2.222   4.056   8.100  0.4342  0.1228 -0.4758
   37POPC   O13 4925   2.201   4.191   8.162  0.0450  0.0971  0.1718
   37POPC   O14 4926   2.163   3.937   8.164  0.2037 -0.3615  0.3962
   37POPC   O12 4927   2.378   4.055   8.084  0.0118  0.2126 -0.3502
   37POPC   O11 4928   2.172   4.072   7.953  0.0353  0.2521  0.2830
   37POPC    C1 4929   2.105   4.186   7.902 -0.6289  0.2666 -0.3367
   37POPC    HA 4930   2.156   4.277   7.942  0.1847 -0.1823 -0.3271
   37POPC    HB 4931   1.996   4.187   7.923 -0.8449  0.6813 -1.3872
   37POPC    C2 4932   2.128   4.200   7.744 -0.0116 -0.6106 -0.8376
   37POPC    HS 4933   2.092   4.295   7.700  2.2875  0.6041 -0.2533
   37POPC   O21 4934   2.086   4.072   7.676  0.3781 -0.6165  0.2393
   37POPC   C21 4935   1.953   4.068   7.665  0.3400  0.4342 -0.6476
   37POPC   O22 4936   1.882   4.153   7.710 -0.1668 -0.9540  0.5020
   37POPC   C22 4937   1.906   3.946   7.580 -0.2935 -0.1018  0.2597
   37POPC   H2R 4938   1.796   3.960   7.578 -0.1327  1.1725 -0.0647
   37POPC   H2S 4939   1.904   3.844   7.624 -1.4214 -1.6311 -2.9698
   37POPC    C3 4940   2.277   4.218   7.705  0.6044  0.0200  0.0178
   37POPC    HX 4941   2.328   4.129   7.746  0.0049 -0.0934  0.5471
   37POPC    HY 4942   2.322   4.304   7.760 -0.2611  1.2408 -1.1128
   37POPC   O31 4943   2.294   4.244   7.569  1.0871 -0.2644 -0.7373
   37POPC   C31 4944   2.328   4.152   7.491 -0.5548  0.9099  0.0318
   37POPC   O32 4945   2.354   4.038   7.522 -0.0504  0.5247 -0.8998
   37POPC   C32 4946   2.325   4.210   7.351 -0.7345  0.4992  0.1987
   37POPC   H2X 4947   2.382   4.306   7.358 -0.3782  0.2284  1.1351
   37POPC   H2Y 4948   2.217   4.220   7.327 -0.7472 -1.5666 -0.8024
   37POPC   C23 4949   1.958   3.946   7.432 -0.1301 -0.7320 -0.0443
   37POPC   H3R 4950   2.000   4.046   7.409 -0.5254 -0.5179  0.1571
   37POPC   H3S 4951   1.871   3.934   7.364 -0.0968 -1.3231  0.0163
   37POPC   C24 4952   2.065   3.847   7.410 -0.1502  0.3454 -0.3020
   37POPC   H4R 4953   2.035   3.747   7.447  0.4692  0.2370 -0.0915
   37POPC   H4S 4954   2.160   3.880   7.456  0.4782 -0.4330 -1.0161
   37POPC   C25 4955   2.088   3.824   7.262 -0.0573 -0.3219 -0.5825
   37POPC   H5R 4956   2.126   3.918   7.216  0.4511 -0.6208 -0.7825
   37POPC   H5S 4957   1.990   3.789   7.226 -0.6331 -1.1830  1.6474
   37POPC   C26 4958   2.172   3.705   7.241 -0.2516 -0.0118 -0.1665
   37POPC   H6R 4959   2.127   3.612   7.282  0.0481  0.2120  0.7088
   37POPC   H6S 4960   2.262   3.718   7.305  0.3188  0.4928 -1.0522
   37POPC   C27 4961   2.218   3.705   7.101 -0.2323  0.3223  1.0683
   37POPC   H7R 4962   2.263   3.802   7.072  1.1433 -0.2780  1.1377
   37POPC   H7S 4963   2.132   3.684   7.033  1.2269 -3.1325  0.0593
   37POPC   C28 4964   2.326   3.594   7.086 -0.0534  0.5431 -0.1136
   37POPC   H8R 4965   2.415   3.631   7.140 -0.6297  0.8511  0.6446
   37POPC   H8S 4966   2.347   3.602   6.977 -3.0053  1.8676 -0.7055
   37POPC   C29 4967   2.273   3.452   7.113  0.3929 -0.0894  0.2266
   37POPC   H91 4968   2.163   3.446   7.113  0.3409  0.5221 -1.1460
   37POPC  C210 4969   2.340   3.341   7.137  0.0616 -0.0935 -0.1599
   37POPC  H101 4970   2.282   3.254   7.171  1.2055 -0.3784  1.1360
   37POPC  C211 4971   2.487   3.331   7.161 -0.0212  0.1953  0.2543
   37POPC  H11R 4972   2.548   3.423   7.171 -0.0528  0.2158  0.2556
   37POPC  H11S 4973   2.537   3.259   7.093 -0.7303  0.2067 -0.2920
   37POPC  C212 4974   2.498   3.255   7.294 -0.5914 -0.1605 -0.2464
   37POPC  H12R 4975   2.607   3.244   7.314 -0.4843 -2.0007 -1.5372
   37POPC  H12S 4976   2.465   3.149   7.287  2.0215 -1.0900  0.3134
   37POPC  C213 4977   2.434   3.322   7.415 -0.8413 -0.2158 -0.3840
   37POPC  H13R 4978   2.328   3.348   7.391 -0.9793  1.1438  1.4185
   37POPC  H13S 4979   2.481   3.422   7.416  0.1381 -0.5753 -2.9923
   37POPC  C214 4980   2.432   3.236   7.539 -0.0240  0.9947 -0.0767
   37POPC  H14R 4981   2.529   3.185   7.552  0.0171  0.8828 -0.7830
   37POPC  H14S 4982   2.364   3.151   7.517  0.7184  0.4532 -0.3062
   37POPC  C215 4983   2.385   3.320   7.652 -1.0189 -0.0233 -0.1737
   37POPC  H15R 4984   2.320   3.404   7.620 -1.2936  0.3211  1.1871
   37POPC  H15S 4985   2.473   3.372   7.697 -0.8760 -0.9043  0.5997
   37POPC  C216 4986   2.328   3.234   7.765 -0.1671  0.1474  0.4849
   37POPC  H16R 4987   2.391   3.142   7.773  0.6296  0.3979 -1.9409
   37POPC  H16S 4988   2.231   3.205   7.720  0.9700  0.3975 -2.3833
   37POPC  C217 4989   2.320   3.315   7.895 -0.1370 -0.2657 -0.5407
   37POPC  H17R 4990   2.248   3.254   7.953 -0.9917  1.2612  0.0777
   37POPC  H17S 4991   2.279   3.417   7.874 -1.1071 -1.1923 -3.8254
   37POPC  C218 4992   2.453   3.317   7.972 -0.6554  0.0745 -0.3868
   37POPC  H18R 4993   2.541   3.356   7.915 -0.0606 -0.4708  0.1551
   37POPC  H18S 4994   2.474   3.215   8.010 -1.8294  0.7470  2.3025
   37POPC  H18T 4995   2.441   3.383   8.060 -2.7340 -1.3985  0.5233
   37POPC   C33 4996   2.388   4.102   7.255 -0.3494 -0.1867  0.4160
   37POPC   H3X 4997   2.381   4.151   7.156  1.9375 -0.5160  0.0398
   37POPC   H3Y 4998   2.338   4.002   7.260 -0.7992  0.0253  0.1572
   37POPC   C34 4999   2.540   4.082   7.271  0.0932 -1.1273 -0.4350
   37POPC   H4X 5000   2.571   4.052   7.374 -2.3571  0.5218  0.9045
   37POPC   H4Y 5001   2.587   4.181   7.252 -1.4638 -0.2040  0.2985
   37POPC   C35 5002   2.605   3.993   7.165 -0.1025  0.2552 -0.0460
   37POPC   H5X 5003   2.707   4.023   7.134 -0.1663  0.5542  0.0281
   37POPC   H5Y 5004   2.545   3.993   7.071  1.2531  0.9157 -0.9369
   37POPC   C36 5005   2.610   3.843   7.205 -0.0149  0.7047 -0.1626
   37POPC   H6X 5006   2.627   3.780   7.114 -3.2581  1.5816 -1.5369
   37POPC   H6Y 5007   2.505   3.823   7.233 -0.5232  4.1828  0.8720
   37POPC   C37 5008   2.703   3.806   7.315 -0.4202  0.1967  0.2542
   37POPC   H7X 5009   2.684   3.867   7.406 -0.6835  0.7906 -0.1911
   37POPC   H7Y 5010   2.810   3.827   7.295 -0.3665  1.8155  1.9576
   37POPC   C38 5011   2.679   3.659   7.359 -0.8891  0.5343  0.1550
   37POPC   H8X 5012   2.730   3.596   7.283 -0.2342 -2.0625  2.5811
   37POPC   H8Y 5013   2.571   3.631   7.359 -0.4404 -1.5459  2.6417
   37POPC   C39 5014   2.748   3.647   7.495 -0.3475  0.1983  0.3458
   37POPC   H9X 5015   2.704   3.717   7.570 -0.2700 -0.1300  0.7029
   37POPC   H9Y 5016   2.858   3.652   7.482 -0.4821 -1.3498 -1.9200
   37POPC  C310 5017   2.724   3.511   7.553 -0.1374 -0.0941  0.1335
   37POPC  H10X 5018   2.747   3.450   7.462 -2.0939  2.1361 -2.0078
   37POPC  H10Y 5019   2.620   3.491   7.586 -0.4999  0.1174 -0.8454
   37POPC  C311 5020   2.822   3.479   7.665 -0.0278 -0.0903  0.0751
   37POPC  H11X 5021   2.776   3.526   7.755 -4.0230  2.3101 -2.9104
   37POPC  H11Y 5022   2.914   3.536   7.643  0.3347 -0.7823 -0.2177
   37POPC  C312 5023   2.850   3.330   7.685  0.4846  0.3167  0.0452
   37POPC  H12X 5024   2.865   3.278   7.588 -1.4688 -2.5112  1.1436
   37POPC  H12Y 5025   2.757   3.284   7.725  0.0655  0.7053 -0.4681
   37POPC  C313 5026   2.968   3.307   7.783  0.8796 -0.3180  0.0490
   37POPC  H13X 5027   3.054   3.355   7.731 -0.2149  0.1792 -1.3506
   37POPC  H13Y 5028   2.992   3.200   7.805 -1.6589 -1.4150 -1.9526
   37POPC  C314 5029   2.953   3.378   7.928 -0.3361 -0.7121 -0.5962
   37POPC  H14X 5030   2.908   3.307   8.000 -0.8196 -1.3055 -1.4625
   37POPC  H14Y 5031   2.885   3.465   7.918  2.9834  2.0746 -1.0831
   37POPC  C315 5032   3.076   3.428   7.993  0.0555 -0.6279 -0.4928
   37POPC  H15X 5033   3.138   3.483   7.918 -0.3693 -0.1284 -0.4762
   37POPC  H15Y 5034   3.142   3.346   8.029  0.3562 -0.5209 -0.7903
   37POPC  C316 5035   3.061   3.522   8.109  0.9596 -0.6516  0.0432
   37POPC  H16X 5036   3.046   3.625   8.072  0.4044 -0.4694  0.7434
   37POPC  H16Y 5037   3.135   3.531   8.192  0.0476  1.6879  0.6814
   37POPC  H16Z 5038   2.977   3.474   8.165 -0.8981  0.4035 -1.7194
   38POPC     N 5039   3.347   6.599   5.641 -0.2970  0.1281 -0.0434
   38POPC   C12 5040   3.372   6.750   5.614 -0.5646  0.2575 -0.1589
   38POPC  H12A 5041   3.309   6.783   5.533  0.4106  2.0246 -0.2362
   38POPC  H12B 5042   3.471   6.766   5.574 -0.4641  1.7607  0.6215
   38POPC   C13 5043   3.354   6.518   5.512  0.2134  0.1340 -0.7662
   38POPC  H13A 5044   3.279   6.550   5.440 -1.9106  0.5068  1.5005
   38POPC  H13B 5045   3.448   6.532   5.460 -0.6384  1.9862 -1.9161
   38POPC  H13C 5046   3.335   6.413   5.531  2.9129 -0.6098 -1.6523
   38POPC   C14 5047   3.444   6.541   5.731 -0.2403  1.1742 -0.2238
   38POPC  H14A 5048   3.546   6.536   5.695 -0.6491  2.6419 -1.7455
   38POPC  H14B 5049   3.435   6.605   5.818 -0.8968 -0.5645  1.0328
   38POPC  H14C 5050   3.419   6.442   5.766 -0.5439  0.8836 -1.2566
   38POPC   C15 5051   3.213   6.591   5.707  0.1202  0.2175 -0.1720
   38POPC  H15A 5052   3.231   6.627   5.807 -1.6805 -1.4277  0.7921
   38POPC  H15B 5053   3.186   6.487   5.716 -0.5143  0.3708 -0.2684
   38POPC  H15C 5054   3.134   6.640   5.654 -1.6766 -1.5644  0.7279
   38POPC   C11 5055   3.348   6.837   5.742 -0.8120  0.2759  0.4349
   38POPC  H11A 5056   3.241   6.831   5.769 -0.5399 -3.5007  1.1805
   38POPC  H11B 5057   3.357   6.941   5.704 -1.7628  0.4637  0.7083
   38POPC     P 5058   3.363   6.811   6.000 -0.0093  0.3667 -0.0671
   38POPC   O13 5059   3.240   6.733   6.013 -0.7192  0.3669 -0.1801
   38POPC   O14 5060   3.358   6.950   6.046  0.2270 -0.2029 -0.2258
   38POPC   O12 5061   3.428   6.808   5.855 -0.0990 -0.0694  0.4411
   38POPC   O11 5062   3.473   6.732   6.081 -0.4877  0.0358  0.1911
   38POPC    C1 5063   3.608   6.729   6.054  0.1221 -0.4598 -0.1144
   38POPC    HA 5064   3.642   6.834   6.039  0.8941 -0.5109  1.0981
   38POPC    HB 5065   3.637   6.654   5.978  0.0690 -0.4225 -0.1713
   38POPC    C2 5066   3.688   6.700   6.191  0.2724 -0.4810  0.3064
   38POPC    HS 5067   3.652   6.599   6.223 -0.3872 -0.3028  0.1394
   38POPC   O21 5068   3.675   6.803   6.294  0.1331 -0.3121 -0.0095
   38POPC   C21 5069   3.631   6.762   6.416 -0.1895 -0.9951 -1.3194
   38POPC   O22 5070   3.618   6.641   6.445  0.2477 -0.6743  0.3929
   38POPC   C22 5071   3.597   6.875   6.509 -0.1766  0.6264  0.0390
   38POPC   H2R 5072   3.525   6.942   6.457 -0.2833 -0.2626 -0.9832
   38POPC   H2S 5073   3.689   6.934   6.530  0.2924 -0.3691  0.8914
   38POPC    C3 5074   3.832   6.662   6.156 -0.4515 -0.4675  0.1380
   38POPC    HX 5075   3.860   6.744   6.086 -1.3644 -0.9908 -0.8771
   38POPC    HY 5076   3.839   6.566   6.101  0.7736 -0.4140  0.1729
   38POPC   O31 5077   3.913   6.669   6.271  0.2537  0.0855 -0.3023
   38POPC   C31 5078   3.932   6.551   6.335  0.6790  0.3683  0.9338
   38POPC   O32 5079   3.866   6.452   6.315  0.5629 -0.3365 -0.4223
   38POPC   C32 5080   4.031   6.552   6.448 -0.1779  0.4824  0.4167
   38POPC   H2X 5081   4.119   6.617   6.427  3.1430 -3.4701  0.9429
   38POPC   H2Y 5082   4.058   6.446   6.468 -1.1683  0.4147  1.4773
   38POPC   C23 5083   3.542   6.832   6.650  0.3513 -0.0977 -1.3101
   38POPC   H3R 5084   3.585   6.738   6.689 -2.1228 -2.0419 -2.9231
   38POPC   H3S 5085   3.438   6.802   6.624  0.5301 -1.5396 -0.4697
   38POPC   C24 5086   3.542   6.942   6.761 -0.3325  0.6375 -0.1959
   38POPC   H4R 5087   3.507   7.043   6.731  1.4820  1.5141  0.5182
   38POPC   H4S 5088   3.650   6.963   6.777 -0.3271  0.2441  0.3085
   38POPC   C25 5089   3.463   6.895   6.888  0.1950  0.2617  0.3099
   38POPC   H5R 5090   3.516   6.799   6.907  3.6259  2.3372  2.3411
   38POPC   H5S 5091   3.358   6.869   6.866 -0.4660  0.8289  2.5628
   38POPC   C26 5092   3.474   6.993   7.004  0.2377 -0.1119 -0.8146
   38POPC   H6R 5093   3.396   6.957   7.075  1.5244  0.6413  1.0535
   38POPC   H6S 5094   3.449   7.100   6.986  3.5662  1.3262  1.9022
   38POPC   C27 5095   3.598   6.997   7.087 -0.1856  0.2193  0.4778
   38POPC   H7R 5096   3.600   7.086   7.153  3.8160  0.9345 -0.3465
   38POPC   H7S 5097   3.688   7.007   7.023 -0.5753 -1.4245 -0.3837
   38POPC   C28 5098   3.610   6.876   7.181 -0.9561  0.1776 -0.9135
   38POPC   H8R 5099   3.584   6.776   7.142  1.3511 -0.6275 -0.5135
   38POPC   H8S 5100   3.532   6.898   7.258 -3.9120 -2.4588 -2.9112
   38POPC   C29 5101   3.749   6.873   7.246 -0.6305 -0.1193 -0.1106
   38POPC   H91 5102   3.843   6.852   7.193  0.7104 -0.7610  2.3833
   38POPC  C210 5103   3.776   6.911   7.371 -0.0057  0.3956 -0.7102
   38POPC  H101 5104   3.879   6.895   7.406 -0.2224 -1.3737 -0.8021
   38POPC  C211 5105   3.692   6.965   7.480  0.2646 -0.8030  0.1576
   38POPC  H11R 5106   3.583   6.957   7.459  0.2139 -0.3918  0.2498
   38POPC  H11S 5107   3.715   7.073   7.497 -1.1549 -0.5772  0.8233
   38POPC  C212 5108   3.699   6.894   7.612 -0.1510  0.7481  0.3776
   38POPC  H12R 5109   3.710   6.784   7.601  1.1411  0.8378  0.6224
   38POPC  H12S 5110   3.610   6.912   7.676 -0.1984  2.0472 -0.0369
   38POPC  C213 5111   3.824   6.926   7.697 -0.1127  0.0060  0.3355
   38POPC  H13R 5112   3.820   7.032   7.731  3.7498  0.1177  0.9261
   38POPC  H13S 5113   3.917   6.920   7.637  1.2602  0.4962  2.3074
   38POPC  C214 5114   3.821   6.843   7.821  0.5141  0.3828  0.3841
   38POPC  H14R 5115   3.852   6.745   7.781 -1.1765  1.0318 -2.8532
   38POPC  H14S 5116   3.717   6.835   7.858  0.3790 -2.2373 -0.3697
   38POPC  C215 5117   3.913   6.901   7.931 -0.0173 -0.0384 -0.4377
   38POPC  H15R 5118   3.877   6.999   7.968 -1.5791  0.2826 -2.5917
   38POPC  H15S 5119   4.012   6.917   7.882  0.7883 -0.8222  0.8706
   38POPC  C216 5120   3.938   6.794   8.042  0.5772  0.0102 -0.4025
   38POPC  H16R 5121   3.842   6.741   8.062  0.5140 -0.1659 -1.1558
   38POPC  H16S 5122   3.966   6.843   8.137  2.0119 -0.7495 -0.4082
   38POPC  C217 5123   4.048   6.697   8.005 -0.4549 -0.5213 -0.3457
   38POPC  H17R 5124   4.133   6.752   7.960 -0.6698 -0.5435 -0.7791
   38POPC  H17S 5125   4.021   6.629   7.921 -0.2370 -0.3071 -0.5909
   38POPC  C218 5126   4.107   6.618   8.126  0.5995 -0.2676 -0.1652
   38POPC  H18R 5127   4.174   6.532   8.104  0.5563 -0.5648  0.8147
   38POPC  H18S 5128   4.012   6.595   8.178 -0.5735  2.6732 -0.8434
   38POPC  H18T 5129   4.164   6.688   8.190 -0.0134  1.0564 -1.0257
   38POPC   C33 5130   3.960   6.602   6.573  0.1225 -0.3214 -0.1207
   38POPC   H3X 5131   3.865   6.548   6.591 -0.7514  1.0997 -0.2991
   38POPC   H3Y 5132   3.931   6.709   6.562  3.4458  0.7183  0.0795
   38POPC   C34 5133   4.051   6.596   6.691 -0.8105 -0.3943 -0.8239
   38POPC   H4X 5134   4.146   6.653   6.692  0.8030 -2.8845  0.9791
   38POPC   H4Y 5135   4.089   6.493   6.708  0.1294  0.0965  0.2180
   38POPC   C35 5136   3.965   6.636   6.810  0.4592  0.2511  0.3190
   38POPC   H5X 5137   3.855   6.642   6.798  0.2872 -2.0093  0.3230
   38POPC   H5Y 5138   4.008   6.734   6.841 -0.5520  0.5074  0.9766
   38POPC   C36 5139   3.988   6.533   6.926 -0.6472 -0.0484  0.7454
   38POPC   H6X 5140   4.086   6.482   6.920 -0.7015 -0.1300  0.4960
   38POPC   H6Y 5141   3.914   6.452   6.904 -1.4964  0.5504  1.3604
   38POPC   C37 5142   3.960   6.586   7.070 -0.0117 -1.0051  0.5921
   38POPC   H7X 5143   3.865   6.644   7.065 -0.2366 -1.3800  0.3638
   38POPC   H7Y 5144   4.037   6.652   7.113 -0.2407  0.1367 -0.6754
   38POPC   C38 5145   3.953   6.472   7.171  0.0386  0.3091 -0.0465
   38POPC   H8X 5146   4.052   6.424   7.155  0.3463  0.9299 -0.0742
   38POPC   H8Y 5147   3.870   6.401   7.150 -0.6064  0.2554  2.4482
   38POPC   C39 5148   3.940   6.524   7.316 -0.2132  0.1322 -0.3267
   38POPC   H9X 5149   3.846   6.583   7.319  0.3481  0.9996  0.8714
   38POPC   H9Y 5150   4.034   6.581   7.330  1.0328 -1.7321 -0.6628
   38POPC  C310 5151   3.930   6.408   7.415  0.6334 -0.7133 -0.4764
   38POPC  H10X 5152   4.027   6.356   7.431  0.6998  0.1060  2.4629
   38POPC  H10Y 5153   3.856   6.336   7.374 -0.5680  0.5530 -0.5982
   38POPC  C311 5154   3.892   6.455   7.561  0.6247  0.7890 -0.2674
   38POPC  H11X 5155   3.828   6.545   7.571 -0.4844 -0.1277  1.6927
   38POPC  H11Y 5156   3.992   6.472   7.605  0.3441  1.4680  0.1306
   38POPC  C312 5157   3.826   6.334   7.634  0.0463  0.0120 -0.2787
   38POPC  H12X 5158   3.876   6.239   7.608 -0.6296  0.0184 -1.6487
   38POPC  H12Y 5159   3.718   6.323   7.611 -0.2073 -0.0925  0.8900
   38POPC  C313 5160   3.832   6.346   7.786  0.3536  0.6125  0.0008
   38POPC  H13X 5161   3.938   6.355   7.819  0.1072  2.0336  0.4558
   38POPC  H13Y 5162   3.789   6.257   7.837  1.7565  0.0752  0.2919
   38POPC  C314 5163   3.733   6.454   7.833  0.2234 -0.2052 -0.5567
   38POPC  H14X 5164   3.633   6.450   7.785 -0.3571  1.2746  0.4695
   38POPC  H14Y 5165   3.765   6.557   7.807 -0.7119 -0.1055 -1.3756
   38POPC  C315 5166   3.698   6.439   7.985  0.0207 -0.0060  0.0177
   38POPC  H15X 5167   3.795   6.462   8.034 -0.9186  1.6322  1.2099
   38POPC  H15Y 5168   3.665   6.333   7.995  1.0368 -0.3280  0.0440
   38POPC  C316 5169   3.585   6.524   8.050  0.2359  0.3188 -0.2266
   38POPC  H16X 5170   3.596   6.635   8.043 -1.2693  0.4382 -1.1089
   38POPC  H16Y 5171   3.557   6.484   8.149 -0.3615 -1.3176 -1.0360
   38POPC  H16Z 5172   3.501   6.504   7.980  1.5026 -1.0105 -1.4352
   39POPC     N 5173   5.937   5.835   5.325 -0.5284 -0.0649  0.1236
   39POPC   C12 5174   5.895   5.735   5.423 -0.1117  0.2525 -0.7715
   39POPC  H12A 5175   5.978   5.668   5.437 -0.3690  0.2652  0.9733
   39POPC  H12B 5176   5.825   5.671   5.370  0.5554 -0.8292 -0.3729
   39POPC   C13 5177   5.982   5.767   5.198 -0.1417 -0.0388 -0.6974
   39POPC  H13A 5178   5.917   5.692   5.156  0.6065 -1.6409  0.9019
   39POPC  H13B 5179   6.008   5.844   5.127  0.4096 -2.0106 -2.7468
   39POPC  H13C 5180   6.079   5.724   5.218  0.1044  0.9564  0.3772
   39POPC   C14 5181   5.826   5.931   5.279  0.4173  0.5299  0.1597
   39POPC  H14A 5182   5.867   6.012   5.221 -0.8846 -0.0323 -1.5930
   39POPC  H14B 5183   5.748   5.873   5.232  0.1004 -0.4553  1.8179
   39POPC  H14C 5184   5.790   5.979   5.369  3.0944 -0.8919  2.1621
   39POPC   C15 5185   6.043   5.922   5.372  0.1291 -0.0311 -0.2209
   39POPC  H15A 5186   6.074   6.001   5.304 -0.8697  0.1332 -0.5121
   39POPC  H15B 5187   6.130   5.866   5.401 -0.1960  1.3737  4.0768
   39POPC  H15C 5188   6.020   5.975   5.463  1.4270 -0.4039  0.3308
   39POPC   C11 5189   5.845   5.769   5.572 -0.0181 -0.2089  0.0614
   39POPC  H11A 5190   5.823   5.671   5.620 -2.1755 -0.3750 -1.1426
   39POPC  H11B 5191   5.752   5.829   5.566  0.9060  1.3549  0.6250
   39POPC     P 5192   6.093   5.779   5.685  0.0996  0.2717 -0.1962
   39POPC   O13 5193   6.191   5.888   5.721  0.8217 -0.0296  0.4760
   39POPC   O14 5194   6.144   5.682   5.588  0.4499  0.3212 -0.0926
   39POPC   O12 5195   5.950   5.842   5.644  0.1156  0.2950 -0.1766
   39POPC   O11 5196   6.056   5.688   5.811 -0.6499  0.4325  0.0372
   39POPC    C1 5197   5.996   5.744   5.928 -0.4838 -0.1819 -0.3662
   39POPC    HA 5198   5.904   5.687   5.955 -1.7008  1.5916 -0.6299
   39POPC    HB 5199   5.965   5.850   5.919 -0.4737 -0.1838 -0.4301
   39POPC    C2 5200   6.098   5.722   6.049 -0.4587 -0.2808  0.0538
   39POPC    HS 5201   6.198   5.722   6.001 -0.9498 -2.3730 -1.0469
   39POPC   O21 5202   6.069   5.596   6.101 -0.6746 -0.2872  0.3375
   39POPC   C21 5203   6.168   5.513   6.137  0.1524  0.2806 -0.0298
   39POPC   O22 5204   6.284   5.525   6.119 -0.2456 -0.2565 -0.0498
   39POPC   C22 5205   6.105   5.406   6.229 -1.3444  0.4901  0.2915
   39POPC   H2R 5206   6.013   5.366   6.181 -0.1930 -0.3199 -1.3434
   39POPC   H2S 5207   6.083   5.441   6.331 -0.2242  0.1665  0.6648
   39POPC    C3 5208   6.088   5.830   6.165 -0.2423  0.2280  0.5587
   39POPC    HX 5209   5.996   5.808   6.223  0.5958 -3.2105  0.8035
   39POPC    HY 5210   6.082   5.930   6.116 -2.1854  0.8099  1.8492
   39POPC   O31 5211   6.196   5.821   6.263  0.0191 -0.9982  0.2856
   39POPC   C31 5212   6.319   5.866   6.218 -0.9745 -0.0211 -0.2706
   39POPC   O32 5213   6.356   5.876   6.103 -0.0503  0.4764 -0.2668
   39POPC   C32 5214   6.409   5.889   6.341 -0.5642  0.1013 -0.4647
   39POPC   H2X 5215   6.500   5.940   6.303 -0.4076 -0.7121 -1.2061
   39POPC   H2Y 5216   6.352   5.960   6.405 -0.8480  0.6213 -1.2759
   39POPC   C23 5217   6.204   5.278   6.250  0.4786 -0.0339 -1.6803
   39POPC   H3R 5218   6.311   5.295   6.226  1.3012  0.3683  1.8231
   39POPC   H3S 5219   6.163   5.195   6.188  0.5339 -1.0826 -0.3406
   39POPC   C24 5220   6.190   5.220   6.399  0.1482 -0.1931 -0.0760
   39POPC   H4R 5221   6.226   5.116   6.383 -1.8147 -0.9519  0.1157
   39POPC   H4S 5222   6.085   5.211   6.435 -0.6264  0.1524 -2.1088
   39POPC   C25 5223   6.286   5.293   6.493 -0.0156  0.6368  0.3996
   39POPC   H5R 5224   6.244   5.394   6.512 -1.1343  0.3130 -0.2282
   39POPC   H5S 5225   6.386   5.303   6.445  0.0438  2.9091  0.9033
   39POPC   C26 5226   6.311   5.212   6.620  0.1339 -0.4115 -0.5026
   39POPC   H6R 5227   6.413   5.234   6.658  0.5507 -1.6222 -0.8771
   39POPC   H6S 5228   6.294   5.102   6.616  0.9510 -0.7571  2.5742
   39POPC   C27 5229   6.213   5.263   6.732 -0.2383 -0.3102 -0.1038
   39POPC   H7R 5230   6.111   5.247   6.690 -0.6400 -3.5595  1.7400
   39POPC   H7S 5231   6.233   5.370   6.754  0.2062 -0.3221 -0.4383
   39POPC   C28 5232   6.206   5.174   6.861  0.8130 -0.3637  0.5186
   39POPC   H8R 5233   6.192   5.070   6.823  1.1718  0.1384 -1.0487
   39POPC   H8S 5234   6.117   5.203   6.921  0.5439 -1.0552  0.4673
   39POPC   C29 5235   6.332   5.183   6.952  0.6965 -0.3411 -0.0543
   39POPC   H91 5236   6.387   5.276   6.971  1.0095 -0.5241 -0.0572
   39POPC  C210 5237   6.398   5.074   6.985  0.3397  0.1209  0.7182
   39POPC  H101 5238   6.492   5.099   7.038  0.7421  2.1394 -0.8072
   39POPC  C211 5239   6.371   4.922   6.975  0.0451  0.1879  0.1899
   39POPC  H11R 5240   6.270   4.906   6.931  0.1039 -2.8456  0.9157
   39POPC  H11S 5241   6.363   4.871   7.073 -1.5997  1.0105  0.5172
   39POPC  C212 5242   6.466   4.850   6.870 -0.2950 -0.0205  0.4944
   39POPC  H12R 5243   6.428   4.745   6.866  1.5987 -0.7096 -0.0071
   39POPC  H12S 5244   6.566   4.833   6.914 -0.1876 -1.4331 -0.2250
   39POPC  C213 5245   6.454   4.919   6.726  0.2217  0.5188 -0.0236
   39POPC  H13R 5246   6.498   5.021   6.726 -1.5783  1.3712  1.4468
   39POPC  H13S 5247   6.346   4.937   6.707 -0.3860 -1.6488  0.9480
   39POPC  C214 5248   6.505   4.811   6.626  0.0369 -0.3647 -0.2264
   39POPC  H14R 5249   6.473   4.817   6.520  2.0190  1.5726 -0.7902
   39POPC  H14S 5250   6.468   4.708   6.647 -1.7915  0.3179  0.0020
   39POPC  C215 5251   6.660   4.802   6.606  1.1765  0.0081 -0.5480
   39POPC  H15R 5252   6.709   4.767   6.699 -2.3976  1.5641  2.1119
   39POPC  H15S 5253   6.685   4.909   6.592  0.0392  0.2211 -1.0833
   39POPC  C216 5254   6.703   4.725   6.483 -0.4480 -0.0278  0.1281
   39POPC  H16R 5255   6.666   4.776   6.392 -1.4633  0.2082  0.6649
   39POPC  H16S 5256   6.667   4.621   6.470 -3.5648  1.0402 -0.7032
   39POPC  C217 5257   6.855   4.719   6.467  0.3552 -0.0145  0.2759
   39POPC  H17R 5258   6.922   4.695   6.553  0.3711 -1.3756 -0.0835
   39POPC  H17S 5259   6.879   4.825   6.448  0.5175  0.1146  1.1537
   39POPC  C218 5260   6.890   4.635   6.348 -0.3969  0.1754 -0.1214
   39POPC  H18R 5261   6.993   4.664   6.317  0.1388 -0.1671  1.2674
   39POPC  H18S 5262   6.818   4.660   6.267 -0.5911  0.5483  0.1599
   39POPC  H18T 5263   6.891   4.527   6.370 -1.1995 -0.1427 -1.5523
   39POPC   C33 5264   6.434   5.757   6.410  0.7445 -0.7580 -0.1323
   39POPC   H3X 5265   6.478   5.689   6.334 -0.7696 -3.2338  1.1109
   39POPC   H3Y 5266   6.340   5.708   6.444 -0.4800  0.7765 -1.1404
   39POPC   C34 5267   6.509   5.771   6.537 -0.1553  0.4939 -0.4242
   39POPC   H4X 5268   6.449   5.848   6.591  1.3978  1.6158 -0.2149
   39POPC   H4Y 5269   6.608   5.813   6.510  0.0319  0.8659  0.7645
   39POPC   C35 5270   6.529   5.642   6.614  0.7773  0.9668 -0.9777
   39POPC   H5X 5271   6.605   5.664   6.693 -0.5959  1.8325  0.1421
   39POPC   H5Y 5272   6.557   5.554   6.552 -0.9377 -1.7503  1.7947
   39POPC   C36 5273   6.411   5.598   6.699 -0.1438  0.5743  0.0070
   39POPC   H6X 5274   6.429   5.500   6.749 -1.9643 -0.7159 -1.6875
   39POPC   H6Y 5275   6.321   5.577   6.637 -0.8837  2.7171  0.2904
   39POPC   C37 5276   6.377   5.700   6.815 -0.2134 -0.0941  0.5385
   39POPC   H7X 5277   6.287   5.653   6.861 -1.7333 -0.9573 -3.0091
   39POPC   H7Y 5278   6.349   5.795   6.765  2.2734  0.4186 -0.0153
   39POPC   C38 5279   6.490   5.735   6.912  0.8887  0.0070  0.1756
   39POPC   H8X 5280   6.447   5.804   6.988  0.0513 -2.7807  2.3938
   39POPC   H8Y 5281   6.578   5.770   6.854  0.6717 -1.7541 -1.3082
   39POPC   C39 5282   6.536   5.618   7.005 -0.4593 -0.0374  0.3311
   39POPC   H9X 5283   6.619   5.650   7.072 -1.2894 -1.1451  1.9650
   39POPC   H9Y 5284   6.574   5.528   6.953  0.0216 -1.3041  2.7376
   39POPC  C310 5285   6.416   5.590   7.090 -0.2652 -0.1071 -0.0808
   39POPC  H10X 5286   6.325   5.556   7.035  0.4740 -1.7086 -0.3744
   39POPC  H10Y 5287   6.384   5.684   7.140  0.2249 -0.0072  0.0507
   39POPC  C311 5288   6.435   5.485   7.200 -0.0309  0.0214 -1.1060
   39POPC  H11X 5289   6.529   5.500   7.259  0.7100 -1.0727 -1.9728
   39POPC  H11Y 5290   6.464   5.387   7.157  1.7524  0.0860 -0.1580
   39POPC  C312 5291   6.319   5.477   7.301  0.5003  0.1405  0.1601
   39POPC  H12X 5292   6.289   5.578   7.336  2.1840  1.3083 -1.5330
   39POPC  H12Y 5293   6.361   5.419   7.386  0.0052 -0.9669 -0.3392
   39POPC  C313 5294   6.196   5.402   7.242 -0.5324 -0.1134 -0.0253
   39POPC  H13X 5295   6.237   5.325   7.173  2.0266  1.3475 -0.2806
   39POPC  H13Y 5296   6.145   5.476   7.176 -0.7128  1.5534  1.8928
   39POPC  C314 5297   6.103   5.343   7.351 -0.1461 -0.3788 -0.1237
   39POPC  H14X 5298   6.000   5.355   7.312 -0.2945  0.1150  0.3965
   39POPC  H14Y 5299   6.113   5.414   7.436 -1.2973 -0.0367 -0.2653
   39POPC  C315 5300   6.145   5.199   7.394 -0.6279 -0.1800 -0.3127
   39POPC  H15X 5301   6.097   5.174   7.491 -0.5444 -1.4215 -0.5804
   39POPC  H15Y 5302   6.255   5.198   7.402 -0.7099 -1.0754  0.8464
   39POPC  C316 5303   6.092   5.104   7.291  0.1527  0.5203  0.6038
   39POPC  H16X 5304   6.084   5.152   7.191 -0.0487 -0.4289  0.1525
   39POPC  H16Y 5305   5.995   5.066   7.331  0.9667 -0.9990  1.2252
   39POPC  H16Z 5306   6.156   5.013   7.295 -1.9127 -1.0768 -0.3553
   40POPC     N 5307   2.926   0.922   5.784 -0.3914 -0.0823  0.4542
   40POPC   C12 5308   2.877   1.054   5.843  0.1101  0.3452  0.4937
   40POPC  H12A 5309   2.770   1.062   5.825  0.1063  0.1313  0.4258
   40POPC  H12B 5310   2.913   1.139   5.788 -0.4606  0.0797 -0.3035
   40POPC   C13 5311   2.880   0.929   5.638 -0.5802  0.3111 -0.1244
   40POPC  H13A 5312   2.884   0.833   5.589 -2.3131  0.8364 -1.4070
   40POPC  H13B 5313   2.774   0.948   5.638 -0.8609 -0.9006  2.2364
   40POPC  H13C 5314   2.937   0.999   5.578  0.6914 -0.8973 -0.3766
   40POPC   C14 5315   3.072   0.924   5.790 -0.3364 -0.2229  0.1567
   40POPC  H14A 5316   3.119   0.832   5.761 -0.4947 -0.5061  0.7818
   40POPC  H14B 5317   3.109   1.007   5.731  0.5308 -1.8576 -1.6866
   40POPC  H14C 5318   3.100   0.942   5.893  2.9449  0.6858 -0.7905
   40POPC   C15 5319   2.857   0.809   5.854  0.5768  0.3488  0.0999
   40POPC  H15A 5320   2.874   0.821   5.960  0.3908  0.8703  0.0729
   40POPC  H15B 5321   2.898   0.716   5.817 -1.6334 -0.1695 -1.2392
   40POPC  H15C 5322   2.752   0.813   5.827  0.5088 -1.1721  0.0433
   40POPC   C11 5323   2.913   1.092   5.989 -0.2081 -0.3739  0.2459
   40POPC  H11A 5324   2.861   1.186   6.014  2.4141  1.1284  0.4454
   40POPC  H11B 5325   3.020   1.121   5.989  0.3625 -2.2818  1.2915
   40POPC     P 5326   2.987   0.907   6.161  0.2345 -0.0202  0.0844
   40POPC   O13 5327   3.122   0.934   6.099  0.5265  0.4696 -0.6807
   40POPC   O14 5328   2.941   0.770   6.155  0.1036 -0.3928 -0.0228
   40POPC   O12 5329   2.879   1.003   6.091 -0.0960 -0.3022 -0.2818
   40POPC   O11 5330   2.970   0.963   6.303  0.1854 -0.4701 -0.2863
   40POPC    C1 5331   3.007   1.102   6.334  0.2212  0.2303  0.5913
   40POPC    HA 5332   2.934   1.142   6.407  0.5409  1.3648  0.3090
   40POPC    HB 5333   3.015   1.171   6.247 -0.1744  0.3255  0.6292
   40POPC    C2 5334   3.140   1.122   6.409  0.7114 -0.0336 -0.0388
   40POPC    HS 5335   3.228   1.090   6.348  1.3394 -1.0078  1.3030
   40POPC   O21 5336   3.136   1.055   6.538 -0.7998  0.1048 -0.2778
   40POPC   C21 5337   3.171   0.928   6.527  0.1734 -0.3116  0.4009
   40POPC   O22 5338   3.223   0.874   6.433 -0.4034 -0.1337 -0.5143
   40POPC   C22 5339   3.158   0.867   6.658 -0.0633  0.2033 -0.0436
   40POPC   H2R 5340   3.066   0.902   6.709 -1.5982  2.0600 -3.7211
   40POPC   H2S 5341   3.251   0.882   6.717 -0.1002  1.7171 -0.3394
   40POPC    C3 5342   3.159   1.272   6.435 -0.3543  0.1866  0.2682
   40POPC    HX 5343   3.168   1.316   6.334  0.0093 -1.0286 -0.2426
   40POPC    HY 5344   3.243   1.285   6.507 -0.5589  0.7243  0.4117
   40POPC   O31 5345   3.041   1.328   6.490  0.4485  0.1441  0.3155
   40POPC   C31 5346   3.045   1.446   6.538  0.2223 -0.0836 -0.0046
   40POPC   O32 5347   3.136   1.526   6.528 -0.4122 -0.0945 -0.2799
   40POPC   C32 5348   2.916   1.476   6.620  0.1873  0.3976 -0.1652
   40POPC   H2X 5349   2.913   1.396   6.697 -1.8945 -0.3680 -0.9497
   40POPC   H2Y 5350   2.824   1.462   6.559  0.0428  4.5699 -1.2178
   40POPC   C23 5351   3.140   0.711   6.640  0.5563  0.4628 -0.1518
   40POPC   H3R 5352   3.221   0.658   6.586 -0.2448  1.3039 -2.2556
   40POPC   H3S 5353   3.050   0.694   6.577  0.2836 -0.5111  0.4655
   40POPC   C24 5354   3.113   0.653   6.784 -0.2155  0.3791  0.4281
   40POPC   H4R 5355   3.064   0.555   6.769 -0.6820  0.6009  0.4783
   40POPC   H4S 5356   3.041   0.718   6.839  0.0104 -0.0912  1.2941
   40POPC   C25 5357   3.226   0.643   6.893 -0.7258 -0.7450 -0.0071
   40POPC   H5R 5358   3.253   0.749   6.909 -0.2603 -0.8729  0.0525
   40POPC   H5S 5359   3.316   0.592   6.851  0.5180  1.4627 -0.1469
   40POPC   C26 5360   3.181   0.589   7.030  0.0718  0.2018  0.2689
   40POPC   H6R 5361   3.140   0.488   7.009  0.4723 -0.0865  0.8343
   40POPC   H6S 5362   3.110   0.659   7.079  0.1392  0.0053  0.6538
   40POPC   C27 5363   3.294   0.561   7.125 -0.2070  0.2777 -0.3668
   40POPC   H7R 5364   3.335   0.664   7.117 -0.3353  0.2094 -2.2960
   40POPC   H7S 5365   3.354   0.481   7.076  0.7561  1.0037 -0.3987
   40POPC   C28 5366   3.246   0.513   7.270  0.0004 -0.2726  0.1699
   40POPC   H8R 5367   3.214   0.407   7.263  1.3608 -0.9119  2.7554
   40POPC   H8S 5368   3.163   0.567   7.320  1.0699 -0.0447  1.7782
   40POPC   C29 5369   3.360   0.545   7.364 -0.9332  0.5429  0.4283
   40POPC   H91 5370   3.394   0.649   7.354  1.5901 -0.2933 -0.3493
   40POPC  C210 5371   3.427   0.468   7.452  0.0757 -0.5353 -0.2821
   40POPC  H101 5372   3.510   0.519   7.503 -0.3145  0.3507 -0.5070
   40POPC  C211 5373   3.403   0.325   7.484 -0.7701  0.1949 -0.4684
   40POPC  H11R 5374   3.496   0.267   7.463 -1.2142 -0.6107 -0.2507
   40POPC  H11S 5375   3.332   0.280   7.412  0.1378 -1.7885 -0.2235
   40POPC  C212 5376   3.367   0.300   7.634  0.7392 -0.2722  0.7262
   40POPC  H12R 5377   3.337   0.192   7.634 -0.5233  0.0490  1.3419
   40POPC  H12S 5378   3.285   0.367   7.668  0.2948  0.5290 -1.7809
   40POPC  C213 5379   3.484   0.323   7.729  0.1966 -0.2643 -0.8669
   40POPC  H13R 5380   3.491   0.433   7.742  0.6732 -0.2347 -1.3569
   40POPC  H13S 5381   3.581   0.293   7.686  1.4495 -0.8646  2.1445
   40POPC  C214 5382   3.478   0.252   7.866  0.1198 -0.3123  0.0923
   40POPC  H14R 5383   3.462   0.143   7.853 -0.5866 -0.3445  1.1224
   40POPC  H14S 5384   3.391   0.285   7.926  0.6019  0.1358  0.5630
   40POPC  C215 5385   3.604   0.263   7.953 -0.1760  0.3644  0.1370
   40POPC  H15R 5386   3.630   0.369   7.973  3.8040 -0.0075 -1.9459
   40POPC  H15S 5387   3.702   0.252   7.902 -0.1553  1.4017 -0.0677
   40POPC  C216 5388   3.597   0.199   8.090  0.2181 -0.2502 -0.9657
   40POPC  H16R 5389   3.697   0.221   8.134  0.2274 -2.4766  0.2754
   40POPC  H16S 5390   3.602   0.088   8.083  0.4549 -0.2797 -0.3437
   40POPC  C217 5391   3.484   0.232   8.186 -0.4928 -0.3585  0.0134
   40POPC  H17R 5392   3.387   0.198   8.143 -0.7486  0.7052 -0.2941
   40POPC  H17S 5393   3.487   0.343   8.198  0.7323 -0.2769 -0.9676
   40POPC  C218 5394   3.511   0.170   8.318  0.0122 -0.7135 -0.2913
   40POPC  H18R 5395   3.429   0.204   8.385 -0.3083  0.7091 -1.3588
   40POPC  H18S 5396   3.608   0.200   8.361 -0.6370 -0.8484  1.3518
   40POPC  H18T 5397   3.524   0.060   8.305  0.8216 -0.8580  1.4527
   40POPC   C33 5398   2.915   1.619   6.662  0.3186  0.0793  0.0311
   40POPC   H3X 5399   2.936   1.677   6.570  0.0648  1.7308  0.9753
   40POPC   H3Y 5400   2.998   1.635   6.734  1.5729 -0.7539 -1.1796
   40POPC   C34 5401   2.793   1.667   6.736 -0.0546  0.3533  1.2870
   40POPC   H4X 5402   2.701   1.642   6.679 -0.3520 -0.1918  2.0069
   40POPC   H4Y 5403   2.796   1.778   6.738  0.5951  0.4400 -1.1601
   40POPC   C35 5404   2.780   1.612   6.877  0.6807  0.1016  0.1339
   40POPC   H5X 5405   2.816   1.508   6.865  0.0043  0.0244 -1.6566
   40POPC   H5Y 5406   2.670   1.618   6.893  0.7995  1.4972  0.5386
   40POPC   C36 5407   2.833   1.708   6.980  0.8907  0.3689  0.0096
   40POPC   H6X 5408   2.766   1.796   6.992  0.1311 -0.2185  0.1657
   40POPC   H6Y 5409   2.939   1.735   6.961  1.4037 -0.5084  1.4241
   40POPC   C37 5410   2.821   1.637   7.119  0.5572 -0.3349  0.7553
   40POPC   H7X 5411   2.865   1.536   7.100 -0.3967 -0.5827 -0.1792
   40POPC   H7Y 5412   2.715   1.616   7.145  0.4404 -0.4965  0.1639
   40POPC   C38 5413   2.885   1.722   7.224  0.2656  0.3833 -0.1661
   40POPC   H8X 5414   2.816   1.809   7.233  0.2548  0.5641 -1.6566
   40POPC   H8Y 5415   2.981   1.762   7.187  0.3688  0.2516 -0.0417
   40POPC   C39 5416   2.897   1.653   7.366 -0.4959  0.0282  0.5599
   40POPC   H9X 5417   2.983   1.584   7.356  0.7781  1.7984 -1.7702
   40POPC   H9Y 5418   2.816   1.582   7.389  0.6404 -1.2676  0.6907
   40POPC  C310 5419   2.919   1.760   7.478  0.5511 -0.1527 -0.2903
   40POPC  H10X 5420   2.825   1.819   7.483  1.1826  0.7779  1.9579
   40POPC  H10Y 5421   2.997   1.833   7.448  0.6592 -0.4616 -0.7736
   40POPC  C311 5422   2.943   1.707   7.620 -0.2589  0.3184  0.1578
   40POPC  H11X 5423   2.852   1.659   7.663 -1.8194  2.6114 -0.3813
   40POPC  H11Y 5424   2.958   1.793   7.689 -2.1080  1.3320 -0.6304
   40POPC  C312 5425   3.056   1.601   7.635 -0.0269  0.0401 -0.2151
   40POPC  H12X 5426   3.150   1.640   7.590 -0.5902  1.2279 -0.4193
   40POPC  H12Y 5427   3.014   1.522   7.568 -1.1014  1.9190 -1.9054
   40POPC  C313 5428   3.078   1.546   7.768  0.0168  0.5210 -0.2237
   40POPC  H13X 5429   2.987   1.545   7.832 -0.5770 -0.8039 -1.0663
   40POPC  H13Y 5430   3.150   1.615   7.818  0.5931 -0.6935  0.6746
   40POPC  C314 5431   3.141   1.404   7.765 -0.3098 -0.2114 -0.2651
   40POPC  H14X 5432   3.238   1.408   7.710  0.7267 -0.1189  1.5171
   40POPC  H14Y 5433   3.089   1.331   7.699 -0.7831  0.4916 -0.6751
   40POPC  C315 5434   3.160   1.350   7.904  0.5883  0.1945 -0.2792
   40POPC  H15X 5435   3.061   1.346   7.955  0.4449  0.9975 -0.4861
   40POPC  H15Y 5436   3.227   1.424   7.954 -0.6046  1.0819  0.0507
   40POPC  C316 5437   3.221   1.214   7.901 -0.2547 -0.0139 -0.1496
   40POPC  H16X 5438   3.223   1.167   8.001  0.5883 -2.4947 -1.2468
   40POPC  H16Y 5439   3.328   1.211   7.871  0.2695 -0.4781  1.6689
   40POPC  H16Z 5440   3.170   1.138   7.837 -0.8540  0.9097 -0.7892
   41CHL1    C3 5441   1.462   0.373   9.828  0.0088 -0.2833 -0.1527
   41CHL1    H3 5442   1.492   0.268   9.810  2.0378  0.1592  0.4057
   41CHL1    O3 5443   1.413   0.389   9.958  0.1416 -0.5413  1.1866
   41CHL1   H3' 5444   1.319   0.369   9.961 -0.4405  1.4440 -1.0352
   41CHL1    C4 5445   1.584   0.466   9.810 -0.1845  0.2789  0.1156
   41CHL1   H4A 5446   1.556   0.570   9.836  2.7013  0.7594  1.7264
   41CHL1   H4B 5447   1.661   0.435   9.884  1.0341 -0.2725 -1.3300
   41CHL1    C5 5448   1.641   0.450   9.665  0.1323  0.0538  0.5868
   41CHL1    C6 5449   1.763   0.406   9.642  0.2683 -0.4604 -0.2153
   41CHL1    H6 5450   1.836   0.389   9.722 -0.7991 -1.1252  0.6490
   41CHL1    C7 5451   1.823   0.404   9.503 -0.3587  0.0852 -0.1876
   41CHL1   H7A 5452   1.929   0.437   9.498 -0.3933  0.4197  1.0237
   41CHL1   H7B 5453   1.813   0.300   9.464 -1.5339  0.5629 -1.2455
   41CHL1    C8 5454   1.738   0.471   9.396  0.2087 -0.0867 -0.0287
   41CHL1    H8 5455   1.768   0.578   9.396  0.3987 -0.1241 -1.5199
   41CHL1   C14 5456   1.785   0.423   9.259 -0.2042  0.0454 -0.3498
   41CHL1   H14 5457   1.758   0.315   9.263  0.6871 -0.2075 -0.7713
   41CHL1   C15 5458   1.940   0.429   9.239  0.2861  0.2433  0.4949
   41CHL1  H15A 5459   1.990   0.526   9.256  1.2349 -0.2493  0.5551
   41CHL1  H15B 5460   1.985   0.347   9.299 -2.2477  0.1449  2.4481
   41CHL1   C16 5461   1.952   0.396   9.091  0.3607 -0.0717 -0.1021
   41CHL1  H16A 5462   2.022   0.468   9.044 -1.9399  0.4483 -3.0473
   41CHL1  H16B 5463   1.997   0.296   9.077  0.0191 -0.3323  0.6288
   41CHL1   C17 5464   1.802   0.397   9.028  0.2581  0.4005  0.8101
   41CHL1   H17 5465   1.773   0.291   9.013  2.0072  0.3225 -3.1088
   41CHL1   C13 5466   1.719   0.473   9.136  0.3392  0.6110  0.7511
   41CHL1   C18 5467   1.720   0.627   9.114 -0.4332  0.0292 -0.5185
   41CHL1  H18A 5468   1.691   0.673   9.211 -1.6597 -1.0350 -0.3611
   41CHL1  H18B 5469   1.829   0.644   9.097  0.0611 -2.2086 -0.0242
   41CHL1  H18C 5470   1.657   0.672   9.035 -0.3989  1.6300  0.3286
   41CHL1   C12 5471   1.568   0.421   9.157  0.1629 -0.4789  0.2639
   41CHL1  H12A 5472   1.506   0.466   9.076  2.1106  0.2306 -0.8807
   41CHL1  H12B 5473   1.570   0.310   9.148 -0.9423 -0.4996  0.0444
   41CHL1   C11 5474   1.511   0.469   9.286 -0.7392  0.5268 -0.9411
   41CHL1  H11A 5475   1.479   0.575   9.280 -2.6210 -0.0260 -1.4081
   41CHL1  H11B 5476   1.411   0.421   9.294 -1.7677  2.8456  1.4850
   41CHL1    C9 5477   1.593   0.433   9.414 -0.8422 -0.0499  0.3444
   41CHL1    H9 5478   1.602   0.322   9.411 -0.1003  0.0179 -0.4175
   41CHL1   C10 5479   1.537   0.477   9.555  0.6097 -0.7611  0.1812
   41CHL1   C19 5480   1.513   0.633   9.554  0.0715  0.1693 -0.3128
   41CHL1  H19A 5481   1.445   0.653   9.469 -0.3840  0.9293  0.2154
   41CHL1  H19B 5482   1.458   0.678   9.639 -0.8991  1.4827 -1.5949
   41CHL1  H19C 5483   1.605   0.688   9.524  0.5837 -1.7151 -2.4502
   41CHL1    C1 5484   1.407   0.396   9.589  0.0171  0.4409 -0.1770
   41CHL1   H1A 5485   1.326   0.411   9.514  0.2507  1.2074 -0.2863
   41CHL1   H1B 5486   1.427   0.287   9.579  0.1838  0.4390  0.1675
   41CHL1    C2 5487   1.350   0.409   9.732 -0.3285  0.2846  0.2189
   41CHL1   H2A 5488   1.268   0.335   9.735 -1.7396  1.7853  0.1483
   41CHL1   H2B 5489   1.310   0.510   9.755 -1.3220 -0.5440  2.4170
   41CHL1   C20 5490   1.789   0.450   8.885  0.0352 -0.0054  0.5085
   41CHL1   H20 5491   1.809   0.559   8.881  2.1788 -0.3928 -0.5675
   41CHL1   C21 5492   1.647   0.425   8.824 -0.4047 -0.0755  0.4761
   41CHL1  H21A 5493   1.644   0.468   8.722  0.9543 -2.0012 -0.4513
   41CHL1  H21B 5494   1.563   0.462   8.887 -1.6376 -2.0657  0.1191
   41CHL1  H21C 5495   1.626   0.316   8.814 -1.2406  0.0615  0.5845
   41CHL1   C22 5496   1.896   0.384   8.790 -0.3136 -0.6246  0.2602
   41CHL1  H22A 5497   1.999   0.418   8.812 -0.8540 -0.0453  2.0747
   41CHL1  H22B 5498   1.895   0.274   8.803  0.3148 -0.7217 -0.4104
   41CHL1   C23 5499   1.863   0.400   8.637 -0.0556 -0.0833 -1.1149
   41CHL1  H23A 5500   1.776   0.341   8.602 -1.2519 -1.1762  3.1295
   41CHL1  H23B 5501   1.845   0.506   8.611  0.6409 -0.4514 -3.2672
   41CHL1   C24 5502   1.984   0.362   8.548  0.1784  0.2551  0.1678
   41CHL1  H24A 5503   2.065   0.437   8.564 -0.3588  0.2972  3.0944
   41CHL1  H24B 5504   2.025   0.271   8.595 -0.9686 -0.6096 -0.4671
   41CHL1   C25 5505   1.955   0.317   8.404 -0.0932 -0.3569 -0.0837
   41CHL1   H25 5506   2.054   0.293   8.359  0.3840  2.6797 -0.8822
   41CHL1   C26 5507   1.868   0.186   8.395 -0.1956  0.0127 -0.1206
   41CHL1  H26A 5508   1.784   0.180   8.468 -0.1724  0.0910 -0.0874
   41CHL1  H26B 5509   1.822   0.180   8.294 -1.5564  1.5198  0.3813
   41CHL1  H26C 5510   1.932   0.095   8.400  1.5045  1.2404  1.7874
   41CHL1   C27 5511   1.893   0.432   8.320 -0.4372 -0.0189  0.5722
   41CHL1  H27A 5512   1.790   0.466   8.344 -0.0854  1.3688  0.2295
   41CHL1  H27B 5513   1.967   0.515   8.319  0.6691 -0.9846 -1.2426
   41CHL1  H27C 5514   1.891   0.393   8.217  2.4993 -0.1769  0.4862
   42CHL1    C3 5515   2.005   6.758   9.516  0.2836  0.4887  0.0415
   42CHL1    H3 5516   2.052   6.660   9.496  0.1163 -0.6580  4.2902
   42CHL1    O3 5517   2.031   6.797   9.649 -0.7217 -0.0132 -0.0933
   42CHL1   H3' 5518   2.040   6.718   9.703  0.5833  0.7474  0.8891
   42CHL1    C4 5519   2.058   6.859   9.416  0.2742  0.2486  0.1009
   42CHL1   H4A 5520   2.002   6.949   9.448 -0.9737 -0.6472  0.5125
   42CHL1   H4B 5521   2.164   6.866   9.448  0.5035 -1.7778 -0.1143
   42CHL1    C5 5522   2.021   6.820   9.277 -0.1562 -0.3160 -0.5115
   42CHL1    C6 5523   2.119   6.809   9.189  0.5827  0.0624 -0.2252
   42CHL1    H6 5524   2.220   6.812   9.232  0.2390  2.2100  0.5643
   42CHL1    C7 5525   2.104   6.776   9.041  0.0125  0.0192 -0.1718
   42CHL1   H7A 5526   2.159   6.846   8.974  0.2143  2.0785  2.0371
   42CHL1   H7B 5527   2.130   6.669   9.026 -1.4556 -0.3952  0.0338
   42CHL1    C8 5528   1.953   6.791   8.997  0.0212 -0.0420 -0.4180
   42CHL1    H8 5529   1.950   6.901   8.985  2.0970 -0.2084 -3.4862
   42CHL1   C14 5530   1.928   6.720   8.863  0.0180 -0.1929 -0.1522
   42CHL1   H14 5531   1.933   6.610   8.874  0.2534 -0.3222 -1.4121
   42CHL1   C15 5532   2.022   6.760   8.746  0.2361 -0.5506  0.3589
   42CHL1  H15A 5533   2.028   6.869   8.729 -1.9261 -0.4311  0.0836
   42CHL1  H15B 5534   2.126   6.722   8.756  1.4413  1.9970 -1.5015
   42CHL1   C16 5535   1.945   6.703   8.623 -0.3340  0.5218 -0.7931
   42CHL1  H16A 5536   1.953   6.780   8.544  2.9215 -0.0058 -1.1083
   42CHL1  H16B 5537   1.994   6.614   8.579 -0.4673 -0.4878  1.0131
   42CHL1   C17 5538   1.810   6.655   8.678  0.4808  0.1033  0.3584
   42CHL1   H17 5539   1.833   6.550   8.705  0.8541  0.4010  1.2496
   42CHL1   C13 5540   1.784   6.734   8.815 -0.6918 -0.2822  0.7790
   42CHL1   C18 5541   1.751   6.881   8.794 -0.2025  0.3256 -0.6018
   42CHL1  H18A 5542   1.768   6.942   8.885 -1.7458  0.3881 -0.3274
   42CHL1  H18B 5543   1.798   6.933   8.708 -0.1362  0.1904 -0.6479
   42CHL1  H18C 5544   1.641   6.887   8.780 -0.7482  0.8286  2.9119
   42CHL1   C12 5545   1.692   6.660   8.911 -0.7475 -0.4510  0.2126
   42CHL1  H12A 5546   1.592   6.672   8.864 -0.7573 -2.8106 -0.5038
   42CHL1  H12B 5547   1.714   6.551   8.912 -0.0373 -0.3193  1.1124
   42CHL1   C11 5548   1.710   6.726   9.051 -0.5408 -0.1666 -0.1371
   42CHL1  H11A 5549   1.668   6.829   9.044  0.3141  0.3476  1.7839
   42CHL1  H11B 5550   1.648   6.683   9.132 -0.3161 -0.2799 -0.0256
   42CHL1    C9 5551   1.856   6.732   9.098  0.9173  0.1413 -0.1528
   42CHL1    H9 5552   1.882   6.624   9.111 -1.9077 -0.8973 -2.2027
   42CHL1   C10 5553   1.873   6.799   9.247 -0.1882  0.6278  0.9774
   42CHL1   C19 5554   1.781   6.927   9.245  0.0957 -0.0837  0.2386
   42CHL1  H19A 5555   1.801   6.993   9.332  1.2443  0.4307 -0.4044
   42CHL1  H19B 5556   1.800   6.989   9.155 -0.3201 -0.8585 -0.3926
   42CHL1  H19C 5557   1.673   6.900   9.248  0.2681 -0.7429  0.7515
   42CHL1    C1 5558   1.819   6.704   9.352 -0.6280  0.2767  0.3095
   42CHL1   H1A 5559   1.711   6.679   9.343 -0.3723 -0.0904 -2.2629
   42CHL1   H1B 5560   1.871   6.609   9.327 -0.0102  0.4650  0.8548
   42CHL1    C2 5561   1.857   6.734   9.500  0.4988 -0.5574 -0.3962
   42CHL1   H2A 5562   1.836   6.650   9.570  3.4414 -1.9485 -1.0193
   42CHL1   H2B 5563   1.802   6.827   9.525 -1.5365 -2.0129  0.8166
   42CHL1   C20 5564   1.688   6.642   8.581 -0.5850 -0.3443 -0.2274
   42CHL1   H20 5565   1.599   6.638   8.647  0.1225 -1.6851  0.6772
   42CHL1   C21 5566   1.708   6.521   8.493  0.5606  0.0257  0.3929
   42CHL1  H21A 5567   1.632   6.499   8.415  1.7614 -1.2256 -0.4678
   42CHL1  H21B 5568   1.718   6.434   8.562 -0.9463  0.7368  1.5646
   42CHL1  H21C 5569   1.798   6.512   8.430  0.5410  0.5707  0.2823
   42CHL1   C22 5570   1.659   6.768   8.490 -0.3765 -0.4077  0.7850
   42CHL1  H22A 5571   1.746   6.837   8.500 -0.6137  0.2728 -1.3835
   42CHL1  H22B 5572   1.658   6.732   8.385  3.4262 -0.3354  0.5814
   42CHL1   C23 5573   1.529   6.857   8.499 -0.8304 -0.4789  0.0018
   42CHL1  H23A 5574   1.445   6.786   8.515  0.7123 -1.9618  2.0675
   42CHL1  H23B 5575   1.529   6.922   8.588  0.7043 -1.0290  0.4366
   42CHL1   C24 5576   1.518   6.945   8.376  0.2797  0.1610 -0.6062
   42CHL1  H24A 5577   1.612   6.996   8.348 -0.0888  0.5885 -1.0579
   42CHL1  H24B 5578   1.490   6.872   8.297 -1.6653  0.3275 -0.1412
   42CHL1   C25 5579   1.413   7.059   8.377 -0.0204  0.2292  0.0463
   42CHL1   H25 5580   1.392   7.098   8.276  1.7122  0.2581 -0.3372
   42CHL1   C26 5581   1.275   7.004   8.421 -0.3589 -0.4791  0.2010
   42CHL1  H26A 5582   1.252   6.908   8.370  0.4480  0.0184 -1.1658
   42CHL1  H26B 5583   1.276   6.988   8.531 -1.7142 -0.1262  0.2766
   42CHL1  H26C 5584   1.198   7.079   8.396  0.8662  1.2899  1.5236
   42CHL1   C27 5585   1.458   7.177   8.467  0.5889 -0.1655  0.7864
   42CHL1  H27A 5586   1.563   7.203   8.445  1.3484 -1.2685  2.8361
   42CHL1  H27B 5587   1.389   7.262   8.446 -0.5234 -1.0967  0.5144
   42CHL1  H27C 5588   1.449   7.145   8.573 -3.5743  1.5121  1.1235
   43CHL1    C3 5589   0.946   0.623   9.563  0.1102 -0.2116 -1.0517
   43CHL1    H3 5590   0.913   0.727   9.539 -0.7464  0.1666  1.5157
   43CHL1    O3 5591   0.927   0.611   9.705 -0.4169  0.5564  0.2102
   43CHL1   H3' 5592   0.961   0.522   9.720 -1.0278  0.4583  1.1075
   43CHL1    C4 5593   0.859   0.521   9.486  0.4833  0.2654 -0.1072
   43CHL1   H4A 5594   0.877   0.420   9.528 -1.5499 -0.0035  0.2226
   43CHL1   H4B 5595   0.751   0.537   9.508  0.5708 -0.7338  1.1655
   43CHL1    C5 5596   0.886   0.538   9.340 -0.4365  0.3990  0.4516
   43CHL1    C6 5597   0.789   0.556   9.251  0.2528  0.0332  0.0920
   43CHL1    H6 5598   0.683   0.542   9.277  0.1702 -0.0339 -0.2774
   43CHL1    C7 5599   0.810   0.580   9.101  0.5342  0.2254 -0.7951
   43CHL1   H7A 5600   0.730   0.533   9.039 -0.4891  0.4311  0.3201
   43CHL1   H7B 5601   0.801   0.689   9.083  0.0916  0.3406  0.0973
   43CHL1    C8 5602   0.950   0.531   9.054 -0.0486  0.2007  0.8695
   43CHL1    H8 5603   0.943   0.420   9.055  0.3203  0.0887 -1.8982
   43CHL1   C14 5604   0.982   0.585   8.911  0.3375  0.4713 -0.3518
   43CHL1   H14 5605   0.973   0.695   8.923 -3.6216  0.1304  1.2258
   43CHL1   C15 5606   0.880   0.566   8.799  0.7484  0.9915  0.5880
   43CHL1  H15A 5607   0.863   0.457   8.792  0.0844  1.0273  1.4595
   43CHL1  H15B 5608   0.787   0.621   8.823  0.1794  1.2434 -1.8998
   43CHL1   C16 5609   0.955   0.623   8.675  0.4603 -0.3666  0.1147
   43CHL1  H16A 5610   0.939   0.558   8.587 -0.5711 -0.1541  0.1396
   43CHL1  H16B 5611   0.914   0.726   8.666  3.6264  0.8864 -1.2703
   43CHL1   C17 5612   1.101   0.625   8.728  0.0395  0.1889  0.3498
   43CHL1   H17 5613   1.115   0.733   8.748  0.1735  0.0260  1.1496
   43CHL1   C13 5614   1.114   0.542   8.856 -0.4297  1.4150  0.5631
   43CHL1   C18 5615   1.114   0.388   8.841 -0.4273 -0.3427  0.0077
   43CHL1  H18A 5616   1.068   0.329   8.922  0.4737  0.4020  1.0910
   43CHL1  H18B 5617   1.058   0.365   8.748 -1.6408  1.9489  0.1022
   43CHL1  H18C 5618   1.219   0.355   8.821 -0.7415 -0.5268 -1.5096
   43CHL1   C12 5619   1.223   0.593   8.954 -0.6200  1.0515 -0.5144
   43CHL1  H12A 5620   1.325   0.563   8.921 -1.0256 -0.7074 -0.2580
   43CHL1  H12B 5621   1.230   0.703   8.963  0.8953  0.9062  0.4085
   43CHL1   C11 5622   1.204   0.538   9.098  0.8015  0.1144  0.5655
   43CHL1  H11A 5623   1.216   0.427   9.103  2.1709  0.1474 -0.9734
   43CHL1  H11B 5624   1.276   0.582   9.170  1.3746 -0.8677  0.6219
   43CHL1    C9 5625   1.060   0.575   9.152 -0.2278 -0.1962 -0.0701
   43CHL1    H9 5626   1.054   0.686   9.150 -0.8396 -0.2373 -1.4265
   43CHL1   C10 5627   1.034   0.534   9.300  0.2067 -0.2654  0.8012
   43CHL1   C19 5628   1.074   0.378   9.306  0.4754 -0.0778 -0.0628
   43CHL1  H19A 5629   1.021   0.319   9.227 -0.4743  1.1979 -0.4283
   43CHL1  H19B 5630   1.183   0.365   9.291  0.3690  1.9936 -4.4179
   43CHL1  H19C 5631   1.044   0.347   9.408 -1.9131 -2.9239 -1.4709
   43CHL1    C1 5632   1.126   0.626   9.384 -0.0114 -0.4560  0.2063
   43CHL1   H1A 5633   1.233   0.609   9.360 -0.0930  0.0710 -0.5971
   43CHL1   H1B 5634   1.096   0.730   9.359  0.0230 -0.8134 -1.4721
   43CHL1    C2 5635   1.095   0.613   9.535  0.7311 -0.4615  0.0379
   43CHL1   H2A 5636   1.158   0.675   9.603  2.5071 -2.5697  0.4084
   43CHL1   H2B 5637   1.123   0.512   9.570 -0.4203 -0.0836  2.2430
   43CHL1   C20 5638   1.190   0.592   8.608  1.0130 -0.7363  0.5410
   43CHL1   H20 5639   1.154   0.501   8.556 -0.3801 -0.5041  1.0788
   43CHL1   C21 5640   1.338   0.580   8.651 -0.0541  0.2798 -1.0383
   43CHL1  H21A 5641   1.378   0.665   8.710 -0.3785  0.8417 -1.6181
   43CHL1  H21B 5642   1.404   0.570   8.562  3.5687 -3.0433  1.6712
   43CHL1  H21C 5643   1.356   0.487   8.709  0.7792  0.6095 -0.7614
   43CHL1   C22 5644   1.184   0.697   8.493  0.6053 -0.0921  0.5390
   43CHL1  H22A 5645   1.241   0.653   8.409 -1.0419 -3.7353  1.1748
   43CHL1  H22B 5646   1.081   0.695   8.452  0.4307  0.5341  0.9260
   43CHL1   C23 5647   1.223   0.838   8.531 -0.0862 -0.4600 -0.1281
   43CHL1  H23A 5648   1.141   0.890   8.586  1.6370 -0.6139  2.7874
   43CHL1  H23B 5649   1.313   0.842   8.595 -0.3109  0.7514  0.1436
   43CHL1   C24 5650   1.243   0.921   8.399  0.5911 -0.1122  0.2902
   43CHL1  H24A 5651   1.314   0.870   8.330 -0.3859 -0.0101 -0.8224
   43CHL1  H24B 5652   1.139   0.937   8.365  0.4482  2.0126  1.5651
   43CHL1   C25 5653   1.284   1.067   8.413 -0.3170 -0.2786 -1.0159
   43CHL1   H25 5654   1.354   1.080   8.498 -1.5782  1.0587 -0.1272
   43CHL1   C26 5655   1.356   1.115   8.291 -0.8524  0.7274  0.5625
   43CHL1  H26A 5656   1.388   1.221   8.305  1.1073  0.3388 -0.5499
   43CHL1  H26B 5657   1.440   1.047   8.266 -0.1159  0.9091  2.4081
   43CHL1  H26C 5658   1.283   1.109   8.207 -0.0014 -0.3735 -0.1375
   43CHL1   C27 5659   1.166   1.164   8.426  0.0597  0.5177  0.0054
   43CHL1  H27A 5660   1.208   1.265   8.445 -0.6899  0.8990 -0.3558
   43CHL1  H27B 5661   1.108   1.168   8.332 -0.0484  1.4648  0.1074
   43CHL1  H27C 5662   1.093   1.140   8.506 -0.6437 -0.8771 -1.0152
   44CHL1    C3 5663   3.140   6.853   9.677 -0.1246 -0.0757  0.1168
   44CHL1    H3 5664   3.247   6.845   9.704  0.4275  4.0887 -0.1553
   44CHL1    O3 5665   3.058   6.864   9.788  0.1254  0.1046 -0.0631
   44CHL1   H3' 5666   3.030   6.774   9.805 -1.7402  0.2535 -1.8963
   44CHL1    C4 5667   3.134   6.986   9.597  0.2003 -0.0310 -0.4152
   44CHL1   H4A 5668   3.027   7.014   9.589 -0.6040 -3.0839 -1.4497
   44CHL1   H4B 5669   3.180   7.066   9.659 -0.9849 -0.7294  1.4542
   44CHL1    C5 5670   3.205   6.973   9.460 -0.4630 -0.4929 -0.2977
   44CHL1    C6 5671   3.308   7.052   9.424  0.2143 -0.1942  0.5470
   44CHL1    H6 5672   3.339   7.133   9.491  0.5266  1.1180 -1.0987
   44CHL1    C7 5673   3.367   7.052   9.287 -0.5094  0.6153 -0.9709
   44CHL1   H7A 5674   3.378   7.155   9.247 -0.8153  1.2499  0.4886
   44CHL1   H7B 5675   3.469   7.010   9.303 -0.6099  0.8456  0.4046
   44CHL1    C8 5676   3.279   6.980   9.185  0.2954 -0.3436  0.1703
   44CHL1    H8 5677   3.197   7.048   9.154  1.4143  1.0287  0.0977
   44CHL1   C14 5678   3.358   6.955   9.054 -0.9469  0.1955 -0.2809
   44CHL1   H14 5679   3.444   6.898   9.094 -0.4025 -0.8165 -2.6834
   44CHL1   C15 5680   3.425   7.074   8.989 -0.2539 -0.0662 -0.2287
   44CHL1  H15A 5681   3.352   7.155   8.972 -0.7289 -0.0411  1.6395
   44CHL1  H15B 5682   3.504   7.118   9.053 -1.9126  0.0497  1.8631
   44CHL1   C16 5683   3.473   7.016   8.851  0.2597 -0.1217  0.0699
   44CHL1  H16A 5684   3.447   7.072   8.758  0.2763 -0.3587 -0.0775
   44CHL1  H16B 5685   3.584   7.011   8.852  0.3614  0.9996 -1.2433
   44CHL1   C17 5686   3.425   6.871   8.841  0.6517  0.2518 -0.1983
   44CHL1   H17 5687   3.495   6.801   8.892 -1.1834 -0.0616  2.1143
   44CHL1   C13 5688   3.306   6.865   8.948 -0.0841  0.1139  0.4419
   44CHL1   C18 5689   3.179   6.920   8.885  0.3098 -0.2484 -1.0066
   44CHL1  H18A 5690   3.109   6.952   8.964  2.0125  0.7570  0.1622
   44CHL1  H18B 5691   3.198   7.005   8.815 -0.9742 -0.9970 -2.3351
   44CHL1  H18C 5692   3.135   6.834   8.829 -1.8752  0.1872 -0.0450
   44CHL1   C12 5693   3.272   6.731   9.013 -0.1061  0.0257  0.2464
   44CHL1  H12A 5694   3.236   6.654   8.941  2.1857 -1.6920  0.8293
   44CHL1  H12B 5695   3.366   6.688   9.054 -0.7395 -1.0423  0.6233
   44CHL1   C11 5696   3.169   6.753   9.127  0.4332 -0.6791  0.6651
   44CHL1  H11A 5697   3.075   6.791   9.082  0.9776 -0.5755 -0.4388
   44CHL1  H11B 5698   3.139   6.653   9.163  1.2333 -1.1813 -0.0136
   44CHL1    C9 5699   3.232   6.845   9.239  0.1471  0.6618 -0.1599
   44CHL1    H9 5700   3.319   6.790   9.281 -0.1416  1.4364  1.5474
   44CHL1   C10 5701   3.151   6.865   9.370 -0.2408 -0.4041  0.7527
   44CHL1   C19 5702   3.007   6.896   9.331 -0.4801  0.3877  0.2232
   44CHL1  H19A 5703   2.949   6.942   9.413  0.6771  0.7972  0.8304
   44CHL1  H19B 5704   3.016   6.977   9.255  0.6302  0.4189  0.3687
   44CHL1  H19C 5705   2.962   6.805   9.284  1.1830  0.3187 -1.3743
   44CHL1    C1 5706   3.159   6.737   9.455 -0.3464  0.1733  0.6542
   44CHL1   H1A 5707   3.097   6.669   9.392  0.9724 -1.0169  0.6038
   44CHL1   H1B 5708   3.264   6.703   9.469 -0.2826  0.5377  1.0762
   44CHL1    C2 5709   3.094   6.734   9.593  0.0828 -0.0925 -0.2550
   44CHL1   H2A 5710   3.127   6.642   9.646  1.9298 -0.3021 -1.6566
   44CHL1   H2B 5711   2.983   6.737   9.587 -0.0718  0.3501  1.9940
   44CHL1   C20 5712   3.389   6.822   8.696 -0.2370 -0.3731 -0.2633
   44CHL1   H20 5713   3.294   6.864   8.657 -0.3498  0.6353  1.0359
   44CHL1   C21 5714   3.371   6.670   8.694  0.0195 -0.2691 -0.3825
   44CHL1  H21A 5715   3.377   6.636   8.589  0.1758 -3.9975  0.6768
   44CHL1  H21B 5716   3.279   6.638   8.747  0.7191  0.3255  1.2770
   44CHL1  H21C 5717   3.458   6.615   8.737 -0.0967 -0.4768 -0.4152
   44CHL1   C22 5718   3.508   6.860   8.598  0.3544 -0.4056  0.4980
   44CHL1  H22A 5719   3.473   6.800   8.511  1.3511 -1.0356  0.5278
   44CHL1  H22B 5720   3.518   6.967   8.569  1.8768 -0.6387  0.0912
   44CHL1   C23 5721   3.642   6.801   8.641 -0.5750 -0.1799 -0.1058
   44CHL1  H23A 5722   3.671   6.843   8.739  0.8399 -1.0652 -0.1206
   44CHL1  H23B 5723   3.623   6.693   8.662  2.3420 -0.8554 -0.6160
   44CHL1   C24 5724   3.748   6.817   8.526  0.7554  0.4463 -0.2689
   44CHL1  H24A 5725   3.690   6.805   8.431  1.4474  2.7083 -1.0387
   44CHL1  H24B 5726   3.795   6.918   8.531  0.3885  0.6078 -0.0283
   44CHL1   C25 5727   3.859   6.711   8.546 -0.7885  0.6680  0.2010
   44CHL1   H25 5728   3.810   6.613   8.526 -1.2658  0.8928  0.2499
   44CHL1   C26 5729   3.963   6.731   8.436 -0.1644  0.4214  0.4111
   44CHL1  H26A 5730   4.028   6.819   8.454  0.1074 -0.0386  1.8183
   44CHL1  H26B 5731   4.022   6.638   8.446 -0.2034  0.4653  1.1421
   44CHL1  H26C 5732   3.918   6.729   8.334  1.5792 -1.5260 -0.3915
   44CHL1   C27 5733   3.926   6.702   8.685  0.2994 -0.8707  0.5804
   44CHL1  H27A 5734   3.859   6.689   8.772 -1.1518  0.1337 -0.3393
   44CHL1  H27B 5735   3.999   6.618   8.690  1.8943  0.3634 -0.8616
   44CHL1  H27C 5736   3.985   6.790   8.714  1.5697 -1.4366 -0.2034
   45CHL1    C3 5737   1.414   6.425   9.199  0.4357  0.3269  0.4018
   45CHL1    H3 5738   1.304   6.419   9.214  0.5394  1.6484  1.9830
   45CHL1    O3 5739   1.468   6.521   9.290  0.0465 -0.0577 -0.4123
   45CHL1   H3' 5740   1.544   6.487   9.338 -1.2999 -1.4847  0.8495
   45CHL1    C4 5741   1.483   6.286   9.215  0.9336  1.0665  0.2165
   45CHL1   H4A 5742   1.592   6.288   9.194  0.6489  0.4580 -1.4614
   45CHL1   H4B 5743   1.464   6.254   9.320  1.2495 -0.3873 -0.1405
   45CHL1    C5 5744   1.422   6.186   9.119 -0.2152 -0.1079  0.9985
   45CHL1    C6 5745   1.363   6.075   9.160  0.3875  0.3940 -0.4375
   45CHL1    H6 5746   1.365   6.054   9.268 -0.7402  1.8396 -0.1078
   45CHL1    C7 5747   1.288   5.976   9.070 -0.1322 -0.4540  0.6795
   45CHL1   H7A 5748   1.315   5.869   9.088 -0.3003 -1.1517 -2.5568
   45CHL1   H7B 5749   1.180   5.993   9.087 -0.4459  2.2081 -2.8923
   45CHL1    C8 5750   1.309   5.995   8.918  0.1809 -0.3613 -0.5652
   45CHL1    H8 5751   1.211   5.962   8.878  0.4866 -0.5058 -1.2037
   45CHL1   C14 5752   1.413   5.908   8.853  0.1725  0.5014  0.2367
   45CHL1   H14 5753   1.513   5.912   8.902  0.0861 -1.2378  0.6202
   45CHL1   C15 5754   1.354   5.755   8.862 -0.6356  0.4467 -0.4454
   45CHL1  H15A 5755   1.439   5.686   8.883 -1.3266 -0.1086  0.5730
   45CHL1  H15B 5756   1.279   5.736   8.941  0.2502 -1.4046  0.0091
   45CHL1   C16 5757   1.298   5.719   8.724 -0.6240  0.0974 -0.1947
   45CHL1  H16A 5758   1.365   5.643   8.679  0.9973  1.1678  0.3249
   45CHL1  H16B 5759   1.196   5.680   8.743 -1.2806  1.9703  0.3110
   45CHL1   C17 5760   1.297   5.849   8.640 -0.0385  0.5313  0.2078
   45CHL1   H17 5761   1.200   5.894   8.672 -0.2708  0.4903 -0.4231
   45CHL1   C13 5762   1.420   5.931   8.697 -0.1151 -0.4514  0.0663
   45CHL1   C18 5763   1.553   5.864   8.643 -0.3224 -0.2464 -0.6589
   45CHL1  H18A 5764   1.565   5.755   8.656 -0.3537 -0.5176 -2.5352
   45CHL1  H18B 5765   1.567   5.886   8.535 -1.8740 -0.3949 -0.9123
   45CHL1  H18C 5766   1.626   5.922   8.703  0.0700  0.2113 -1.5486
   45CHL1   C12 5767   1.412   6.082   8.656 -0.0582  0.5897  0.0375
   45CHL1  H12A 5768   1.516   6.118   8.668  0.4040 -0.9334  0.8047
   45CHL1  H12B 5769   1.405   6.090   8.545  0.4846  1.1782  0.0370
   45CHL1   C11 5770   1.312   6.168   8.727 -0.5463 -0.0749 -0.1347
   45CHL1  H11A 5771   1.335   6.272   8.697 -2.0770  0.8497  1.6779
   45CHL1  H11B 5772   1.214   6.137   8.685  0.7146 -2.2126 -1.7294
   45CHL1    C9 5773   1.317   6.142   8.881  0.6142  0.7847 -0.3498
   45CHL1    H9 5774   1.223   6.194   8.911  1.7021  2.3225  0.4876
   45CHL1   C10 5775   1.420   6.230   8.971  0.1756 -0.0098  0.2478
   45CHL1   C19 5776   1.562   6.223   8.908  0.4668  0.0693 -0.2622
   45CHL1  H19A 5777   1.560   6.268   8.806 -0.9335 -0.6061 -0.5699
   45CHL1  H19B 5778   1.647   6.265   8.965 -0.7580  1.3502  0.6884
   45CHL1  H19C 5779   1.586   6.115   8.898 -0.0521 -0.1102  0.3546
   45CHL1    C1 5780   1.370   6.378   8.961  0.0802 -0.2868 -0.0430
   45CHL1   H1A 5781   1.397   6.396   8.855 -0.5826 -1.2716 -0.3977
   45CHL1   H1B 5782   1.260   6.387   8.977 -0.0961  0.5297 -1.4648
   45CHL1    C2 5783   1.445   6.469   9.060 -0.4733  0.4553  0.2787
   45CHL1   H2A 5784   1.429   6.577   9.038  0.9626  0.4374 -1.0116
   45CHL1   H2B 5785   1.555   6.454   9.051 -0.6947 -0.0696 -2.6354
   45CHL1   C20 5786   1.282   5.833   8.488  0.4664  0.0564  0.4977
   45CHL1   H20 5787   1.347   5.912   8.444 -0.1889  0.5932  0.4787
   45CHL1   C21 5788   1.139   5.876   8.451 -1.3814  0.1811  0.5100
   45CHL1  H21A 5789   1.104   5.968   8.504 -1.8827  0.2978 -0.0167
   45CHL1  H21B 5790   1.068   5.803   8.494 -2.7668  0.0002 -1.9184
   45CHL1  H21C 5791   1.130   5.884   8.341  0.5906  0.4243  0.3302
   45CHL1   C22 5792   1.326   5.700   8.434 -0.2280  0.6782 -0.3385
   45CHL1  H22A 5793   1.421   5.666   8.482 -0.6173  1.3439  0.9634
   45CHL1  H22B 5794   1.257   5.623   8.475  0.6640 -1.6517 -2.9047
   45CHL1   C23 5795   1.316   5.670   8.281 -0.8041 -1.2432 -0.7697
   45CHL1  H23A 5796   1.212   5.671   8.240 -1.4701  2.1727  0.6738
   45CHL1  H23B 5797   1.376   5.746   8.227 -1.4047 -1.6709 -2.0935
   45CHL1   C24 5798   1.377   5.536   8.250 -0.1245 -0.7135  0.4354
   45CHL1  H24A 5799   1.480   5.526   8.291  0.2187  1.4538  0.2265
   45CHL1  H24B 5800   1.309   5.462   8.296  0.6658 -1.1267  0.9417
   45CHL1   C25 5801   1.373   5.497   8.097  0.2738  0.3789  0.5312
   45CHL1   H25 5802   1.273   5.504   8.049  1.8436  0.4219 -3.0651
   45CHL1   C26 5803   1.463   5.594   8.014 -0.5141 -0.2671  0.7131
   45CHL1  H26A 5804   1.424   5.696   8.034 -0.8111 -0.3422  0.5282
   45CHL1  H26B 5805   1.572   5.586   8.029 -0.2769  2.3146  0.7035
   45CHL1  H26C 5806   1.449   5.568   7.907 -1.4217  0.3691  0.6664
   45CHL1   C27 5807   1.418   5.356   8.067  0.0896  0.2211 -0.4770
   45CHL1  H27A 5808   1.351   5.292   8.127 -2.1108  3.4958  0.8507
   45CHL1  H27B 5809   1.399   5.335   7.959 -2.1563  2.1974 -0.5472
   45CHL1  H27C 5810   1.524   5.336   8.093  0.5643 -0.7773 -2.8381
   46CHL1    C3 5811   1.942   3.173   9.725 -0.3160  0.0326 -0.5761
   46CHL1    H3 5812   1.846   3.119   9.735 -0.3922  0.4453  1.3463
   46CHL1    O3 5813   1.994   3.216   9.854  0.3840 -0.3637  0.0326
   46CHL1   H3' 5814   1.923   3.270   9.889  0.6832  0.1218 -0.1121
   46CHL1    C4 5815   2.050   3.082   9.665  0.5190  0.3158 -0.5309
   46CHL1   H4A 5816   2.149   3.127   9.684  0.1581  1.6782 -1.6393
   46CHL1   H4B 5817   2.061   2.987   9.721  1.2936 -0.0458 -1.2717
   46CHL1    C5 5818   2.031   3.062   9.522  0.2054 -0.5152  0.8807
   46CHL1    C6 5819   2.025   2.936   9.479 -0.2640 -0.9035 -0.1034
   46CHL1    H6 5820   2.039   2.860   9.557 -1.1442 -1.9117 -0.8965
   46CHL1    C7 5821   1.986   2.904   9.337 -0.8565  0.0028 -0.7498
   46CHL1   H7A 5822   2.046   2.816   9.305  1.3750  0.5139  1.6485
   46CHL1   H7B 5823   1.877   2.887   9.325 -1.0098 -1.2490  1.7988
   46CHL1    C8 5824   2.028   3.028   9.241  0.1427 -0.1857 -0.4775
   46CHL1    H8 5825   2.139   3.035   9.243  0.1355  1.0088  3.0929
   46CHL1   C14 5826   1.970   3.003   9.101 -0.0065 -0.4858  0.7082
   46CHL1   H14 5827   1.861   3.021   9.112 -0.0512 -0.0990 -0.2748
   46CHL1   C15 5828   1.991   2.865   9.044  0.1410  0.2347 -0.0662
   46CHL1  H15A 5829   2.093   2.835   9.075 -0.2892  0.4100  1.6474
   46CHL1  H15B 5830   1.922   2.785   9.081  0.0488  0.2171 -0.2762
   46CHL1   C16 5831   1.987   2.885   8.895  0.4387  0.0381  0.0254
   46CHL1  H16A 5832   2.082   2.848   8.851 -1.3710 -1.0260 -3.3174
   46CHL1  H16B 5833   1.905   2.830   8.843  0.8526  0.2783 -0.8847
   46CHL1   C17 5834   1.971   3.041   8.872  0.1072 -0.9373  0.4056
   46CHL1   H17 5835   1.863   3.058   8.890  0.0545 -1.6200  0.7868
   46CHL1   C13 5836   2.029   3.105   8.998 -0.5704  0.5656 -0.3374
   46CHL1   C18 5837   2.186   3.098   8.978  0.6377  0.1189 -0.5609
   46CHL1  H18A 5838   2.232   3.107   9.078 -2.2072 -1.0693  0.9970
   46CHL1  H18B 5839   2.219   3.002   8.933 -0.1027  0.0252 -0.9258
   46CHL1  H18C 5840   2.207   3.194   8.926 -0.9196  0.6819 -0.2102
   46CHL1   C12 5841   1.991   3.250   9.042  0.5118 -0.2104 -0.7809
   46CHL1  H12A 5842   2.029   3.331   8.976  0.3047  0.2966 -0.2860
   46CHL1  H12B 5843   1.880   3.256   9.038  0.2736 -1.7640  1.4364
   46CHL1   C11 5844   2.032   3.276   9.194 -0.3419 -0.5551  0.5620
   46CHL1  H11A 5845   2.142   3.265   9.191 -0.4633 -2.2243  0.9343
   46CHL1  H11B 5846   2.004   3.377   9.229  4.0460  1.7646 -1.7976
   46CHL1    C9 5847   1.983   3.164   9.285 -0.1323  0.5148 -0.4803
   46CHL1    H9 5848   1.872   3.170   9.287 -0.0852  1.7747 -0.6133
   46CHL1   C10 5849   2.009   3.187   9.438 -0.2937  0.2810  0.1390
   46CHL1   C19 5850   2.147   3.254   9.457  0.6602  0.2026  0.3373
   46CHL1  H19A 5851   2.149   3.351   9.403  1.2906 -1.0096 -1.9540
   46CHL1  H19B 5852   2.175   3.274   9.562  1.1505 -3.3989  1.0342
   46CHL1  H19C 5853   2.231   3.194   9.416 -0.4639  1.0766 -3.7701
   46CHL1    C1 5854   1.896   3.277   9.496 -0.5811  0.3730  0.7704
   46CHL1   H1A 5855   1.899   3.370   9.435  1.8108 -1.0118 -1.4224
   46CHL1   H1B 5856   1.806   3.214   9.486  2.3455 -4.0371 -1.0753
   46CHL1    C2 5857   1.914   3.306   9.644 -0.0783  0.2463 -0.3121
   46CHL1   H2A 5858   1.816   3.345   9.678 -0.2709 -0.3000 -0.2244
   46CHL1   H2B 5859   2.006   3.366   9.656  0.2392 -0.2486 -0.2354
   46CHL1   C20 5860   2.008   3.086   8.732  0.7452  0.4316 -0.0056
   46CHL1   H20 5861   2.117   3.104   8.744  0.4542  2.3027  0.1153
   46CHL1   C21 5862   1.929   3.217   8.700  0.2532  0.3180  0.0084
   46CHL1  H21A 5863   1.943   3.305   8.767  0.0047 -0.3062  0.9006
   46CHL1  H21B 5864   1.820   3.194   8.701  0.0560  1.2329 -0.0181
   46CHL1  H21C 5865   1.952   3.250   8.596  0.2383  1.1137  0.2560
   46CHL1   C22 5866   1.993   2.975   8.625 -0.4000  0.7396 -0.6153
   46CHL1  H22A 5867   2.047   2.882   8.654  0.1176  0.5021 -2.2004
   46CHL1  H22B 5868   1.884   2.953   8.629 -0.2518  0.0788  0.0464
   46CHL1   C23 5869   2.042   3.018   8.485 -0.5169  0.4944 -0.3872
   46CHL1  H23A 5870   1.971   3.089   8.439 -2.3595 -0.4682  0.8388
   46CHL1  H23B 5871   2.144   3.059   8.498  0.0864 -0.8081 -0.7510
   46CHL1   C24 5872   2.056   2.900   8.384 -0.0892 -0.1555 -0.1103
   46CHL1  H24A 5873   2.147   2.843   8.411 -0.3836 -1.8104 -2.3726
   46CHL1  H24B 5874   1.977   2.825   8.407 -2.1886  0.9639 -2.9825
   46CHL1   C25 5875   2.052   2.922   8.233  0.4053  0.0337 -0.2008
   46CHL1   H25 5876   2.138   2.976   8.188  1.4777 -1.2505  0.2485
   46CHL1   C26 5877   2.050   2.782   8.171 -0.3808 -0.0265  0.4375
   46CHL1  H26A 5878   1.977   2.718   8.225 -2.0824  0.2886 -1.4001
   46CHL1  H26B 5879   2.022   2.795   8.065 -1.3481 -1.5420  0.4820
   46CHL1  H26C 5880   2.145   2.725   8.185  0.5028  1.5119  1.0005
   46CHL1   C27 5881   1.931   3.007   8.186  0.3025  0.1707  0.4656
   46CHL1  H27A 5882   1.937   3.098   8.249  0.2211  1.3335 -1.1418
   46CHL1  H27B 5883   1.922   3.035   8.079 -1.5729 -2.4739 -0.1742
   46CHL1  H27C 5884   1.831   2.967   8.212  0.5822 -0.4886  0.5322
   47CHL1    C3 5885   3.306   6.361   9.398  1.0040  0.1452 -0.4143
   47CHL1    H3 5886   3.206   6.408   9.404  1.8404  1.8064  1.9563
   47CHL1    O3 5887   3.373   6.406   9.515 -0.3645  0.8698  0.0238
   47CHL1   H3' 5888   3.463   6.374   9.507 -0.5657  0.0619  0.9060
   47CHL1    C4 5889   3.309   6.209   9.403 -0.1073 -0.3348  0.5920
   47CHL1   H4A 5890   3.409   6.167   9.425  0.5092  1.0491  0.5404
   47CHL1   H4B 5891   3.242   6.181   9.487  0.6568 -0.2185  1.2454
   47CHL1    C5 5892   3.264   6.148   9.269  0.2941  0.0631 -1.1273
   47CHL1    C6 5893   3.154   6.064   9.273  0.3921 -0.0100 -0.0277
   47CHL1    H6 5894   3.114   6.035   9.371 -3.3298  0.5426 -1.2344
   47CHL1    C7 5895   3.090   5.996   9.154 -0.1128  0.4263 -0.7804
   47CHL1   H7A 5896   3.086   5.886   9.172 -0.8997  0.2919 -1.7006
   47CHL1   H7B 5897   2.983   6.023   9.138 -1.3991 -1.6280  3.0429
   47CHL1    C8 5898   3.190   6.009   9.034 -0.8532 -0.7291 -0.0632
   47CHL1    H8 5899   3.269   5.934   9.058 -0.6239  0.0940  1.9492
   47CHL1   C14 5900   3.116   5.963   8.908 -0.5463  0.5927 -0.1168
   47CHL1   H14 5901   3.039   6.040   8.885 -1.5217 -0.6813 -1.2087
   47CHL1   C15 5902   3.030   5.835   8.908 -0.3870 -0.6681 -0.1496
   47CHL1  H15A 5903   3.074   5.760   8.977  3.0203  1.2878  0.0391
   47CHL1  H15B 5904   2.928   5.851   8.950 -0.7788 -2.8256 -0.1419
   47CHL1   C16 5905   3.026   5.795   8.766  0.2819  0.3396  0.0910
   47CHL1  H16A 5906   3.086   5.702   8.759  0.1737  0.1655  1.2929
   47CHL1  H16B 5907   2.923   5.762   8.741  0.6441 -1.0820  0.3952
   47CHL1   C17 5908   3.094   5.903   8.673 -0.0819 -0.1653 -0.3925
   47CHL1   H17 5909   3.027   5.988   8.649  0.5153  0.2502 -0.5976
   47CHL1   C13 5910   3.196   5.960   8.777  0.0948  0.0698  0.3701
   47CHL1   C18 5911   3.319   5.852   8.793 -0.0038 -0.0531  0.3174
   47CHL1  H18A 5912   3.288   5.747   8.776  1.4570 -0.6649  1.2062
   47CHL1  H18B 5913   3.396   5.872   8.715 -1.0841 -2.2104 -1.4041
   47CHL1  H18C 5914   3.359   5.853   8.897 -0.1095  2.1583  0.3844
   47CHL1   C12 5915   3.239   6.109   8.769  0.0450 -0.0118  0.7784
   47CHL1  H12A 5916   3.308   6.134   8.686 -2.0615  1.9432 -0.4883
   47CHL1  H12B 5917   3.150   6.175   8.760  0.4318  0.4823  0.5102
   47CHL1   C11 5918   3.325   6.160   8.882  0.3546  0.3263 -0.2684
   47CHL1  H11A 5919   3.420   6.103   8.884  0.9785  1.3063  2.7327
   47CHL1  H11B 5920   3.345   6.266   8.856 -1.0273  0.9657  1.1041
   47CHL1    C9 5921   3.252   6.148   9.015  0.7327 -0.3543 -0.5962
   47CHL1    H9 5922   3.159   6.209   9.004 -0.1117 -1.4257  0.3385
   47CHL1   C10 5923   3.324   6.203   9.138 -0.3810  0.1063  0.4058
   47CHL1   C19 5924   3.466   6.149   9.120  0.0949 -0.2802 -0.0963
   47CHL1  H19A 5925   3.475   6.042   9.095  1.5747 -0.3979  0.8253
   47CHL1  H19B 5926   3.522   6.199   9.038 -2.0147 -1.5808 -2.4763
   47CHL1  H19C 5927   3.527   6.164   9.212  1.8850  0.2145 -1.3189
   47CHL1    C1 5928   3.312   6.357   9.141 -0.4820 -0.5180 -0.5329
   47CHL1   H1A 5929   3.351   6.410   9.052 -0.4010 -1.4519 -1.0637
   47CHL1   H1B 5930   3.208   6.397   9.142  0.2907  1.7933  2.6891
   47CHL1    C2 5931   3.380   6.412   9.274 -0.0484  0.7093 -0.5286
   47CHL1   H2A 5932   3.376   6.523   9.281  1.5636  0.7436  0.3255
   47CHL1   H2B 5933   3.488   6.386   9.274 -0.5051 -1.3995 -0.7343
   47CHL1   C20 5934   3.146   5.846   8.536  0.3682 -0.3777  0.3135
   47CHL1   H20 5935   3.216   5.762   8.555  2.2842  0.9146 -0.6850
   47CHL1   C21 5936   3.240   5.943   8.458  0.6211  0.7293  0.1690
   47CHL1  H21A 5937   3.317   5.990   8.522 -0.5487  2.8977  0.0819
   47CHL1  H21B 5938   3.182   6.020   8.404  1.8484  2.7345  1.5807
   47CHL1  H21C 5939   3.291   5.896   8.371 -0.4945 -0.0395 -0.0885
   47CHL1   C22 5940   3.030   5.788   8.452  0.1336 -0.2945  0.2385
   47CHL1  H22A 5941   2.976   5.706   8.504  0.0432  0.1195  0.8110
   47CHL1  H22B 5942   2.954   5.869   8.447 -0.2286 -0.6189  0.4764
   47CHL1   C23 5943   3.072   5.739   8.310  0.7446 -0.5528  0.1600
   47CHL1  H23A 5944   3.134   5.811   8.252  0.4219 -1.3976 -1.2753
   47CHL1  H23B 5945   3.137   5.651   8.327  1.9995  0.1553 -0.8038
   47CHL1   C24 5946   2.949   5.703   8.224  0.4767 -0.2448 -0.6670
   47CHL1  H24A 5947   2.897   5.619   8.275 -2.2896  0.8067 -1.6093
   47CHL1  H24B 5948   2.871   5.781   8.213  1.1775  0.3236 -1.7763
   47CHL1   C25 5949   2.986   5.653   8.085  0.2062 -0.5665 -0.2219
   47CHL1   H25 5950   3.053   5.565   8.096  1.3608  0.2737 -0.3134
   47CHL1   C26 5951   2.856   5.615   8.023  0.0038 -0.3654 -0.2678
   47CHL1  H26A 5952   2.790   5.555   8.088  0.2554 -0.6666 -0.2851
   47CHL1  H26B 5953   2.859   5.561   7.926  0.6775  2.2222 -1.7872
   47CHL1  H26C 5954   2.805   5.712   8.003  1.1380  0.5574  1.1581
   47CHL1   C27 5955   3.061   5.759   7.996 -0.2201 -0.4848 -0.6346
   47CHL1  H27A 5956   3.080   5.722   7.893  0.3153 -1.4120 -0.2177
   47CHL1  H27B 5957   2.991   5.844   7.984 -2.3310 -2.2162 -1.2230
   47CHL1  H27C 5958   3.162   5.784   8.035 -0.0356 -1.0090 -0.7650
   48CHL1    C3 5959   5.572   0.169  10.040 -0.4851  0.0183 -0.8192
   48CHL1    H3 5960   5.467   0.204  10.044 -1.2673 -2.1751 -0.4503
   48CHL1    O3 5961   5.643   0.168  10.165 -0.3500 -0.6668 -0.6615
   48CHL1   H3' 5962   5.687   0.083  10.173  0.5334 -0.0577  2.4051
   48CHL1    C4 5963   5.574   0.021   9.983 -0.5671  0.2114 -0.1576
   48CHL1   H4A 5964   5.677  -0.019   9.972 -1.4574 -1.9219 -1.5718
   48CHL1   H4B 5965   5.523  -0.049  10.053  1.9007 -3.8114 -1.9822
   48CHL1    C5 5966   5.518   0.001   9.845  0.3703 -0.7977  0.2541
   48CHL1    C6 5967   5.420  -0.080   9.819  0.0940  0.1786  0.1883
   48CHL1    H6 5968   5.380  -0.147   9.896 -1.5040 -0.3316 -1.0224
   48CHL1    C7 5969   5.365  -0.108   9.682 -0.8958  0.6050  1.2887
   48CHL1   H7A 5970   5.371  -0.215   9.653 -0.4255  1.5580 -2.8260
   48CHL1   H7B 5971   5.265  -0.063   9.667 -0.0441  2.1639 -0.0304
   48CHL1    C8 5972   5.452  -0.043   9.572  0.3694  0.0145  0.1610
   48CHL1    H8 5973   5.540  -0.108   9.555  0.3196 -0.3013  1.0732
   48CHL1   C14 5974   5.383  -0.036   9.436  0.4946 -0.0341 -0.1637
   48CHL1   H14 5975   5.302   0.034   9.464  1.0947  0.6923 -0.2231
   48CHL1   C15 5976   5.314  -0.160   9.382  0.6308  0.2849 -0.5276
   48CHL1  H15A 5977   5.370  -0.254   9.404  1.2244  0.7813  0.1217
   48CHL1  H15B 5978   5.215  -0.157   9.432 -0.5954 -0.3937 -2.7686
   48CHL1   C16 5979   5.305  -0.143   9.233  0.5523 -0.5664  0.0824
   48CHL1  H16A 5980   5.385  -0.214   9.201 -0.2614 -1.0091 -1.0095
   48CHL1  H16B 5981   5.210  -0.182   9.191 -1.9088 -1.1192  5.3572
   48CHL1   C17 5982   5.349   0.005   9.207  0.4295  1.0355  0.6777
   48CHL1   H17 5983   5.256   0.063   9.227 -0.3802 -0.0610  0.2008
   48CHL1   C13 5984   5.452   0.033   9.322 -0.4454 -0.1584 -0.6457
   48CHL1   C18 5985   5.586  -0.034   9.298 -0.2200  0.1748  0.8460
   48CHL1  H18A 5986   5.646   0.022   9.223 -0.1825  0.5503  1.1578
   48CHL1  H18B 5987   5.655  -0.045   9.384  2.9391  0.9618 -1.3718
   48CHL1  H18C 5988   5.578  -0.133   9.248  0.5004  0.4550  0.1493
   48CHL1   C12 5989   5.472   0.181   9.364  0.0056 -0.0702  0.0438
   48CHL1  H12A 5990   5.507   0.240   9.277  0.1359 -0.0026  0.1417
   48CHL1  H12B 5991   5.374   0.226   9.392 -0.6483 -1.8960  0.8708
   48CHL1   C11 5992   5.557   0.189   9.497 -0.1693  0.1356  0.5042
   48CHL1  H11A 5993   5.653   0.149   9.460 -0.7610 -0.9115  0.0491
   48CHL1  H11B 5994   5.548   0.297   9.522 -1.5444 -0.1800  1.5199
   48CHL1    C9 5995   5.500   0.100   9.606  0.2058  1.1449 -0.5541
   48CHL1    H9 5996   5.406   0.147   9.644 -1.1043 -1.4798 -0.3206
   48CHL1   C10 5997   5.580   0.095   9.736 -0.1371  1.0757 -0.2056
   48CHL1   C19 5998   5.720   0.027   9.705  0.3437 -0.3632 -0.7396
   48CHL1  H19A 5999   5.711  -0.081   9.681  0.9585 -0.4820 -0.4299
   48CHL1  H19B 6000   5.753   0.065   9.606 -2.4849  0.4217 -1.4905
   48CHL1  H19C 6001   5.804   0.052   9.773 -1.1621  0.6469  0.8621
   48CHL1    C1 6002   5.595   0.241   9.796  0.4003 -0.2390  0.5422
   48CHL1   H1A 6003   5.659   0.306   9.732 -0.8726  0.2660 -0.2572
   48CHL1   H1B 6004   5.499   0.297   9.802 -0.2802 -1.0651 -1.6449
   48CHL1    C2 6005   5.658   0.252   9.937 -0.1889  0.4691  0.6154
   48CHL1   H2A 6006   5.655   0.358   9.969  1.7522 -0.1306  3.0838
   48CHL1   H2B 6007   5.756   0.203   9.949  0.0352  0.2969 -1.5376
   48CHL1   C20 6008   5.396   0.025   9.064  0.2805  0.4024 -0.7452
   48CHL1   H20 6009   5.476  -0.051   9.055  1.2421  1.3629 -0.5839
   48CHL1   C21 6010   5.429   0.178   9.044 -0.6235 -0.0640  0.0545
   48CHL1  H21A 6011   5.349   0.243   9.084  1.1068  2.5382 -0.4571
   48CHL1  H21B 6012   5.444   0.203   8.937 -0.0714  0.8097  0.3182
   48CHL1  H21C 6013   5.523   0.196   9.101  0.1608  0.4574 -1.3624
   48CHL1   C22 6014   5.296  -0.019   8.962  0.2647  0.4285 -0.3483
   48CHL1  H22A 6015   5.261  -0.123   8.981 -0.0000  0.2806 -1.5299
   48CHL1  H22B 6016   5.202   0.041   8.966 -0.1252 -0.1272 -0.8954
   48CHL1   C23 6017   5.339  -0.047   8.817  0.0986  0.0552 -0.3854
   48CHL1  H23A 6018   5.253  -0.092   8.763  0.2883 -0.6820 -0.0768
   48CHL1  H23B 6019   5.376   0.048   8.772 -1.1413  2.4701  3.2070
   48CHL1   C24 6020   5.448  -0.156   8.806  0.5060  0.2623  0.2470
   48CHL1  H24A 6021   5.543  -0.133   8.858  1.4057 -1.2706 -0.6295
   48CHL1  H24B 6022   5.410  -0.250   8.852  0.3867  0.2603  0.1472
   48CHL1   C25 6023   5.500  -0.186   8.664  0.2836 -0.0883  0.5511
   48CHL1   H25 6024   5.501  -0.088   8.612 -0.8535 -0.7961 -0.8715
   48CHL1   C26 6025   5.641  -0.231   8.672 -0.0705 -0.5327  0.2210
   48CHL1  H26A 6026   5.707  -0.150   8.710  0.4717 -1.0218  0.3232
   48CHL1  H26B 6027   5.656  -0.321   8.735 -2.3968 -1.1719 -0.0471
   48CHL1  H26C 6028   5.689  -0.251   8.574 -1.3661 -1.4240 -0.2517
   48CHL1   C27 6029   5.417  -0.276   8.580  0.1069  0.1224  0.0639
   48CHL1  H27A 6030   5.404  -0.372   8.635 -1.3323  1.6690  2.6383
   48CHL1  H27B 6031   5.312  -0.240   8.569 -0.0968 -0.3415  0.4616
   48CHL1  H27C 6032   5.459  -0.294   8.479 -0.5651  0.2645 -0.2475
   49CHL1    C3 6033   1.339   2.064   9.482  0.9394 -0.5181 -0.9066
   49CHL1    H3 6034   1.367   2.169   9.507  0.8798 -0.7239  0.0576
   49CHL1    O3 6035   1.286   2.011   9.602  0.0865 -0.2811 -0.0171
   49CHL1   H3' 6036   1.347   1.962   9.658 -0.9667 -2.0522 -0.3390
   49CHL1    C4 6037   1.220   2.045   9.386 -0.1129 -0.7444  0.0080
   49CHL1   H4A 6038   1.189   1.939   9.381 -0.6491 -0.5485 -1.0998
   49CHL1   H4B 6039   1.134   2.097   9.433  0.7203  0.7907 -0.0709
   49CHL1    C5 6040   1.259   2.100   9.244 -0.1764 -0.0196 -0.0758
   49CHL1    C6 6041   1.173   2.186   9.180  0.0633  0.5265  0.2120
   49CHL1    H6 6042   1.079   2.211   9.231 -1.2308  0.5383 -2.0248
   49CHL1    C7 6043   1.197   2.248   9.041  0.6800  0.5006 -0.6659
   49CHL1   H7A 6044   1.106   2.253   8.978 -0.1145  1.4242  0.5172
   49CHL1   H7B 6045   1.212   2.357   9.057 -1.7772  0.9836 -1.2703
   49CHL1    C8 6046   1.312   2.177   8.961 -0.2721 -0.6150 -0.0726
   49CHL1    H8 6047   1.259   2.089   8.918 -2.4289  0.0775  1.0203
   49CHL1   C14 6048   1.355   2.265   8.852  0.5136 -0.7610  0.2868
   49CHL1   H14 6049   1.405   2.356   8.892  1.8331 -0.5601 -1.7117
   49CHL1   C15 6050   1.242   2.325   8.758  0.9354 -0.3370  0.2641
   49CHL1  H15A 6051   1.178   2.242   8.721  2.1139 -0.8533 -0.6661
   49CHL1  H15B 6052   1.186   2.416   8.790  0.4317  0.3772 -2.3734
   49CHL1   C16 6053   1.323   2.355   8.635  0.9282 -0.1822 -0.8698
   49CHL1  H16A 6054   1.275   2.319   8.541  2.6621  1.2313 -2.3593
   49CHL1  H16B 6055   1.328   2.465   8.628  1.3715 -0.1135  0.3220
   49CHL1   C17 6056   1.464   2.296   8.642  0.7564 -0.3567 -0.1906
   49CHL1   H17 6057   1.519   2.384   8.680 -2.0700  0.2770  2.9806
   49CHL1   C13 6058   1.455   2.197   8.759  1.0242  0.1670 -0.2666
   49CHL1   C18 6059   1.388   2.067   8.699 -0.2268 -0.2422  0.1810
   49CHL1  H18A 6060   1.296   2.086   8.639 -1.6767 -1.6572  1.8541
   49CHL1  H18B 6061   1.470   2.018   8.641  1.8874 -0.2140  2.9692
   49CHL1  H18C 6062   1.365   1.994   8.779  1.5737  0.6611  1.5921
   49CHL1   C12 6063   1.587   2.180   8.846 -0.1827  0.3577 -0.4454
   49CHL1  H12A 6064   1.676   2.146   8.790  0.6783  1.9074 -0.0868
   49CHL1  H12B 6065   1.611   2.279   8.890 -0.8481  0.1074  0.4932
   49CHL1   C11 6066   1.554   2.084   8.967 -0.0628  0.2839  0.5888
   49CHL1  H11A 6067   1.540   1.981   8.928  0.1236  0.2101  0.7151
   49CHL1  H11B 6068   1.645   2.094   9.030  0.4459  2.0635 -0.3553
   49CHL1    C9 6069   1.425   2.135   9.052  0.1071  0.3181  0.3228
   49CHL1    H9 6070   1.468   2.229   9.093  0.2435 -0.4534  2.0136
   49CHL1   C10 6071   1.382   2.054   9.179  0.7952 -0.5814 -0.6697
   49CHL1   C19 6072   1.359   1.912   9.137  0.2859  1.1013  0.7499
   49CHL1  H19A 6073   1.319   1.847   9.218 -0.5248  1.3860  0.5844
   49CHL1  H19B 6074   1.307   1.890   9.041 -0.8825  2.3226  1.0903
   49CHL1  H19C 6075   1.460   1.869   9.117 -0.3091 -0.0868  0.1765
   49CHL1    C1 6076   1.501   2.049   9.282  0.1642 -0.3673 -0.1226
   49CHL1   H1A 6077   1.590   1.987   9.256  0.3876 -0.1413  0.0928
   49CHL1   H1B 6078   1.531   2.152   9.312 -2.8499  0.7514 -0.6171
   49CHL1    C2 6079   1.458   1.987   9.419  0.1424  0.7183  0.1357
   49CHL1   H2A 6080   1.539   1.984   9.495 -0.5807  1.7449  0.9669
   49CHL1   H2B 6081   1.426   1.881   9.411 -1.5074  1.0815  1.4881
   49CHL1   C20 6082   1.520   2.249   8.505  0.0837  0.0965 -0.3057
   49CHL1   H20 6083   1.460   2.161   8.473 -2.1076  1.8376 -1.2596
   49CHL1   C21 6084   1.660   2.195   8.537 -0.3163 -0.2926  0.2891
   49CHL1  H21A 6085   1.646   2.102   8.597  0.6725 -0.3847  0.3953
   49CHL1  H21B 6086   1.710   2.272   8.600 -0.0394  0.5896 -0.9883
   49CHL1  H21C 6087   1.731   2.180   8.453  0.0283  2.5344 -0.0378
   49CHL1   C22 6088   1.526   2.360   8.398 -0.1155 -0.9230 -0.0481
   49CHL1  H22A 6089   1.545   2.301   8.306  0.7835 -2.0701  0.8363
   49CHL1  H22B 6090   1.422   2.397   8.393  1.0546  2.6018 -1.1696
   49CHL1   C23 6091   1.613   2.484   8.418  0.3375  0.1544 -0.8300
   49CHL1  H23A 6092   1.603   2.531   8.518 -2.3447  1.1648 -1.4915
   49CHL1  H23B 6093   1.718   2.464   8.389  0.4302  2.7204 -2.5888
   49CHL1   C24 6094   1.558   2.598   8.328 -0.4079  0.0437 -0.3284
   49CHL1  H24A 6095   1.550   2.563   8.223  0.8814 -0.8426 -0.1505
   49CHL1  H24B 6096   1.452   2.606   8.359 -0.2870 -1.6141  0.5838
   49CHL1   C25 6097   1.633   2.734   8.328 -0.2067 -0.8452 -0.5480
   49CHL1   H25 6098   1.734   2.706   8.291 -1.1088 -2.1407 -2.1565
   49CHL1   C26 6099   1.564   2.836   8.249  0.4487 -0.4645  0.2579
   49CHL1  H26A 6100   1.616   2.934   8.260 -0.4043  0.0475 -0.1508
   49CHL1  H26B 6101   1.572   2.818   8.140  4.5197 -1.2584  0.5328
   49CHL1  H26C 6102   1.457   2.846   8.277  0.9429  1.4736  1.6604
   49CHL1   C27 6103   1.647   2.794   8.474  0.2284 -0.8669  0.0377
   49CHL1  H27A 6104   1.675   2.721   8.553 -1.5943 -2.6955 -0.9431
   49CHL1  H27B 6105   1.726   2.873   8.478 -2.3721  1.9131  0.2370
   49CHL1  H27C 6106   1.547   2.830   8.508 -0.8340 -3.3459 -0.2876
   50CHL1    C3 6107   6.675   4.316   9.991  0.1426  0.3728 -0.3730
   50CHL1    H3 6108   6.570   4.341   9.965 -0.3768 -1.0875  0.2165
   50CHL1    O3 6109   6.694   4.338  10.130 -0.3560  0.0312 -0.3801
   50CHL1   H3' 6110   6.699   4.249  10.166  2.2343 -0.6015 -2.0213
   50CHL1    C4 6111   6.727   4.175   9.946 -0.0271 -0.0930  0.2867
   50CHL1   H4A 6112   6.832   4.160   9.977 -0.2182 -0.3155  0.8444
   50CHL1   H4B 6113   6.667   4.093   9.992  0.5476 -0.5646  0.1998
   50CHL1    C5 6114   6.708   4.168   9.791  0.0696 -0.5590  0.1834
   50CHL1    C6 6115   6.635   4.070   9.733 -0.1801  0.5443 -0.0864
   50CHL1    H6 6116   6.600   3.989   9.799  1.2557  1.4042  1.8360
   50CHL1    C7 6117   6.623   4.052   9.583  0.4666 -0.4817 -0.4586
   50CHL1   H7A 6118   6.620   3.949   9.540  1.1179  0.0156 -1.7678
   50CHL1   H7B 6119   6.521   4.095   9.571  0.8599  0.4264 -0.6455
   50CHL1    C8 6120   6.732   4.129   9.506 -0.9226 -0.2865 -0.7260
   50CHL1    H8 6121   6.831   4.083   9.527 -0.2822  0.5640 -1.7827
   50CHL1   C14 6122   6.710   4.135   9.362 -1.0407  0.1349 -0.8028
   50CHL1   H14 6123   6.605   4.169   9.350 -0.9706  0.9017  0.5949
   50CHL1   C15 6124   6.706   3.997   9.297  0.0003 -0.4172  0.1784
   50CHL1  H15A 6125   6.791   3.930   9.320  1.8251  0.9194 -2.2183
   50CHL1  H15B 6126   6.617   3.940   9.333  2.0312 -2.7671  1.8141
   50CHL1   C16 6127   6.717   4.027   9.151 -0.0086 -0.1033  0.4835
   50CHL1  H16A 6128   6.809   3.986   9.103 -0.0391 -0.0689  0.3973
   50CHL1  H16B 6129   6.623   3.998   9.101 -0.0709  1.7708 -0.5885
   50CHL1   C17 6130   6.725   4.189   9.140  0.2234  0.2633 -0.0713
   50CHL1   H17 6131   6.618   4.220   9.137 -0.8804 -3.0129  1.2789
   50CHL1   C13 6132   6.790   4.229   9.278 -0.0025  0.2054  0.7834
   50CHL1   C18 6133   6.941   4.181   9.293 -0.3954 -0.9461 -0.1250
   50CHL1  H18A 6134   6.947   4.071   9.274 -1.8952 -1.1804  0.6015
   50CHL1  H18B 6135   6.996   4.233   9.211 -1.0467 -3.2402 -2.1294
   50CHL1  H18C 6136   6.997   4.195   9.388  2.3987 -0.2160 -1.7456
   50CHL1   C12 6137   6.766   4.377   9.323 -0.1981 -0.0877 -0.5917
   50CHL1  H12A 6138   6.821   4.460   9.273  0.7896  0.1386  0.8171
   50CHL1  H12B 6139   6.656   4.389   9.308 -0.0616  0.1011 -1.4804
   50CHL1   C11 6140   6.810   4.386   9.469  0.3070 -0.3567  0.2326
   50CHL1  H11A 6141   6.919   4.369   9.484  0.1558  0.2321  2.3867
   50CHL1  H11B 6142   6.777   4.488   9.500  2.3079  1.1728 -2.2900
   50CHL1    C9 6143   6.737   4.279   9.561 -0.2217 -0.1670 -0.1319
   50CHL1    H9 6144   6.630   4.306   9.547 -0.1889 -0.4703 -1.0297
   50CHL1   C10 6145   6.776   4.283   9.707 -0.9364  0.4790 -0.1693
   50CHL1   C19 6146   6.927   4.255   9.717  0.1712 -0.3644 -0.3280
   50CHL1  H19A 6147   6.962   4.152   9.694  3.0027 -0.1440  2.2795
   50CHL1  H19B 6148   6.997   4.323   9.663  0.7091 -1.1066 -0.5843
   50CHL1  H19C 6149   6.954   4.269   9.824  0.9371 -0.3192 -0.5192
   50CHL1    C1 6150   6.745   4.424   9.764  0.0914  0.5634  0.3681
   50CHL1   H1A 6151   6.816   4.490   9.709 -1.2441 -0.0778 -2.2750
   50CHL1   H1B 6152   6.641   4.454   9.739 -0.2340 -0.3726  0.5817
   50CHL1    C2 6153   6.752   4.430   9.921  0.5328 -0.2252 -0.2865
   50CHL1   H2A 6154   6.711   4.527   9.957  0.0622 -1.4804  2.8594
   50CHL1   H2B 6155   6.858   4.431   9.956  0.3893 -4.1015  0.7291
   50CHL1   C20 6156   6.774   4.235   9.005 -0.0443 -0.1497  0.1580
   50CHL1   H20 6157   6.879   4.203   8.986 -0.6654 -2.0353 -0.3196
   50CHL1   C21 6158   6.766   4.394   8.996 -0.3612  1.1941 -0.2977
   50CHL1  H21A 6159   6.661   4.424   9.016 -0.8731  0.8058 -2.1979
   50CHL1  H21B 6160   6.791   4.427   8.892  0.2550 -0.1500 -0.5898
   50CHL1  H21C 6161   6.840   4.423   9.074  2.4891 -1.0534 -1.9844
   50CHL1   C22 6162   6.701   4.177   8.883  0.3395 -0.7572 -0.3317
   50CHL1  H22A 6163   6.652   4.079   8.904 -0.3544 -0.0644  1.4996
   50CHL1  H22B 6164   6.613   4.244   8.868  0.4019 -0.1185  1.9053
   50CHL1   C23 6165   6.775   4.166   8.752 -0.3445 -0.2947 -0.3619
   50CHL1  H23A 6166   6.821   4.265   8.729  0.2641 -0.4065  0.3314
   50CHL1  H23B 6167   6.852   4.086   8.756  1.6306  1.4436 -1.3015
   50CHL1   C24 6168   6.672   4.126   8.644  0.3114 -0.5422 -0.2134
   50CHL1  H24A 6169   6.640   4.021   8.658  2.0298 -0.9862  0.5844
   50CHL1  H24B 6170   6.581   4.191   8.645  0.2928 -0.4796 -1.9186
   50CHL1   C25 6171   6.717   4.143   8.495 -0.3363 -0.3198 -0.2744
   50CHL1   H25 6172   6.623   4.123   8.439 -1.2907 -0.5038  1.3332
   50CHL1   C26 6173   6.785   4.269   8.454  1.0143 -0.3081  0.4260
   50CHL1  H26A 6174   6.783   4.266   8.343 -1.1966  0.2925  0.3960
   50CHL1  H26B 6175   6.725   4.360   8.477  1.3306  0.0273 -0.0535
   50CHL1  H26C 6176   6.892   4.281   8.479  1.3242 -0.7073 -0.6646
   50CHL1   C27 6177   6.798   4.018   8.457  0.0671  0.3204  0.0450
   50CHL1  H27A 6178   6.887   4.024   8.523  0.2803  1.2089 -0.3044
   50CHL1  H27B 6179   6.736   3.929   8.480 -2.0476  1.1428 -2.1102
   50CHL1  H27C 6180   6.841   4.018   8.355 -0.0427  0.4438 -0.0011
   51CHL1    C3 6181   0.276   1.700   9.782 -0.0816 -0.2023  0.4063
   51CHL1    H3 6182   0.209   1.788   9.776 -1.1436 -1.0222 -0.3494
   51CHL1    O3 6183   0.299   1.664   9.920 -0.3353  0.1232  0.4581
   51CHL1   H3' 6184   0.324   1.751   9.950  0.2462  0.5427 -1.1554
   51CHL1    C4 6185   0.208   1.579   9.714  0.1413 -0.0548  0.6557
   51CHL1   H4A 6186   0.268   1.491   9.744  0.6548  0.2990  0.6911
   51CHL1   H4B 6187   0.106   1.568   9.755 -0.7853 -1.2420 -1.7791
   51CHL1    C5 6188   0.203   1.587   9.560  0.1278 -0.0858 -0.2212
   51CHL1    C6 6189   0.084   1.589   9.498  0.5583 -0.0470 -0.2042
   51CHL1    H6 6190  -0.013   1.580   9.548 -0.3393  5.1753 -0.5027
   51CHL1    C7 6191   0.061   1.599   9.353  0.6571  0.1928 -0.0517
   51CHL1   H7A 6192  -0.003   1.519   9.311 -0.9355  2.3336 -1.9762
   51CHL1   H7B 6193  -0.003   1.689   9.343 -1.0566 -0.8718  0.9188
   51CHL1    C8 6194   0.193   1.588   9.271 -0.0658 -0.2287  0.0334
   51CHL1    H8 6195   0.212   1.479   9.260 -0.9602 -0.1832 -2.7405
   51CHL1   C14 6196   0.163   1.646   9.133  0.3678 -0.4694 -0.3874
   51CHL1   H14 6197   0.146   1.755   9.146  0.6794 -0.5865  1.1930
   51CHL1   C15 6198   0.036   1.610   9.054  0.2226  0.6979  0.4396
   51CHL1  H15A 6199   0.016   1.500   9.059  0.4498  0.4979 -2.1203
   51CHL1  H15B 6200  -0.049   1.670   9.091 -0.6789 -1.0270  1.3282
   51CHL1   C16 6201   0.073   1.632   8.904  0.5735 -0.3004  0.1981
   51CHL1  H16A 6202   0.065   1.537   8.846 -3.9944 -1.1363  1.7790
   51CHL1  H16B 6203   0.012   1.708   8.851  3.1658  1.7268 -0.0688
   51CHL1   C17 6204   0.220   1.689   8.901 -0.2718  0.0269 -0.2669
   51CHL1   H17 6205   0.220   1.800   8.898  0.1328  0.0449  0.2189
   51CHL1   C13 6206   0.278   1.647   9.035 -0.0230 -0.1778 -0.1316
   51CHL1   C18 6207   0.320   1.496   9.013  0.0220  0.1416 -0.1366
   51CHL1  H18A 6208   0.233   1.447   8.964 -0.0485  1.6731 -1.6209
   51CHL1  H18B 6209   0.401   1.483   8.938  0.3146 -2.3418  0.5148
   51CHL1  H18C 6210   0.333   1.440   9.108 -0.0928  2.0962  1.0730
   51CHL1   C12 6211   0.394   1.723   9.106 -0.1225  0.0636  0.1495
   51CHL1  H12A 6212   0.481   1.694   9.042 -0.7783 -1.0960 -0.2569
   51CHL1  H12B 6213   0.377   1.833   9.100 -0.9303 -0.0487  0.2873
   51CHL1   C11 6214   0.432   1.674   9.248 -0.9296  0.4447  0.2502
   51CHL1  H11A 6215   0.480   1.574   9.242 -0.4810  0.7056 -0.7555
   51CHL1  H11B 6216   0.524   1.721   9.290  0.5604 -1.6820 -0.4576
   51CHL1    C9 6217   0.306   1.664   9.339 -0.4649  0.1830  0.0599
   51CHL1    H9 6218   0.262   1.766   9.344 -1.5514 -0.2408 -0.5338
   51CHL1   C10 6219   0.327   1.623   9.486 -0.3845  0.3075  0.0795
   51CHL1   C19 6220   0.410   1.490   9.484 -0.6644 -0.1219  0.9292
   51CHL1  H19A 6221   0.517   1.519   9.477 -0.8886  0.7976  1.1598
   51CHL1  H19B 6222   0.407   1.438   9.581 -0.7661  0.3599  1.1891
   51CHL1  H19C 6223   0.387   1.415   9.405  2.0660 -1.2826  1.1413
   51CHL1    C1 6224   0.403   1.736   9.557  0.2891  0.3084 -0.1503
   51CHL1   H1A 6225   0.506   1.753   9.518  0.6824 -0.3617  0.5524
   51CHL1   H1B 6226   0.346   1.827   9.529  1.1222  0.6450 -0.7918
   51CHL1    C2 6227   0.412   1.718   9.712 -0.3184 -0.6533  0.5008
   51CHL1   H2A 6228   0.473   1.803   9.748 -1.2012  1.1811 -2.0601
   51CHL1   H2B 6229   0.470   1.626   9.735 -0.8892 -0.7710  1.5369
   51CHL1   C20 6230   0.296   1.667   8.774  0.5220 -0.1477  0.2940
   51CHL1   H20 6231   0.291   1.562   8.738  2.1916  0.0300 -0.5644
   51CHL1   C21 6232   0.449   1.714   8.784 -0.4314 -0.2471  0.6383
   51CHL1  H21A 6233   0.458   1.815   8.831 -1.2870  0.0643  0.1702
   51CHL1  H21B 6234   0.481   1.717   8.678 -1.9767 -2.2561  0.0571
   51CHL1  H21C 6235   0.505   1.643   8.848  0.8591  1.4054  1.4345
   51CHL1   C22 6236   0.229   1.753   8.654  0.5243  0.3394  0.0114
   51CHL1  H22A 6237   0.120   1.729   8.664  0.5568  0.9200  2.4892
   51CHL1  H22B 6238   0.230   1.861   8.679  2.5598  0.1872  0.7296
   51CHL1   C23 6239   0.268   1.731   8.507  0.9849 -0.4223  0.0497
   51CHL1  H23A 6240   0.377   1.752   8.493  0.5577  0.6382 -2.1157
   51CHL1  H23B 6241   0.245   1.626   8.480 -0.6443 -0.2930  0.8423
   51CHL1   C24 6242   0.199   1.830   8.416 -0.5512 -0.1411 -0.1581
   51CHL1  H24A 6243   0.090   1.810   8.408 -0.7692  1.4395 -1.4782
   51CHL1  H24B 6244   0.217   1.931   8.457  0.1308 -1.0040  1.8112
   51CHL1   C25 6245   0.256   1.828   8.273  0.0631  0.0644 -0.6876
   51CHL1   H25 6246   0.364   1.849   8.289 -0.3226  2.4277 -0.8244
   51CHL1   C26 6247   0.245   1.699   8.189  0.4484 -0.2566 -0.6509
   51CHL1  H26A 6248   0.311   1.618   8.226  0.7025 -0.5023 -1.5973
   51CHL1  H26B 6249   0.137   1.672   8.192  0.2624  0.5212 -0.0143
   51CHL1  H26C 6250   0.273   1.715   8.082 -0.2259 -0.2020 -0.8238
   51CHL1   C27 6251   0.211   1.945   8.190  0.4998  0.0699 -0.0869
   51CHL1  H27A 6252   0.102   1.937   8.173  0.3489  2.3557 -0.4390
   51CHL1  H27B 6253   0.225   2.042   8.242  1.5049  0.0161 -0.2394
   51CHL1  H27C 6254   0.270   1.940   8.096 -1.7842 -0.5559 -1.5788
   52CHL1    C3 6255   4.664   6.464   9.556  0.7300  0.0952 -0.5662
   52CHL1    H3 6256   4.702   6.360   9.555 -2.4367 -1.4025  3.8117
   52CHL1    O3 6257   4.604   6.474   9.686  0.6470 -0.0068  0.0276
   52CHL1   H3' 6258   4.577   6.565   9.695 -2.2879 -0.7045 -0.7173
   52CHL1    C4 6259   4.775   6.571   9.540  0.3517  0.5424  0.0586
   52CHL1   H4A 6260   4.733   6.674   9.543 -0.3125  0.2548  0.7684
   52CHL1   H4B 6261   4.851   6.566   9.621 -0.2003  0.8365  0.6039
   52CHL1    C5 6262   4.844   6.536   9.411 -0.4396  1.3326 -0.2047
   52CHL1    C6 6263   4.975   6.503   9.405  0.6891 -0.0354 -0.1343
   52CHL1    H6 6264   5.039   6.504   9.495 -0.9019 -1.2591  1.0524
   52CHL1    C7 6265   5.035   6.457   9.272  0.0718 -0.3193 -0.0568
   52CHL1   H7A 6266   5.142   6.487   9.266  0.0361  0.1336  1.2097
   52CHL1   H7B 6267   5.056   6.348   9.280  0.8463 -0.1124  1.0210
   52CHL1    C8 6268   4.960   6.489   9.139 -0.5264 -0.2154  0.1606
   52CHL1    H8 6269   4.978   6.598   9.124  0.3727 -0.6263 -2.2208
   52CHL1   C14 6270   5.012   6.416   9.019  0.0127  0.1298  0.1938
   52CHL1   H14 6271   4.990   6.307   9.025 -0.9368  0.3447  0.8299
   52CHL1   C15 6272   5.164   6.419   9.000  0.0676 -0.3195  0.0369
   52CHL1  H15A 6273   5.204   6.522   9.008 -2.2832  0.7376 -0.7166
   52CHL1  H15B 6274   5.222   6.343   9.057 -1.4007 -1.5220 -0.0133
   52CHL1   C16 6275   5.189   6.382   8.850 -0.1207 -0.7342  0.4241
   52CHL1  H16A 6276   5.266   6.450   8.807 -1.9476 -0.0329 -1.9637
   52CHL1  H16B 6277   5.229   6.278   8.851 -0.4979 -0.9007 -0.7159
   52CHL1   C17 6278   5.040   6.379   8.783 -0.0335 -0.1010  0.0115
   52CHL1   H17 6279   5.004   6.274   8.795  1.7548 -0.5354  2.3876
   52CHL1   C13 6280   4.955   6.468   8.884 -0.3833  0.4735 -0.8211
   52CHL1   C18 6281   4.985   6.618   8.855 -0.4088  0.0543 -0.0987
   52CHL1  H18A 6282   4.935   6.647   8.760 -0.8103 -0.3652 -0.0215
   52CHL1  H18B 6283   4.934   6.668   8.940 -0.4819 -0.8130  0.3760
   52CHL1  H18C 6284   5.092   6.649   8.850 -0.7214  1.5568  1.5991
   52CHL1   C12 6285   4.806   6.430   8.890 -0.6519  0.1020  0.3809
   52CHL1  H12A 6286   4.751   6.446   8.795  0.9622 -0.5178 -0.7038
   52CHL1  H12B 6287   4.792   6.322   8.911 -2.1068  0.2142  0.0938
   52CHL1   C11 6288   4.739   6.492   9.019 -0.0700  0.0006  0.4411
   52CHL1  H11A 6289   4.725   6.600   8.998  0.4222 -0.0158  0.0032
   52CHL1  H11B 6290   4.638   6.449   9.029 -0.2327  0.4797  0.9239
   52CHL1    C9 6291   4.810   6.469   9.156 -0.2766 -0.1228 -0.3536
   52CHL1    H9 6292   4.800   6.359   9.169  1.1799 -0.4915 -1.9234
   52CHL1   C10 6293   4.748   6.535   9.281  0.4259 -0.0912 -0.4511
   52CHL1   C19 6294   4.728   6.688   9.258 -0.1272 -0.1105 -1.0630
   52CHL1  H19A 6295   4.650   6.712   9.183 -0.5005 -0.5222 -0.8097
   52CHL1  H19B 6296   4.688   6.740   9.347 -2.0772 -1.1751 -1.2684
   52CHL1  H19C 6297   4.829   6.728   9.232 -0.4769  1.4454 -0.1390
   52CHL1    C1 6298   4.611   6.476   9.307 -0.7423  0.2327 -0.6238
   52CHL1   H1A 6299   4.532   6.512   9.237 -0.4510 -0.4370 -1.3106
   52CHL1   H1B 6300   4.611   6.368   9.278 -3.2632  0.3591 -1.3650
   52CHL1    C2 6301   4.555   6.484   9.449  0.0325  0.4038  0.0959
   52CHL1   H2A 6302   4.481   6.404   9.465  1.5906 -1.0448  0.3863
   52CHL1   H2B 6303   4.513   6.585   9.471  1.7229  1.0307  0.6522
   52CHL1   C20 6304   5.041   6.416   8.631  0.4572 -0.4792 -0.0374
   52CHL1   H20 6305   5.071   6.522   8.615 -0.4118 -0.1752  0.2892
   52CHL1   C21 6306   4.908   6.394   8.563 -0.1372  0.0533  0.0447
   52CHL1  H21A 6307   4.840   6.465   8.614  0.2205 -0.2916  1.0297
   52CHL1  H21B 6308   4.866   6.292   8.570 -1.3965  0.5380 -0.2784
   52CHL1  H21C 6309   4.907   6.426   8.457  0.2293 -0.0902 -0.0068
   52CHL1   C22 6310   5.156   6.339   8.564  0.1728 -0.1822  0.2646
   52CHL1  H22A 6311   5.257   6.364   8.603 -0.5306  0.8272  1.5332
   52CHL1  H22B 6312   5.133   6.230   8.575 -1.1002  0.0890  0.4066
   52CHL1   C23 6313   5.179   6.377   8.416 -0.4671  0.1965 -0.8441
   52CHL1  H23A 6314   5.087   6.371   8.354  1.3280 -0.7878 -3.6199
   52CHL1  H23B 6315   5.211   6.483   8.426  0.6231 -0.2397  0.4451
   52CHL1   C24 6316   5.299   6.307   8.349  0.2978 -0.4903  0.4197
   52CHL1  H24A 6317   5.376   6.295   8.428  0.4708 -0.1537  0.3030
   52CHL1  H24B 6318   5.269   6.206   8.313 -2.3323  0.3524  0.0098
   52CHL1   C25 6319   5.362   6.395   8.236  0.9554 -0.1002  0.0477
   52CHL1   H25 6320   5.385   6.497   8.272  1.3713  0.2537 -1.1823
   52CHL1   C26 6321   5.499   6.338   8.196  0.3455  0.0564  0.5638
   52CHL1  H26A 6322   5.561   6.324   8.287 -0.9066 -1.7009  1.1933
   52CHL1  H26B 6323   5.471   6.242   8.148  0.4216  0.5676 -0.5482
   52CHL1  H26C 6324   5.538   6.407   8.118 -2.2384 -0.5538 -1.4101
   52CHL1   C27 6325   5.271   6.414   8.118  0.4267  0.6157  0.6843
   52CHL1  H27A 6326   5.248   6.315   8.075 -2.1307  1.0476  0.8710
   52CHL1  H27B 6327   5.182   6.481   8.127  0.0986 -0.0067  2.3603
   52CHL1  H27C 6328   5.320   6.467   8.033 -1.1576  1.1819  0.0800
   53CHL1    C3 6329   3.815   4.530   9.928  0.0626 -1.0326  0.4161
   53CHL1    H3 6330   3.746   4.456   9.974  2.4249 -2.2840  2.1719
   53CHL1    O3 6331   3.855   4.596  10.048  0.3448  0.3049 -0.5158
   53CHL1   H3' 6332   3.909   4.666  10.012  0.5845  1.0656  1.2423
   53CHL1    C4 6333   3.933   4.460   9.866  0.0388 -0.2731 -0.6971
   53CHL1   H4A 6334   4.023   4.525   9.862 -0.4490  0.4178 -0.6377
   53CHL1   H4B 6335   3.946   4.375   9.936 -3.0429 -0.9777 -0.8344
   53CHL1    C5 6336   3.921   4.411   9.725  0.3360 -0.6243 -0.4897
   53CHL1    C6 6337   3.954   4.287   9.688 -0.2629 -0.0611  0.4997
   53CHL1    H6 6338   4.002   4.209   9.748  3.0265  1.3563 -0.0570
   53CHL1    C7 6339   3.942   4.236   9.547 -0.2891 -0.5286 -0.1430
   53CHL1   H7A 6340   4.027   4.171   9.520  1.1367  0.7583  1.0772
   53CHL1   H7B 6341   3.851   4.171   9.544 -1.7189  1.2403  1.7321
   53CHL1    C8 6342   3.922   4.350   9.441 -0.2261 -0.3852  0.0354
   53CHL1    H8 6343   4.023   4.394   9.426 -0.9841  1.4647  0.1522
   53CHL1   C14 6344   3.863   4.291   9.311  0.1674 -0.0665 -0.3546
   53CHL1   H14 6345   3.763   4.246   9.335  1.4296 -2.4632  0.8190
   53CHL1   C15 6346   3.938   4.177   9.245  0.9938 -0.4596 -0.4458
   53CHL1  H15A 6347   4.047   4.196   9.236  0.5674  1.5245 -2.2528
   53CHL1  H15B 6348   3.922   4.077   9.290 -1.7936 -0.2764 -0.8353
   53CHL1   C16 6349   3.881   4.174   9.104 -0.0680  0.0304 -0.0693
   53CHL1  H16A 6350   3.973   4.175   9.041  0.8747 -0.1598  1.2721
   53CHL1  H16B 6351   3.817   4.086   9.079  0.3374  0.2364 -2.0407
   53CHL1   C17 6352   3.794   4.303   9.083  0.4312 -0.2666  0.3218
   53CHL1   H17 6353   3.692   4.261   9.101  0.3920  0.2713  1.4503
   53CHL1   C13 6354   3.831   4.389   9.206 -0.2924 -0.6983 -0.9683
   53CHL1   C18 6355   3.956   4.479   9.169 -0.8321 -0.0776 -0.8761
   53CHL1  H18A 6356   3.932   4.553   9.090  1.9975  1.8195 -0.1171
   53CHL1  H18B 6357   4.004   4.533   9.253 -2.4855 -1.3601  0.9587
   53CHL1  H18C 6358   4.032   4.411   9.125 -0.0071 -0.4819  1.0876
   53CHL1   C12 6359   3.712   4.481   9.255 -0.5345  0.9778  0.2986
   53CHL1  H12A 6360   3.687   4.561   9.182 -1.1064 -0.9399 -1.6822
   53CHL1  H12B 6361   3.627   4.413   9.274 -1.0530  0.9408 -1.9273
   53CHL1   C11 6362   3.757   4.548   9.394  0.4054 -0.4790  0.7453
   53CHL1  H11A 6363   3.828   4.631   9.374  0.3872 -0.3696  1.1200
   53CHL1  H11B 6364   3.660   4.585   9.436  1.9624  1.6854  2.6707
   53CHL1    C9 6365   3.817   4.446   9.498  0.2138 -0.9214  0.0739
   53CHL1    H9 6366   3.731   4.379   9.515 -0.6197  0.3468  1.0627
   53CHL1   C10 6367   3.864   4.510   9.634 -0.7141 -0.2138  0.0215
   53CHL1   C19 6368   3.978   4.613   9.598  0.0911 -0.1805  0.2268
   53CHL1  H19A 6369   4.054   4.584   9.522  0.1596  0.9827 -0.1641
   53CHL1  H19B 6370   3.933   4.704   9.555  1.6361  0.1773 -0.7119
   53CHL1  H19C 6371   4.036   4.665   9.677  0.9586  0.2201 -0.6514
   53CHL1    C1 6372   3.738   4.585   9.693 -0.1926  0.4727 -0.0907
   53CHL1   H1A 6373   3.710   4.669   9.625  1.9465 -0.4401 -2.2752
   53CHL1   H1B 6374   3.660   4.506   9.694  0.3763 -0.0880  0.6272
   53CHL1    C2 6375   3.753   4.639   9.836 -0.2772  0.3320  0.0158
   53CHL1   H2A 6376   3.651   4.654   9.877  0.1256 -0.6223  1.4127
   53CHL1   H2B 6377   3.814   4.732   9.831  2.9197 -1.3672  3.1097
   53CHL1   C20 6378   3.798   4.356   8.935 -0.4162 -0.6712 -1.2323
   53CHL1   H20 6379   3.892   4.413   8.919 -1.6911  2.5522  1.3819
   53CHL1   C21 6380   3.686   4.469   8.907 -0.2566  0.4908 -0.1120
   53CHL1  H21A 6381   3.590   4.425   8.942  0.6599 -1.1226  0.5015
   53CHL1  H21B 6382   3.679   4.495   8.800  1.9900 -0.5019 -0.5544
   53CHL1  H21C 6383   3.708   4.555   8.974  3.3481 -1.2818  1.2707
   53CHL1   C22 6384   3.780   4.242   8.829  0.0339  0.0296  0.4963
   53CHL1  H22A 6385   3.836   4.151   8.863 -0.1052 -0.4290 -0.4766
   53CHL1  H22B 6386   3.676   4.203   8.824 -0.2122  0.8430 -1.1990
   53CHL1   C23 6387   3.823   4.279   8.689  0.7255  0.1185  0.0937
   53CHL1  H23A 6388   3.770   4.369   8.652  1.1342 -0.3329 -1.6912
   53CHL1  H23B 6389   3.933   4.292   8.705  0.3011 -0.2203  4.2447
   53CHL1   C24 6390   3.793   4.162   8.591  0.3125 -0.2995 -0.1548
   53CHL1  H24A 6391   3.855   4.075   8.624  1.1992  0.2319 -0.3996
   53CHL1  H24B 6392   3.687   4.131   8.608  0.4955  0.0044  1.9041
   53CHL1   C25 6393   3.808   4.183   8.435  0.3568  0.2739  0.2167
   53CHL1   H25 6394   3.910   4.222   8.418 -1.0993  4.2840 -0.3987
   53CHL1   C26 6395   3.807   4.044   8.370  0.2428 -0.2100 -0.0915
   53CHL1  H26A 6396   3.809   4.046   8.259  0.4239 -0.1107 -0.0871
   53CHL1  H26B 6397   3.892   3.977   8.398  0.5109  1.0027  2.2582
   53CHL1  H26C 6398   3.717   3.992   8.409 -0.0567  0.5301  0.2161
   53CHL1   C27 6399   3.702   4.283   8.380  1.0313 -0.1596 -0.4397
   53CHL1  H27A 6400   3.600   4.237   8.381  1.3573 -0.9177  1.2214
   53CHL1  H27B 6401   3.710   4.371   8.447 -0.9787 -0.9653  0.9513
   53CHL1  H27C 6402   3.708   4.313   8.273  1.0451  0.9128 -0.1450
   54CHL1    C3 6403   5.628   5.916   9.744 -0.4531  0.1442  1.0388
   54CHL1    H3 6404   5.583   6.012   9.711  1.4475  0.2486 -1.4656
   54CHL1    O3 6405   5.657   5.921   9.881 -0.3274 -0.1883 -0.6115
   54CHL1   H3' 6406   5.578   5.948   9.929  0.8360  0.8066  0.8301
   54CHL1    C4 6407   5.536   5.800   9.724 -0.0846  0.3370 -0.6196
   54CHL1   H4A 6408   5.569   5.712   9.784  1.2945  0.3933 -1.2571
   54CHL1   H4B 6409   5.440   5.834   9.767  0.2402  0.6993 -0.1710
   54CHL1    C5 6410   5.505   5.757   9.584  0.7049  0.4601 -0.1897
   54CHL1    C6 6411   5.381   5.740   9.543  0.4955  0.1138  0.2329
   54CHL1    H6 6412   5.305   5.739   9.623  0.8172 -0.3264  0.5358
   54CHL1    C7 6413   5.340   5.694   9.407  0.3162 -0.2966  0.0839
   54CHL1   H7A 6414   5.258   5.621   9.426 -0.4182 -0.0253 -1.8643
   54CHL1   H7B 6415   5.287   5.773   9.350  0.0189  0.2650  1.1058
   54CHL1    C8 6416   5.458   5.636   9.327  0.6432 -0.5953 -0.3992
   54CHL1    H8 6417   5.479   5.539   9.377 -1.2659 -1.2518 -0.7962
   54CHL1   C14 6418   5.431   5.619   9.180  0.1764 -0.1742 -0.0096
   54CHL1   H14 6419   5.417   5.723   9.146 -0.0391 -0.2971 -0.2967
   54CHL1   C15 6420   5.297   5.553   9.141 -0.5162 -0.4430  0.6170
   54CHL1  H15A 6421   5.306   5.467   9.210  1.4301 -0.4700  0.3814
   54CHL1  H15B 6422   5.212   5.620   9.168  2.0511  2.4606  2.1240
   54CHL1   C16 6423   5.319   5.511   8.996  0.6508 -0.4032  0.0695
   54CHL1  H16A 6424   5.302   5.401   9.006  0.2068 -0.1163  3.9999
   54CHL1  H16B 6425   5.249   5.559   8.925  1.2972 -0.0140 -0.3123
   54CHL1   C17 6426   5.464   5.541   8.962 -1.0882  0.4415 -0.0969
   54CHL1   H17 6427   5.459   5.637   8.907 -0.0553  0.6640  0.1782
   54CHL1   C13 6428   5.542   5.557   9.095 -0.3363 -0.2010  0.1956
   54CHL1   C18 6429   5.578   5.416   9.153  0.4126 -0.4810  0.1588
   54CHL1  H18A 6430   5.614   5.430   9.257 -0.8766  1.2275  0.4287
   54CHL1  H18B 6431   5.490   5.347   9.155 -0.6232  0.7876  0.0743
   54CHL1  H18C 6432   5.660   5.372   9.092  2.0197  2.9020 -0.3595
   54CHL1   C12 6433   5.660   5.665   9.103  0.2125 -0.2292  0.2344
   54CHL1  H12A 6434   5.744   5.633   9.039 -1.2515 -1.3223 -1.2390
   54CHL1  H12B 6435   5.637   5.765   9.060  3.2571  1.4191  2.0878
   54CHL1   C11 6436   5.703   5.687   9.246 -0.1387 -0.4808  0.2170
   54CHL1  H11A 6437   5.777   5.609   9.272  0.7749 -0.3531 -1.7967
   54CHL1  H11B 6438   5.766   5.779   9.252 -3.1932  1.6971  1.5070
   54CHL1    C9 6439   5.582   5.728   9.336 -0.6710 -0.1153  0.0851
   54CHL1    H9 6440   5.552   5.830   9.304  1.7887 -0.1009 -2.4659
   54CHL1   C10 6441   5.621   5.744   9.490  0.1092 -1.1762 -0.0916
   54CHL1   C19 6442   5.704   5.619   9.526 -0.3089  0.0965 -0.1517
   54CHL1  H19A 6443   5.802   5.625   9.473  0.5974 -0.5431  1.3883
   54CHL1  H19B 6444   5.737   5.619   9.632 -2.1741 -1.3611  0.4913
   54CHL1  H19C 6445   5.647   5.525   9.509  0.8653 -0.9976  1.6734
   54CHL1    C1 6446   5.715   5.875   9.513 -0.4328  0.0851 -0.6626
   54CHL1   H1A 6447   5.798   5.870   9.439 -2.1129 -0.2864 -2.6247
   54CHL1   H1B 6448   5.659   5.968   9.486  0.5768  0.9461  0.1308
   54CHL1    C2 6449   5.752   5.904   9.659  0.3479 -0.3707  0.6140
   54CHL1   H2A 6450   5.817   5.993   9.671  1.6633 -1.5718  3.5253
   54CHL1   H2B 6451   5.814   5.820   9.699 -1.2923 -1.6081  0.6662
   54CHL1   C20 6452   5.518   5.444   8.849 -0.5227  0.5926  0.3568
   54CHL1   H20 6453   5.510   5.340   8.887  0.8402 -0.0035 -0.8739
   54CHL1   C21 6454   5.670   5.467   8.812 -0.1190  0.5324  0.3719
   54CHL1  H21A 6455   5.733   5.468   8.903  0.6917 -0.3314 -0.1613
   54CHL1  H21B 6456   5.677   5.563   8.756  2.3272 -0.0694 -0.4823
   54CHL1  H21C 6457   5.720   5.390   8.749 -2.5407  0.4816 -1.6493
   54CHL1   C22 6458   5.427   5.434   8.722  0.5607 -0.6180  0.0803
   54CHL1  H22A 6459   5.319   5.415   8.742  0.4519 -0.1513 -0.0547
   54CHL1  H22B 6460   5.429   5.527   8.662 -0.5391 -1.3417 -1.1157
   54CHL1   C23 6461   5.490   5.332   8.620 -0.1601 -0.6411  0.3813
   54CHL1  H23A 6462   5.591   5.369   8.592  0.2418 -1.9342  0.0312
   54CHL1  H23B 6463   5.503   5.227   8.654 -0.3850 -0.8561 -0.1794
   54CHL1   C24 6464   5.414   5.333   8.483 -0.7839 -0.5162 -0.2481
   54CHL1  H24A 6465   5.308   5.316   8.511 -0.2619 -3.1949  0.3345
   54CHL1  H24B 6466   5.430   5.435   8.441 -1.4298  0.6267  2.1193
   54CHL1   C25 6467   5.447   5.214   8.388  0.0510  0.1781 -0.7008
   54CHL1   H25 6468   5.404   5.233   8.287 -1.2710 -0.9857 -0.3830
   54CHL1   C26 6469   5.599   5.190   8.381  0.6313  0.7431 -0.2724
   54CHL1  H26A 6470   5.661   5.280   8.362  0.0621  1.1218 -0.3801
   54CHL1  H26B 6471   5.636   5.125   8.463  0.0361 -0.9215 -1.2672
   54CHL1  H26C 6472   5.602   5.118   8.296 -1.9916  0.2995 -0.0829
   54CHL1   C27 6473   5.370   5.086   8.447 -0.3777 -0.2253 -0.0388
   54CHL1  H27A 6474   5.400   5.076   8.553 -2.1929  0.4967  0.5767
   54CHL1  H27B 6475   5.259   5.091   8.436 -0.8146 -1.5895  2.7387
   54CHL1  H27C 6476   5.410   5.000   8.389  0.4475 -0.0962  0.3358
   55CHL1    C3 6477   5.836   4.227   9.744 -0.0943  0.7843  0.3194
   55CHL1    H3 6478   5.920   4.267   9.683  1.8522 -2.4631  0.6629
   55CHL1    O3 6479   5.837   4.280   9.875  0.4386  0.4068  0.2526
   55CHL1   H3' 6480   5.760   4.232   9.908  1.1906 -1.8081 -0.9428
   55CHL1    C4 6481   5.703   4.245   9.673  0.9449 -0.5094  0.1688
   55CHL1   H4A 6482   5.625   4.205   9.741  0.3290  0.3681  0.0016
   55CHL1   H4B 6483   5.680   4.354   9.682 -1.2361 -0.9427  0.3392
   55CHL1    C5 6484   5.697   4.192   9.536  0.1273 -0.2517 -0.3023
   55CHL1    C6 6485   5.660   4.272   9.435 -0.6029 -0.3743 -0.7847
   55CHL1    H6 6486   5.625   4.375   9.449 -4.5705 -1.7101  0.3620
   55CHL1    C7 6487   5.652   4.221   9.298 -0.2222  0.0270  0.8331
   55CHL1   H7A 6488   5.557   4.243   9.245 -0.1485 -1.4748  0.0062
   55CHL1   H7B 6489   5.731   4.267   9.236 -0.4703 -0.9810 -0.2802
   55CHL1    C8 6490   5.685   4.070   9.277 -0.9118  0.8543 -0.2091
   55CHL1    H8 6491   5.593   4.013   9.302  0.2489 -1.0413 -0.0746
   55CHL1   C14 6492   5.733   4.056   9.130 -0.2412 -0.4215 -0.0844
   55CHL1   H14 6493   5.826   4.115   9.119 -1.2769  1.1289 -0.9095
   55CHL1   C15 6494   5.635   4.109   9.020  0.1848 -0.3135 -0.7691
   55CHL1  H15A 6495   5.526   4.109   9.040  0.1467 -0.1270 -0.9763
   55CHL1  H15B 6496   5.671   4.209   8.988  1.9499 -1.5328 -2.8591
   55CHL1   C16 6497   5.662   4.036   8.890 -0.1312 -0.0613 -0.5767
   55CHL1  H16A 6498   5.571   3.983   8.853 -0.0641 -0.1615 -0.6010
   55CHL1  H16B 6499   5.705   4.094   8.806 -0.0093  0.3220 -0.2500
   55CHL1   C17 6500   5.775   3.929   8.931  0.5438  0.5704 -0.9390
   55CHL1   H17 6501   5.865   3.995   8.922  0.3532  1.1986  1.1844
   55CHL1   C13 6502   5.762   3.911   9.088 -0.2587  0.0573 -0.4269
   55CHL1   C18 6503   5.640   3.823   9.116  0.3240  0.0731  0.5159
   55CHL1  H18A 6504   5.621   3.828   9.225  0.3466 -0.1150  0.5286
   55CHL1  H18B 6505   5.543   3.857   9.075 -0.2545 -1.1218  0.8608
   55CHL1  H18C 6506   5.654   3.713   9.106  0.8146 -0.2246  3.5353
   55CHL1   C12 6507   5.882   3.874   9.177 -0.1232 -0.3174 -1.1285
   55CHL1  H12A 6508   5.903   3.765   9.168 -2.2960 -0.7718 -1.3777
   55CHL1  H12B 6509   5.977   3.925   9.149 -1.0469  0.1648 -3.6948
   55CHL1   C11 6510   5.851   3.888   9.334 -0.5538  0.0445  0.0923
   55CHL1  H11A 6511   5.782   3.809   9.370 -1.6399  1.1844  0.5637
   55CHL1  H11B 6512   5.942   3.865   9.395 -1.2356 -0.4213  0.9675
   55CHL1    C9 6513   5.797   4.029   9.369  0.2689 -0.4226 -0.6877
   55CHL1    H9 6514   5.881   4.101   9.359 -0.5073  0.9606  1.9212
   55CHL1   C10 6515   5.757   4.052   9.519 -0.8587  0.4356  0.1433
   55CHL1   C19 6516   5.655   3.941   9.563  0.1693 -0.1404  0.2390
   55CHL1  H19A 6517   5.679   3.833   9.547 -0.1434  0.0502 -1.8089
   55CHL1  H19B 6518   5.634   3.969   9.668  1.2785  0.7739  0.2381
   55CHL1  H19C 6519   5.564   3.951   9.500  0.1257 -2.9224 -0.2909
   55CHL1    C1 6520   5.879   4.023   9.611 -0.0222 -0.1133  0.7429
   55CHL1   H1A 6521   5.899   3.915   9.600 -0.2210 -0.1914  1.1196
   55CHL1   H1B 6522   5.972   4.057   9.561 -0.4339 -2.1872 -1.5849
   55CHL1    C2 6523   5.874   4.082   9.750  0.4365 -0.3846  0.2503
   55CHL1   H2A 6524   5.962   4.074   9.817 -1.1386 -0.1602  2.4567
   55CHL1   H2B 6525   5.781   4.041   9.793 -0.2741  0.4706 -0.4367
   55CHL1   C20 6526   5.795   3.811   8.840  0.1146  0.1100  0.1077
   55CHL1   H20 6527   5.699   3.756   8.836 -0.3090  0.8386 -0.0272
   55CHL1   C21 6528   5.912   3.729   8.886 -0.5745  0.2847  0.0080
   55CHL1  H21A 6529   5.946   3.663   8.804  1.8958  1.3949  0.0385
   55CHL1  H21B 6530   5.884   3.661   8.969 -0.7635  2.2499  1.6540
   55CHL1  H21C 6531   5.996   3.795   8.918 -0.8436  0.7973 -0.3384
   55CHL1   C22 6532   5.815   3.846   8.690  0.3505 -0.2346  0.1629
   55CHL1  H22A 6533   5.752   3.929   8.652  1.9085  0.1602 -1.7513
   55CHL1  H22B 6534   5.918   3.888   8.686 -0.1948  1.2442  1.0541
   55CHL1   C23 6535   5.788   3.732   8.584  0.5219 -0.1654 -0.2047
   55CHL1  H23A 6536   5.865   3.653   8.594  1.6121  0.6680 -1.6346
   55CHL1  H23B 6537   5.684   3.698   8.602  0.2266 -0.5168 -2.3340
   55CHL1   C24 6538   5.806   3.781   8.435  0.2481 -0.1828 -0.5583
   55CHL1  H24A 6539   5.760   3.882   8.438 -0.6612 -0.5402 -1.5488
   55CHL1  H24B 6540   5.911   3.790   8.401 -0.1902  1.0321 -1.6889
   55CHL1   C25 6541   5.724   3.707   8.329  0.1021  0.2990 -0.4666
   55CHL1   H25 6542   5.617   3.711   8.359  0.2395  0.1324  0.0505
   55CHL1   C26 6543   5.731   3.778   8.188 -0.3046  0.5120  0.1523
   55CHL1  H26A 6544   5.733   3.886   8.212 -0.6607  0.3274  1.0651
   55CHL1  H26B 6545   5.829   3.748   8.145 -1.8957 -3.8588 -1.0208
   55CHL1  H26C 6546   5.642   3.745   8.131  0.5136 -2.7773  0.5455
   55CHL1   C27 6547   5.769   3.561   8.327 -1.0344  0.2948  0.1656
   55CHL1  H27A 6548   5.743   3.524   8.226 -0.8533  2.3775 -0.6910
   55CHL1  H27B 6549   5.880   3.561   8.333 -1.0634  0.1167  0.8771
   55CHL1  H27C 6550   5.722   3.495   8.403  1.4420 -0.4278  1.1847
   56CHL1    C3 6551   4.133   2.698  10.041  0.1353  0.1184  0.1936
   56CHL1    H3 6552   4.220   2.661   9.982 -1.9203 -1.0641 -2.2692
   56CHL1    O3 6553   4.158   2.706  10.181 -0.3966 -0.2745  0.5038
   56CHL1   H3' 6554   4.069   2.726  10.213 -0.6097 -1.4626  0.7039
   56CHL1    C4 6555   4.111   2.849   9.985 -0.5278 -0.2622 -0.3906
   56CHL1   H4A 6556   4.023   2.883  10.044  1.0988  1.8034  1.0112
   56CHL1   H4B 6557   4.202   2.905  10.015  0.2481 -0.5975 -1.9884
   56CHL1    C5 6558   4.094   2.857   9.837 -0.5000 -1.3220  0.8030
   56CHL1    C6 6559   4.173   2.931   9.756 -0.7597  0.8178 -1.0198
   56CHL1    H6 6560   4.254   2.990   9.802  0.2133 -0.9255 -0.4264
   56CHL1    C7 6561   4.172   2.934   9.604 -0.2778  0.5071  0.6091
   56CHL1   H7A 6562   4.178   3.033   9.553 -1.5819  0.0685 -0.4671
   56CHL1   H7B 6563   4.256   2.871   9.568 -0.9352 -0.6000  0.9688
   56CHL1    C8 6564   4.031   2.879   9.553 -0.0034 -0.4555 -0.4394
   56CHL1    H8 6565   3.959   2.961   9.573 -0.2663 -0.4335 -1.4154
   56CHL1   C14 6566   4.040   2.847   9.404  0.9092  0.1084 -0.2512
   56CHL1   H14 6567   4.103   2.756   9.398 -1.2963 -1.4722 -0.6296
   56CHL1   C15 6568   4.089   2.956   9.314 -0.1059  0.2909 -0.7139
   56CHL1  H15A 6569   4.052   3.057   9.343  1.1907 -0.2282  3.3370
   56CHL1  H15B 6570   4.200   2.958   9.314 -0.0864  0.2551 -1.9158
   56CHL1   C16 6571   4.038   2.928   9.173  0.4152  0.1006 -0.8650
   56CHL1  H16A 6572   3.975   3.011   9.135 -0.8077  0.3131  1.4353
   56CHL1  H16B 6573   4.127   2.931   9.106 -0.1433 -0.4157 -1.6599
   56CHL1   C17 6574   3.952   2.794   9.185  0.5013 -1.0468 -0.1376
   56CHL1   H17 6575   4.023   2.709   9.178  0.0652 -1.5428  1.1446
   56CHL1   C13 6576   3.913   2.801   9.339 -0.0031  0.1869 -0.0290
   56CHL1   C18 6577   3.801   2.906   9.355 -0.6281  0.6067 -0.4726
   56CHL1  H18A 6578   3.820   2.995   9.293  1.6097 -0.3706 -1.2989
   56CHL1  H18B 6579   3.701   2.864   9.332 -1.0121 -0.1683  2.2302
   56CHL1  H18C 6580   3.799   2.943   9.460  1.4170  2.4892 -1.0162
   56CHL1   C12 6581   3.876   2.669   9.407  0.2045  0.6749 -0.3650
   56CHL1  H12A 6582   3.780   2.623   9.379  0.8566 -0.4017 -0.8959
   56CHL1  H12B 6583   3.953   2.590   9.396 -0.2979  0.0838  0.2899
   56CHL1   C11 6584   3.868   2.688   9.561  0.3924  0.5413  0.2511
   56CHL1  H11A 6585   3.782   2.754   9.585  1.3162  1.7498  0.3372
   56CHL1  H11B 6586   3.850   2.587   9.604 -1.2138  0.1082 -1.3025
   56CHL1    C9 6587   3.993   2.753   9.625 -0.4760  0.0124  0.7691
   56CHL1    H9 6588   4.074   2.683   9.598  0.3419  1.1557  0.1750
   56CHL1   C10 6589   3.990   2.771   9.785  0.0845 -0.2783  0.4179
   56CHL1   C19 6590   3.850   2.833   9.815 -0.9521  0.0457 -0.3981
   56CHL1  H19A 6591   3.759   2.777   9.783 -1.6073  1.2633 -0.7154
   56CHL1  H19B 6592   3.835   2.854   9.923 -0.6007  3.1900 -0.8673
   56CHL1  H19C 6593   3.852   2.934   9.770  1.8094  1.1115  1.8266
   56CHL1    C1 6594   4.002   2.629   9.846 -0.5432 -0.4019 -0.1661
   56CHL1   H1A 6595   3.906   2.580   9.819 -1.2813  0.2728  1.1386
   56CHL1   H1B 6596   4.092   2.588   9.795  0.0346  0.9870 -0.3109
   56CHL1    C2 6597   4.014   2.615  10.000 -0.7728  1.2002  0.3283
   56CHL1   H2A 6598   4.038   2.510  10.030 -1.1135  0.5558 -1.5243
   56CHL1   H2B 6599   3.920   2.655  10.043 -1.0780 -0.5225  1.3826
   56CHL1   C20 6600   3.835   2.782   9.087  0.2019  0.4839  0.4460
   56CHL1   H20 6601   3.767   2.866   9.116 -0.0093 -0.4832  3.0409
   56CHL1   C21 6602   3.760   2.645   9.098 -0.2148 -0.4645  0.1155
   56CHL1  H21A 6603   3.691   2.634   9.184  0.6417 -1.2530  0.7325
   56CHL1  H21B 6604   3.832   2.561   9.088 -0.0490 -0.2838 -0.2369
   56CHL1  H21C 6605   3.701   2.641   9.004  0.9238  1.2305 -0.7276
   56CHL1   C22 6606   3.884   2.809   8.938 -0.1046 -0.2910  0.4702
   56CHL1  H22A 6607   3.954   2.896   8.941 -1.2952  0.8016 -1.4019
   56CHL1  H22B 6608   3.945   2.717   8.933 -1.1499 -1.2117  2.9218
   56CHL1   C23 6609   3.776   2.847   8.836 -0.0323  0.6360 -0.0337
   56CHL1  H23A 6610   3.727   2.750   8.814 -1.3913  1.3960 -0.4803
   56CHL1  H23B 6611   3.709   2.908   8.900 -0.0836 -0.6272  1.1478
   56CHL1   C24 6612   3.822   2.921   8.711 -1.2383 -0.1328  0.1264
   56CHL1  H24A 6613   3.857   3.023   8.740 -1.4029  0.1479 -0.6509
   56CHL1  H24B 6614   3.907   2.874   8.657  0.2594  2.1566  0.3187
   56CHL1   C25 6615   3.716   2.952   8.603  1.0034 -0.2358 -0.3821
   56CHL1   H25 6616   3.648   3.025   8.653  3.4075 -0.4018  3.5635
   56CHL1   C26 6617   3.759   3.037   8.485  0.2623 -0.1992 -0.9378
   56CHL1  H26A 6618   3.846   2.994   8.431 -0.5710 -3.3027 -0.0301
   56CHL1  H26B 6619   3.666   3.050   8.426 -1.5992  0.0138  1.8846
   56CHL1  H26C 6620   3.791   3.138   8.518 -1.4628 -0.0175  0.3275
   56CHL1   C27 6621   3.637   2.824   8.562 -0.4059  0.5309 -0.1470
   56CHL1  H27A 6622   3.699   2.750   8.508 -2.2205 -1.4710  0.3981
   56CHL1  H27B 6623   3.603   2.763   8.648  1.0808 -2.8888 -1.8260
   56CHL1  H27C 6624   3.553   2.848   8.493 -0.8933 -2.0186 -0.5416
   57CHL1    C3 6625   6.310   4.511   9.700  0.9313 -0.1448 -0.0532
   57CHL1    H3 6626   6.421   4.511   9.703  0.9846 -1.7434 -0.9866
   57CHL1    O3 6627   6.261   4.569   9.818  0.1137  0.3626  0.3218
   57CHL1   H3' 6628   6.246   4.497   9.881  1.7894  1.3327  1.9291
   57CHL1    C4 6629   6.254   4.584   9.581  0.3765  0.0558 -0.9942
   57CHL1   H4A 6630   6.143   4.593   9.591  0.3780 -0.2229 -0.7027
   57CHL1   H4B 6631   6.283   4.691   9.580 -1.4713  0.7103  1.9233
   57CHL1    C5 6632   6.268   4.515   9.443 -0.1017  0.3888  0.1195
   57CHL1    C6 6633   6.327   4.581   9.339  0.0364 -0.3480 -0.4740
   57CHL1    H6 6634   6.368   4.682   9.353 -0.2087 -0.5551  2.4010
   57CHL1    C7 6635   6.359   4.519   9.203 -0.1015  0.7171 -0.3395
   57CHL1   H7A 6636   6.340   4.587   9.117 -0.1055 -0.3628 -1.2051
   57CHL1   H7B 6637   6.467   4.494   9.200  0.6945  3.5800  0.6398
   57CHL1    C8 6638   6.281   4.386   9.181  0.0393  0.5615  0.3557
   57CHL1    H8 6639   6.176   4.419   9.173  0.7596  2.6019 -1.4616
   57CHL1   C14 6640   6.325   4.303   9.057  0.7115  0.7075 -0.0775
   57CHL1   H14 6641   6.427   4.265   9.080  1.0990  1.2594 -0.8511
   57CHL1   C15 6642   6.329   4.371   8.922  0.0834  1.2609 -0.2282
   57CHL1  H15A 6643   6.248   4.447   8.921  1.5365  2.8849 -0.5221
   57CHL1  H15B 6644   6.425   4.428   8.923  0.1461  1.1822  1.0995
   57CHL1   C16 6645   6.316   4.260   8.819 -0.0271  0.8864 -0.2990
   57CHL1  H16A 6646   6.231   4.269   8.748 -0.4787  0.1650  0.1345
   57CHL1  H16B 6647   6.409   4.262   8.758  0.2685  0.4161  0.1258
   57CHL1   C17 6648   6.309   4.133   8.903 -0.4012  0.3610  0.4648
   57CHL1   H17 6649   6.413   4.095   8.916 -0.1280  1.3368  1.2215
   57CHL1   C13 6650   6.245   4.176   9.029 -0.0944 -0.1828 -0.5056
   57CHL1   C18 6651   6.094   4.204   9.014  0.2784  0.0472 -0.4688
   57CHL1  H18A 6652   6.039   4.109   9.031  2.1143 -1.0727 -0.3974
   57CHL1  H18B 6653   6.055   4.273   9.091 -1.8348 -2.5230  0.9060
   57CHL1  H18C 6654   6.074   4.238   8.910 -0.5188 -0.5788 -0.5279
   57CHL1   C12 6655   6.274   4.081   9.145 -0.0195 -0.2577 -0.0341
   57CHL1  H12A 6656   6.211   3.989   9.141 -0.3369  0.0016 -1.3624
   57CHL1  H12B 6657   6.378   4.043   9.136 -0.0080 -0.2787  0.1711
   57CHL1   C11 6658   6.236   4.146   9.284 -0.1785  0.0725 -0.2575
   57CHL1  H11A 6659   6.126   4.141   9.286 -0.1515 -0.9342  2.2211
   57CHL1  H11B 6660   6.268   4.081   9.368 -2.3255 -0.7056  0.0022
   57CHL1    C9 6661   6.292   4.294   9.305  0.4246  0.9004  0.1737
   57CHL1    H9 6662   6.400   4.273   9.315  0.1016 -0.2632  1.5414
   57CHL1   C10 6663   6.240   4.366   9.434  0.4899 -0.1548 -0.4526
   57CHL1   C19 6664   6.087   4.350   9.441  0.5405 -0.3275 -0.2952
   57CHL1  H19A 6665   6.055   4.391   9.539  1.3930  0.9549 -0.5272
   57CHL1  H19B 6666   6.036   4.396   9.353 -2.2644 -1.0478  0.8500
   57CHL1  H19C 6667   6.069   4.243   9.465 -1.4494  0.0167 -0.0793
   57CHL1    C1 6668   6.315   4.303   9.562  0.5757  0.0521  0.2528
   57CHL1   H1A 6669   6.301   4.193   9.567  1.0960  0.0229  1.4264
   57CHL1   H1B 6670   6.423   4.327   9.548  0.1845  0.5772 -2.4524
   57CHL1    C2 6671   6.271   4.365   9.699 -0.1277  0.4082 -0.6191
   57CHL1   H2A 6672   6.326   4.306   9.775  0.4838  1.2985 -0.3728
   57CHL1   H2B 6673   6.162   4.352   9.717  0.0772 -0.6630 -0.0286
   57CHL1   C20 6674   6.254   4.013   8.822 -0.0173  0.0641  0.6776
   57CHL1   H20 6675   6.150   4.030   8.785  1.2637  3.3388 -1.9159
   57CHL1   C21 6676   6.256   3.877   8.900 -0.3410 -0.1203 -0.2064
   57CHL1  H21A 6677   6.242   3.796   8.825  1.8625 -0.7269 -0.0218
   57CHL1  H21B 6678   6.182   3.865   8.983 -1.7157  2.3000 -0.9818
   57CHL1  H21C 6679   6.359   3.873   8.942 -0.7315  0.4909  0.8687
   57CHL1   C22 6680   6.334   3.984   8.690  0.3040  0.2406 -0.4623
   57CHL1  H22A 6681   6.351   4.080   8.638  0.0652  0.8501  0.5466
   57CHL1  H22B 6682   6.435   3.940   8.699 -0.3169 -0.9021  1.7912
   57CHL1   C23 6683   6.257   3.897   8.592 -0.1831 -0.1834  0.0627
   57CHL1  H23A 6684   6.275   3.791   8.620  2.1423  0.2795  0.5676
   57CHL1  H23B 6685   6.150   3.924   8.606 -0.6451 -1.7095 -0.4024
   57CHL1   C24 6686   6.312   3.920   8.450 -0.0241  0.5861  0.2978
   57CHL1  H24A 6687   6.305   4.031   8.442 -3.3167  0.5243  0.6577
   57CHL1  H24B 6688   6.421   3.903   8.442  0.4258  2.2966  1.8455
   57CHL1   C25 6689   6.225   3.844   8.352 -0.3627 -0.1447  1.0254
   57CHL1   H25 6690   6.119   3.848   8.387 -0.9374 -1.7729 -0.4173
   57CHL1   C26 6691   6.225   3.916   8.220  0.2031 -0.3649  0.6367
   57CHL1  H26A 6692   6.215   4.026   8.231  0.7888 -0.2421  0.0111
   57CHL1  H26B 6693   6.319   3.897   8.164 -1.0103 -3.5085 -0.5660
   57CHL1  H26C 6694   6.141   3.894   8.150  0.2920  1.4987 -0.1347
   57CHL1   C27 6695   6.261   3.697   8.340 -0.7121  0.1465  0.1949
   57CHL1  H27A 6696   6.368   3.685   8.367 -0.8729 -0.6474  0.5127
   57CHL1  H27B 6697   6.202   3.640   8.415  0.5587 -0.3926  0.8268
   57CHL1  H27C 6698   6.250   3.648   8.241  0.7368  2.7211 -1.3379
   58CHL1    C3 6699   1.463   4.046   9.438  0.3275 -0.2416  0.4236
   58CHL1    H3 6700   1.361   4.029   9.399  0.8514  0.1767 -1.1694
   58CHL1    O3 6701   1.464   4.047   9.581  0.2200  0.2246 -0.4385
   58CHL1   H3' 6702   1.379   4.086   9.604 -0.8321 -0.8843 -2.2434
   58CHL1    C4 6703   1.557   3.936   9.385 -0.3720  0.4519  0.2003
   58CHL1   H4A 6704   1.658   3.951   9.427  0.1735 -1.0470 -0.5238
   58CHL1   H4B 6705   1.523   3.839   9.428  2.2170 -1.3422 -1.5273
   58CHL1    C5 6706   1.575   3.933   9.234  0.2233 -0.3459  0.4999
   58CHL1    C6 6707   1.541   3.825   9.161  0.3331 -0.3094  0.2324
   58CHL1    H6 6708   1.518   3.733   9.217 -1.9353  1.1344  1.8006
   58CHL1    C7 6709   1.546   3.825   9.013  0.1633 -0.4050 -1.0162
   58CHL1   H7A 6710   1.577   3.723   8.982 -0.6371 -1.0079  0.0810
   58CHL1   H7B 6711   1.439   3.835   8.984 -0.2887 -0.4330  0.5689
   58CHL1    C8 6712   1.630   3.936   8.948  0.2191 -0.1072 -0.0944
   58CHL1    H8 6713   1.734   3.899   8.962  0.8053  1.9321  1.3388
   58CHL1   C14 6714   1.610   3.950   8.791 -0.3722 -0.4631 -0.6467
   58CHL1   H14 6715   1.509   3.995   8.779 -0.2416  0.0882  0.2542
   58CHL1   C15 6716   1.622   3.824   8.706 -0.4950 -0.5907 -0.5749
   58CHL1  H15A 6717   1.705   3.756   8.735 -0.5629 -0.5173 -0.1914
   58CHL1  H15B 6718   1.529   3.765   8.711 -2.8087  2.8207  1.0760
   58CHL1   C16 6719   1.644   3.883   8.570  0.9473  0.1190  0.0377
   58CHL1  H16A 6720   1.732   3.849   8.512  1.4480  1.5567 -0.1047
   58CHL1  H16B 6721   1.564   3.864   8.496 -0.1253  0.5504  1.0566
   58CHL1   C17 6722   1.670   4.044   8.586 -0.0188  0.1729  0.6469
   58CHL1   H17 6723   1.568   4.083   8.566 -0.7366 -2.4867 -1.4877
   58CHL1   C13 6724   1.705   4.056   8.731 -0.5232  0.5855 -0.0215
   58CHL1   C18 6725   1.854   4.017   8.748 -0.3729 -0.5076  0.2513
   58CHL1  H18A 6726   1.882   3.933   8.680 -1.3009  0.1770 -1.0193
   58CHL1  H18B 6727   1.924   4.097   8.715  0.8020 -1.4187  0.4371
   58CHL1  H18C 6728   1.880   3.995   8.853 -0.2212  1.2830  0.6186
   58CHL1   C12 6729   1.670   4.189   8.797  0.7327  0.0033 -0.4939
   58CHL1  H12A 6730   1.739   4.265   8.753  2.1904  0.2744  2.0472
   58CHL1  H12B 6731   1.566   4.214   8.767 -0.4358 -1.7971  1.7170
   58CHL1   C11 6732   1.681   4.186   8.946 -0.2450 -0.2365  0.3113
   58CHL1  H11A 6733   1.788   4.195   8.977 -0.2586 -0.4148  0.4141
   58CHL1  H11B 6734   1.640   4.284   8.977 -1.0235  0.4176 -2.5848
   58CHL1    C9 6735   1.606   4.069   9.014  0.8539 -0.0004 -0.1088
   58CHL1    H9 6736   1.501   4.097   8.992  1.0091  2.4180  1.7766
   58CHL1   C10 6737   1.614   4.074   9.169 -0.0216  0.1211  0.4209
   58CHL1   C19 6738   1.755   4.108   9.219 -0.1304 -0.2954 -0.7959
   58CHL1  H19A 6739   1.838   4.054   9.167 -0.2505 -1.4986  0.2041
   58CHL1  H19B 6740   1.773   4.218   9.218  2.0972 -0.3311  3.9633
   58CHL1  H19C 6741   1.770   4.089   9.328  0.3750 -1.9404 -1.1240
   58CHL1    C1 6742   1.514   4.173   9.227 -0.5001  0.0769 -0.2404
   58CHL1   H1A 6743   1.549   4.273   9.192 -0.5943 -0.0232 -0.6206
   58CHL1   H1B 6744   1.409   4.153   9.199 -0.8165  1.6520 -0.2565
   58CHL1    C2 6745   1.506   4.187   9.383  0.2206  0.2848 -0.3757
   58CHL1   H2A 6746   1.419   4.249   9.414  1.2442  1.2987  0.5707
   58CHL1   H2B 6747   1.598   4.229   9.429 -0.8512  1.1849  1.0102
   58CHL1   C20 6748   1.761   4.104   8.478 -0.5450 -0.1707  0.0818
   58CHL1   H20 6749   1.861   4.058   8.494  0.4347  1.7870 -0.1221
   58CHL1   C21 6750   1.796   4.261   8.495 -0.2468 -0.9485  0.3216
   58CHL1  H21A 6751   1.711   4.332   8.500  0.5958  0.1644 -0.5295
   58CHL1  H21B 6752   1.871   4.293   8.419 -0.3638 -0.9580  0.2012
   58CHL1  H21C 6753   1.851   4.270   8.591 -1.9392  0.7087  1.2027
   58CHL1   C22 6754   1.725   4.077   8.338 -0.3903  0.6398  0.3590
   58CHL1  H22A 6755   1.656   3.991   8.325 -0.3649  0.7480 -0.5487
   58CHL1  H22B 6756   1.663   4.159   8.295 -0.4002  0.1826 -0.5138
   58CHL1   C23 6757   1.846   4.034   8.252 -0.3911 -0.3482 -0.7857
   58CHL1  H23A 6758   1.928   4.109   8.245  0.0482 -0.8935 -1.8379
   58CHL1  H23B 6759   1.889   3.939   8.291  0.2135  0.6036  0.9681
   58CHL1   C24 6760   1.801   4.027   8.103  0.2352 -0.2512 -0.2772
   58CHL1  H24A 6761   1.739   4.115   8.075  1.2044  0.0156 -1.6160
   58CHL1  H24B 6762   1.887   4.028   8.033 -0.0338 -1.0285 -0.6326
   58CHL1   C25 6763   1.709   3.907   8.065  0.9337  0.6735 -0.8710
   58CHL1   H25 6764   1.616   3.917   8.124  1.5067  1.7962 -0.1188
   58CHL1   C26 6765   1.660   3.928   7.922  0.2845  0.7476  0.2419
   58CHL1  H26A 6766   1.562   3.880   7.904  0.6530 -1.2211  2.8122
   58CHL1  H26B 6767   1.640   4.035   7.904 -0.9486  0.9467  2.4229
   58CHL1  H26C 6768   1.739   3.893   7.852 -1.0871 -1.5859 -0.2537
   58CHL1   C27 6769   1.772   3.770   8.086  0.2884  0.4087  0.2416
   58CHL1  H27A 6770   1.851   3.762   8.009 -0.6919  0.2633 -0.7781
   58CHL1  H27B 6771   1.812   3.748   8.187  1.7555 -2.3102 -0.8481
   58CHL1  H27C 6772   1.698   3.690   8.067 -1.0471  1.7029 -0.2217
   59CHL1    C3 6773   0.844   3.016   9.930  0.5250  0.3903  0.2533
   59CHL1    H3 6774   0.884   2.913   9.915 -1.5032 -0.7610  2.1167
   59CHL1    O3 6775   0.854   3.055  10.065  0.1567 -0.1568  0.8815
   59CHL1   H3' 6776   0.773   3.103  10.083 -1.4467 -3.2143  2.5271
   59CHL1    C4 6777   0.913   3.115   9.841  0.1427  0.3050 -0.1664
   59CHL1   H4A 6778   0.865   3.214   9.857 -1.3214  0.1934 -3.1772
   59CHL1   H4B 6779   1.021   3.119   9.867 -0.0854  0.4663  0.7671
   59CHL1    C5 6780   0.891   3.072   9.695 -0.3626  0.6391 -0.0597
   59CHL1    C6 6781   0.991   3.039   9.610  1.0782 -0.3988  0.0364
   59CHL1    H6 6782   1.097   3.040   9.642  0.5903 -4.3048  2.5099
   59CHL1    C7 6783   0.980   3.007   9.463  0.6762 -0.0296 -0.6281
   59CHL1   H7A 6784   1.060   3.063   9.411  0.3696  0.3625 -0.6851
   59CHL1   H7B 6785   0.992   2.898   9.445 -0.3352  0.0464 -1.8327
   59CHL1    C8 6786   0.847   3.058   9.409  0.6687  0.1400  0.0315
   59CHL1    H8 6787   0.841   3.168   9.391 -1.2122 -0.2287 -2.0336
   59CHL1   C14 6788   0.823   2.989   9.267 -0.4925  0.3131  0.3416
   59CHL1   H14 6789   0.813   2.879   9.279  0.8743  0.1324  0.0567
   59CHL1   C15 6790   0.927   2.996   9.161 -0.5183 -0.2166 -0.5396
   59CHL1  H15A 6791   0.974   3.097   9.165  0.2203 -0.4818 -2.0496
   59CHL1  H15B 6792   1.013   2.927   9.170  1.3990  1.9784 -1.1183
   59CHL1   C16 6793   0.849   2.969   9.034  0.3754  0.5167 -0.2140
   59CHL1  H16A 6794   0.843   3.061   8.971 -1.2509  0.9139  0.4663
   59CHL1  H16B 6795   0.886   2.881   8.978  2.0228 -0.1196  1.7565
   59CHL1   C17 6796   0.702   2.947   9.073  0.5871 -0.1060  0.1206
   59CHL1   H17 6797   0.688   2.842   9.107 -0.0414 -0.8771 -2.3215
   59CHL1   C13 6798   0.686   3.024   9.203  0.6194  0.2743  0.5736
   59CHL1   C18 6799   0.674   3.175   9.177  0.2600 -0.2540 -0.2859
   59CHL1  H18A 6800   0.591   3.192   9.105 -0.0302 -0.5749 -0.0306
   59CHL1  H18B 6801   0.650   3.241   9.263 -0.9254  2.2860 -2.4296
   59CHL1  H18C 6802   0.767   3.224   9.141 -0.4108  1.1181 -0.1831
   59CHL1   C12 6803   0.575   2.970   9.304  0.8289 -0.5057  0.2899
   59CHL1  H12A 6804   0.474   2.979   9.260  1.0134 -2.1341 -0.5491
   59CHL1  H12B 6805   0.592   2.861   9.317 -0.2980 -0.9800 -1.7489
   59CHL1   C11 6806   0.581   3.026   9.443  0.3457 -0.0544  1.3588
   59CHL1  H11A 6807   0.560   3.135   9.446  0.8826  0.0548  1.2941
   59CHL1  H11B 6808   0.503   2.978   9.506 -0.2719  0.0606  0.6946
   59CHL1    C9 6809   0.731   3.015   9.506 -0.2433  0.0906  0.7179
   59CHL1    H9 6810   0.744   2.905   9.513 -1.8531 -0.0635  1.7339
   59CHL1   C10 6811   0.748   3.070   9.652  0.3703  0.2320 -0.0797
   59CHL1   C19 6812   0.664   3.198   9.662  0.3124 -0.2940 -0.2594
   59CHL1  H19A 6813   0.697   3.266   9.743  0.2290  0.6798 -1.0283
   59CHL1  H19B 6814   0.656   3.257   9.568  1.2960  0.1065 -0.1078
   59CHL1  H19C 6815   0.561   3.158   9.670  0.1332  0.4319  1.4485
   59CHL1    C1 6816   0.675   2.967   9.749 -0.4851 -0.7462 -0.2253
   59CHL1   H1A 6817   0.567   2.972   9.726 -0.1412 -1.4275 -2.1346
   59CHL1   H1B 6818   0.708   2.864   9.721 -0.6201 -0.5256 -1.2414
   59CHL1    C2 6819   0.697   2.995   9.899 -0.2161 -0.4376 -0.4077
   59CHL1   H2A 6820   0.663   2.910   9.961 -0.1582 -0.7997 -0.8680
   59CHL1   H2B 6821   0.640   3.084   9.933 -2.4418 -1.0168 -2.3075
   59CHL1   C20 6822   0.607   2.973   8.948 -0.8556 -0.4964  0.0560
   59CHL1   H20 6823   0.611   3.081   8.921  0.5579 -0.2180  1.2190
   59CHL1   C21 6824   0.463   2.946   8.992 -0.3214 -0.1403  0.0430
   59CHL1  H21A 6825   0.400   2.933   8.901 -0.1106 -0.7802 -0.0234
   59CHL1  H21B 6826   0.429   3.036   9.046 -0.8424  0.2256 -0.8702
   59CHL1  H21C 6827   0.462   2.848   9.045 -0.5846 -0.2371 -0.1380
   59CHL1   C22 6828   0.644   2.888   8.833 -0.0400  0.1318  0.3361
   59CHL1  H22A 6829   0.752   2.871   8.814 -0.1151 -1.8816  1.3810
   59CHL1  H22B 6830   0.601   2.786   8.843  0.0960  0.0612  0.2065
   59CHL1   C23 6831   0.586   2.927   8.699 -0.0177 -0.1091  0.5254
   59CHL1  H23A 6832   0.475   2.924   8.700 -0.0838  0.1770 -1.6357
   59CHL1  H23B 6833   0.633   3.026   8.681  0.0162 -0.5003 -1.7482
   59CHL1   C24 6834   0.622   2.828   8.592  0.5870 -0.6618 -0.0350
   59CHL1  H24A 6835   0.732   2.811   8.585  0.5926 -1.6786  1.8498
   59CHL1  H24B 6836   0.576   2.728   8.605 -1.8219  0.3900  0.1259
   59CHL1   C25 6837   0.566   2.862   8.458  0.3394  0.0631  0.4065
   59CHL1   H25 6838   0.456   2.864   8.471  0.5222 -0.3977  2.1956
   59CHL1   C26 6839   0.602   3.003   8.409  0.0535  0.0908  0.0538
   59CHL1  H26A 6840   0.577   3.017   8.301  0.9065  1.3063 -0.0063
   59CHL1  H26B 6841   0.530   3.072   8.459  0.1666  0.1777  0.0973
   59CHL1  H26C 6842   0.709   3.029   8.422  0.2096 -0.4448 -0.1616
   59CHL1   C27 6843   0.614   2.755   8.357  0.3310  0.0570 -0.2094
   59CHL1  H27A 6844   0.574   2.654   8.383  0.1117  0.3944  0.7612
   59CHL1  H27B 6845   0.587   2.790   8.255 -0.7023 -3.3286 -1.2410
   59CHL1  H27C 6846   0.725   2.746   8.359  0.3716  0.6674  2.0248
   60CHL1    C3 6847   0.465   0.824   9.643 -0.3899  0.2881 -0.2836
   60CHL1    H3 6848   0.559   0.883   9.639 -0.3059  0.5082  2.7308
   60CHL1    O3 6849   0.434   0.799   9.782  0.4830  0.1933  0.1515
   60CHL1   H3' 6850   0.514   0.770   9.827  0.7450  0.1581 -0.3271
   60CHL1    C4 6851   0.355   0.913   9.583  0.5664  0.1102  0.4030
   60CHL1   H4A 6852   0.256   0.870   9.611  0.3702  2.9263  5.2239
   60CHL1   H4B 6853   0.362   1.009   9.638  0.9125 -2.0078  4.3743
   60CHL1    C5 6854   0.368   0.915   9.434  0.6526  0.0737 -0.1705
   60CHL1    C6 6855   0.378   1.037   9.377 -0.2286  0.1550  0.7811
   60CHL1    H6 6856   0.370   1.124   9.444  0.5554  0.2337  0.7790
   60CHL1    C7 6857   0.395   1.057   9.226  0.5393  0.8603  0.2581
   60CHL1   H7A 6858   0.328   1.139   9.193 -0.1030  0.3762  0.3377
   60CHL1   H7B 6859   0.499   1.092   9.208 -0.2080  2.9348 -0.3614
   60CHL1    C8 6860   0.372   0.927   9.137 -0.4675  0.5660 -0.0201
   60CHL1    H8 6861   0.262   0.920   9.119 -0.1217 -0.1467 -2.0659
   60CHL1   C14 6862   0.431   0.937   8.997 -0.2735 -0.7913  0.3678
   60CHL1   H14 6863   0.539   0.950   9.017 -0.3637  2.1589 -0.6264
   60CHL1   C15 6864   0.399   1.064   8.919  0.1029  0.3584 -0.1981
   60CHL1  H15A 6865   0.293   1.092   8.939  0.6322  3.2127 -0.9310
   60CHL1  H15B 6866   0.455   1.153   8.954  1.5169 -0.3785 -0.5214
   60CHL1   C16 6867   0.422   1.017   8.774 -0.1058  0.7391 -0.3017
   60CHL1  H16A 6868   0.330   0.997   8.716  0.6049 -0.6814 -0.9937
   60CHL1  H16B 6869   0.497   1.082   8.723 -0.8128  1.4426 -0.4778
   60CHL1   C17 6870   0.478   0.869   8.784  0.3853 -0.1427 -1.1816
   60CHL1   H17 6871   0.585   0.881   8.811 -0.2289  3.4548  0.2343
   60CHL1   C13 6872   0.410   0.812   8.914 -0.2219 -0.3367 -0.0142
   60CHL1   C18 6873   0.264   0.781   8.886 -0.2193 -0.1829  0.3032
   60CHL1  H18A 6874   0.212   0.756   8.981  0.0896 -1.1531  0.2312
   60CHL1  H18B 6875   0.220   0.877   8.852  1.3691  0.7339  0.7542
   60CHL1  H18C 6876   0.236   0.705   8.810 -1.7986  0.5978  0.0544
   60CHL1   C12 6877   0.482   0.703   8.989 -0.3163 -0.0597 -0.2091
   60CHL1  H12A 6878   0.467   0.611   8.929 -3.3493 -0.9670  1.7706
   60CHL1  H12B 6879   0.592   0.722   8.998 -0.3533  0.7100 -1.1464
   60CHL1   C11 6880   0.427   0.681   9.129  0.3964 -0.6555  0.5214
   60CHL1  H11A 6881   0.329   0.629   9.121 -0.1580  0.3095  0.7994
   60CHL1  H11B 6882   0.494   0.602   9.171  0.1364 -1.9058 -1.3087
   60CHL1    C9 6883   0.430   0.809   9.211  0.1251 -0.0893  0.5456
   60CHL1    H9 6884   0.538   0.836   9.220  0.6051 -1.0848 -1.5659
   60CHL1   C10 6885   0.380   0.786   9.355 -0.3106  0.5596 -0.1833
   60CHL1   C19 6886   0.237   0.722   9.354  0.1987  0.6571  0.6346
   60CHL1  H19A 6887   0.197   0.719   9.457  0.8645 -1.8068  0.8715
   60CHL1  H19B 6888   0.167   0.775   9.285  2.5909  0.9616 -1.7442
   60CHL1  H19C 6889   0.240   0.615   9.325 -2.5045  0.8502 -0.7292
   60CHL1    C1 6890   0.475   0.698   9.428 -0.1253 -0.2304 -0.0326
   60CHL1   H1A 6891   0.487   0.598   9.380 -0.6441  1.9342 -5.2911
   60CHL1   H1B 6892   0.576   0.740   9.405  0.4752 -2.2704 -1.3860
   60CHL1    C2 6893   0.467   0.692   9.574 -1.0304 -0.2518 -0.7020
   60CHL1   H2A 6894   0.559   0.639   9.607 -1.2319  0.0634  0.4121
   60CHL1   H2B 6895   0.383   0.624   9.598 -1.0306  0.2946  1.0265
   60CHL1   C20 6896   0.472   0.807   8.646  0.3245  1.0768  0.2101
   60CHL1   H20 6897   0.367   0.784   8.621  0.8294  0.8145 -1.8105
   60CHL1   C21 6898   0.541   0.673   8.651 -0.5052 -0.2052 -0.1620
   60CHL1  H21A 6899   0.489   0.605   8.721 -1.2169  0.3030 -0.1799
   60CHL1  H21B 6900   0.649   0.686   8.672 -0.1253  0.8678 -2.4237
   60CHL1  H21C 6901   0.543   0.617   8.555  1.9640 -0.6473  0.0892
   60CHL1   C22 6902   0.518   0.892   8.525 -1.1816 -0.2629  0.1290
   60CHL1  H22A 6903   0.481   0.838   8.436 -0.9712 -0.1518 -0.0258
   60CHL1  H22B 6904   0.451   0.981   8.530 -0.1537  0.4512  2.2069
   60CHL1   C23 6905   0.677   0.928   8.531 -0.0632 -0.7037  0.1195
   60CHL1  H23A 6906   0.699   0.962   8.634 -2.4295 -2.8320  1.4510
   60CHL1  H23B 6907   0.740   0.837   8.517 -1.3109 -1.6131  0.2218
   60CHL1   C24 6908   0.707   1.042   8.433  0.1589 -0.6185 -0.3484
   60CHL1  H24A 6909   0.641   1.130   8.452 -0.5346 -0.4679 -3.1198
   60CHL1  H24B 6910   0.810   1.079   8.449 -1.0327  2.0548  2.4258
   60CHL1   C25 6911   0.695   1.014   8.278 -0.5431 -0.4072 -0.5190
   60CHL1   H25 6912   0.589   0.994   8.255 -0.2726 -1.8333 -0.6281
   60CHL1   C26 6913   0.735   1.134   8.186  0.0066 -0.2390  0.7597
   60CHL1  H26A 6914   0.682   1.230   8.208 -1.2392 -0.6663 -0.2497
   60CHL1  H26B 6915   0.842   1.158   8.198  0.5102 -1.2303 -1.3186
   60CHL1  H26C 6916   0.714   1.103   8.081 -0.2994 -1.3897  1.1414
   60CHL1   C27 6917   0.778   0.889   8.245 -0.1507 -0.0398  0.5102
   60CHL1  H27A 6918   0.723   0.803   8.290 -0.9614  0.7281  1.0256
   60CHL1  H27B 6919   0.783   0.881   8.135 -1.8723  1.8094  0.2437
   60CHL1  H27C 6920   0.878   0.883   8.294 -0.2777  0.0747  0.7902
   61CHL1    C3 6921   5.186   1.125   9.975  0.3786  0.4309  0.6207
   61CHL1    H3 6922   5.279   1.163   9.928  0.0692  2.3377  1.4388
   61CHL1    O3 6923   5.203   1.116  10.108 -0.2628  0.2317  0.2979
   61CHL1   H3' 6924   5.121   1.082  10.144 -1.1007  2.7661  0.9845
   61CHL1    C4 6925   5.088   1.242   9.952  0.1463 -0.5047  0.1044
   61CHL1   H4A 6926   5.002   1.224  10.020 -3.0344  1.5434 -3.0078
   61CHL1   H4B 6927   5.144   1.330   9.990  0.0273 -1.2327  2.1012
   61CHL1    C5 6928   5.047   1.262   9.806  0.5711  0.9560 -0.6157
   61CHL1    C6 6929   5.058   1.376   9.739 -0.2026 -0.3269 -0.1327
   61CHL1    H6 6930   5.089   1.468   9.791 -0.8117  0.5154 -1.2215
   61CHL1    C7 6931   5.015   1.398   9.596 -0.2683 -0.2510  0.0342
   61CHL1   H7A 6932   4.963   1.496   9.591 -0.9853 -0.6214  0.1203
   61CHL1   H7B 6933   5.113   1.407   9.544 -0.7242  0.0053 -0.8089
   61CHL1    C8 6934   4.943   1.279   9.535  0.4250  0.2746 -0.1617
   61CHL1    H8 6935   4.840   1.290   9.575  0.9194  1.7523  0.7713
   61CHL1   C14 6936   4.955   1.283   9.384  0.4792  0.4549  0.2549
   61CHL1   H14 6937   5.063   1.283   9.357  0.3391  2.4653 -0.4242
   61CHL1   C15 6938   4.909   1.409   9.311  0.0900 -0.3626  0.2703
   61CHL1  H15A 6939   4.803   1.427   9.340 -0.1592  0.5873 -1.1492
   61CHL1  H15B 6940   4.969   1.502   9.317  0.2240 -0.4449  0.1902
   61CHL1   C16 6941   4.892   1.370   9.170 -0.3024  0.1407 -0.3289
   61CHL1  H16A 6942   4.786   1.382   9.137 -1.0183 -2.3095  0.7779
   61CHL1  H16B 6943   4.951   1.432   9.100 -0.0099 -0.7435 -0.8950
   61CHL1   C17 6944   4.923   1.212   9.162 -0.4198 -0.1373 -0.4325
   61CHL1   H17 6945   5.029   1.220   9.126  0.0685 -1.6609  0.5741
   61CHL1   C13 6946   4.893   1.167   9.300  0.0416  0.1715 -0.6602
   61CHL1   C18 6947   4.746   1.145   9.320  0.0770  0.7324 -0.6138
   61CHL1  H18A 6948   4.716   1.053   9.265  0.2789  2.2750 -3.4770
   61CHL1  H18B 6949   4.719   1.148   9.428  0.4043 -1.3530 -0.4207
   61CHL1  H18C 6950   4.692   1.232   9.278 -1.5485 -0.1701 -0.4857
   61CHL1   C12 6951   4.964   1.043   9.353 -0.2186  0.8369  0.1531
   61CHL1  H12A 6952   4.931   0.950   9.301 -2.9477  0.7038  1.9359
   61CHL1  H12B 6953   5.073   1.057   9.338 -0.3609  1.5625 -0.2646
   61CHL1   C11 6954   4.935   1.022   9.504  0.1787  0.4218 -0.0602
   61CHL1  H11A 6955   4.827   1.006   9.524  0.7999 -1.3237  2.3671
   61CHL1  H11B 6956   4.986   0.927   9.529  0.3865 -0.0984 -2.2291
   61CHL1    C9 6957   5.005   1.142   9.578 -0.0328  0.1176 -0.4234
   61CHL1    H9 6958   5.111   1.143   9.547 -0.1740  0.2009 -0.9225
   61CHL1   C10 6959   5.004   1.132   9.734 -0.9553  0.0502  0.0304
   61CHL1   C19 6960   4.860   1.088   9.775 -0.2623 -0.6402 -0.5817
   61CHL1  H19A 6961   4.789   1.165   9.738  0.7516  1.0287  0.7971
   61CHL1  H19B 6962   4.847   0.983   9.742  2.2236 -0.3367 -2.8767
   61CHL1  H19C 6963   4.849   1.076   9.885  0.0949 -0.6077 -0.5396
   61CHL1    C1 6964   5.111   1.017   9.769  0.1220  0.2627 -0.3457
   61CHL1   H1A 6965   5.079   0.919   9.727 -0.5910  0.3220  0.0364
   61CHL1   H1B 6966   5.210   1.036   9.722  1.4049 -0.0298  2.1019
   61CHL1    C2 6967   5.135   0.994   9.915  0.2924 -0.1614  0.3183
   61CHL1   H2A 6968   5.218   0.920   9.923  0.9922  0.5817  0.0942
   61CHL1   H2B 6969   5.039   0.956   9.956 -0.5127  0.1749 -1.2262
   61CHL1   C20 6970   4.846   1.141   9.052 -0.1318  0.4751 -0.7866
   61CHL1   H20 6971   4.740   1.118   9.075  0.2036  0.2172  0.6414
   61CHL1   C21 6972   4.920   1.002   9.022  0.4979  0.4709 -0.4561
   61CHL1  H21A 6973   4.879   0.922   9.087  2.1480  0.6818  0.9309
   61CHL1  H21B 6974   5.026   1.000   9.056  0.2146 -0.0881  0.4515
   61CHL1  H21C 6975   4.898   0.977   8.916  1.6071 -0.3386 -0.5212
   61CHL1   C22 6976   4.850   1.220   8.918 -0.4121 -0.7112  0.4822
   61CHL1  H22A 6977   4.858   1.330   8.926 -1.5238 -0.7599  3.4758
   61CHL1  H22B 6978   4.942   1.182   8.869 -0.4477  1.2787 -1.2965
   61CHL1   C23 6979   4.736   1.186   8.819  0.0700  0.5764 -0.0611
   61CHL1  H23A 6980   4.720   1.076   8.820  1.8888  0.2813  0.1393
   61CHL1  H23B 6981   4.640   1.227   8.858 -0.1146  2.4208 -2.2661
   61CHL1   C24 6982   4.773   1.238   8.680  0.1215 -0.0918 -0.0964
   61CHL1  H24A 6983   4.778   1.348   8.694  0.7656 -0.0882 -0.3331
   61CHL1  H24B 6984   4.869   1.197   8.642  1.1526  1.4371  0.7492
   61CHL1   C25 6985   4.653   1.216   8.584 -0.7149 -0.2939  1.0579
   61CHL1   H25 6986   4.557   1.237   8.636 -0.0292  2.4464  1.3474
   61CHL1   C26 6987   4.653   1.318   8.470 -0.4720 -0.1305 -0.6060
   61CHL1  H26A 6988   4.555   1.325   8.418 -1.2420  0.1014  0.8084
   61CHL1  H26B 6989   4.652   1.422   8.510 -2.7135 -0.2837 -0.1312
   61CHL1  H26C 6990   4.739   1.317   8.399 -0.5935  0.0764 -0.7557
   61CHL1   C27 6991   4.663   1.072   8.526 -0.0976  0.0357 -0.4495
   61CHL1  H27A 6992   4.582   1.045   8.455  0.2819 -1.6998 -0.2689
   61CHL1  H27B 6993   4.755   1.062   8.465 -0.0102  0.2863 -0.3614
   61CHL1  H27C 6994   4.660   1.000   8.611  1.5857 -0.4062 -0.7343
   62CHL1    C3 6995   5.020   4.680   9.784 -0.5273  1.0139 -0.2000
   62CHL1    H3 6996   5.061   4.584   9.821  0.5224  0.6442 -2.1831
   62CHL1    O3 6997   4.967   4.756   9.890 -0.3914  0.1647  0.5190
   62CHL1   H3' 6998   4.933   4.836   9.849 -3.1368 -1.3254 -0.3317
   62CHL1    C4 6999   5.139   4.756   9.718 -0.9692 -0.2205  0.1247
   62CHL1   H4A 7000   5.111   4.862   9.697 -0.6980 -0.5390 -2.1104
   62CHL1   H4B 7001   5.215   4.752   9.799  0.6354 -0.9972 -1.3512
   62CHL1    C5 7002   5.187   4.680   9.594  0.0406 -0.5646 -0.7887
   62CHL1    C6 7003   5.319   4.640   9.571 -0.4217  0.5170  0.0555
   62CHL1    H6 7004   5.402   4.654   9.641 -0.8842  1.7157  0.3922
   62CHL1    C7 7005   5.367   4.572   9.445 -0.4616  0.0274 -0.5069
   62CHL1   H7A 7006   5.465   4.611   9.413 -1.1740  3.8814  1.4483
   62CHL1   H7B 7007   5.370   4.466   9.478  0.1872  0.1168 -0.2696
   62CHL1    C8 7008   5.268   4.584   9.327 -0.1005  0.2748  0.4044
   62CHL1    H8 7009   5.273   4.691   9.295  0.4950  0.2208  0.2916
   62CHL1   C14 7010   5.316   4.501   9.209 -0.1417  0.5352 -0.4892
   62CHL1   H14 7011   5.320   4.399   9.252 -1.9745  0.7249  0.2000
   62CHL1   C15 7012   5.455   4.528   9.147  0.3241 -0.0281 -0.0376
   62CHL1  H15A 7013   5.478   4.634   9.127 -1.5280  0.2544 -0.8308
   62CHL1  H15B 7014   5.548   4.492   9.197  1.3684  0.2963 -1.6568
   62CHL1   C16 7015   5.437   4.458   9.007  0.3927 -0.0559 -0.0990
   62CHL1  H16A 7016   5.451   4.538   8.932 -1.0882  1.2119  0.8974
   62CHL1  H16B 7017   5.515   4.382   8.984 -0.9624 -1.5545  0.0101
   62CHL1   C17 7018   5.289   4.391   9.002 -0.4164 -0.1908  0.0789
   62CHL1   H17 7019   5.294   4.290   9.048  0.8048  0.3999  1.3465
   62CHL1   C13 7020   5.214   4.486   9.099  0.1433  0.1709 -0.9290
   62CHL1   C18 7021   5.191   4.623   9.031 -0.3613  0.1939 -0.6695
   62CHL1  H18A 7022   5.178   4.704   9.106  0.9975 -0.5896  0.4372
   62CHL1  H18B 7023   5.279   4.663   8.977 -1.1138  0.7788 -1.5138
   62CHL1  H18C 7024   5.095   4.622   8.974 -0.8790  0.9857  0.1459
   62CHL1   C12 7025   5.079   4.431   9.156  0.2451 -0.1050  0.6698
   62CHL1  H12A 7026   5.012   4.435   9.067 -1.5984 -0.5293  1.9797
   62CHL1  H12B 7027   5.091   4.325   9.188  0.7236  0.0191  0.9102
   62CHL1   C11 7028   5.022   4.522   9.269 -0.4993  0.1980  0.2521
   62CHL1  H11A 7029   4.989   4.617   9.224 -0.4732 -0.2059 -0.6395
   62CHL1  H11B 7030   4.936   4.460   9.303 -1.4525  0.2594 -1.8937
   62CHL1    C9 7031   5.128   4.546   9.384 -0.5078  0.2714 -0.0417
   62CHL1    H9 7032   5.143   4.448   9.435  0.2699 -0.2009 -1.1496
   62CHL1   C10 7033   5.080   4.644   9.493  0.5146 -0.1120 -0.0578
   62CHL1   C19 7034   5.032   4.774   9.419  0.1914 -0.5052 -0.6434
   62CHL1  H19A 7035   4.953   4.754   9.344 -0.8797 -0.0438  0.3244
   62CHL1  H19B 7036   4.992   4.855   9.484 -1.2740 -2.1121  0.5498
   62CHL1  H19C 7037   5.120   4.821   9.368  0.9817  0.8142  1.7672
   62CHL1    C1 7038   4.964   4.569   9.564 -0.2212 -0.5468 -0.0136
   62CHL1   H1A 7039   4.884   4.541   9.492 -0.8326  0.0314  0.4145
   62CHL1   H1B 7040   5.000   4.475   9.610 -0.3189 -0.6742 -0.1953
   62CHL1    C2 7041   4.911   4.653   9.681  0.1715 -0.3875 -0.6084
   62CHL1   H2A 7042   4.828   4.593   9.724 -0.2701 -0.9014 -2.1187
   62CHL1   H2B 7043   4.861   4.749   9.653 -0.1036 -1.5298 -4.7951
   62CHL1   C20 7044   5.230   4.387   8.859 -0.3298  0.6882  0.1056
   62CHL1   H20 7045   5.194   4.487   8.829 -1.9851  0.2179  0.4307
   62CHL1   C21 7046   5.118   4.286   8.862  0.5277  0.6949  0.7487
   62CHL1  H21A 7047   5.076   4.257   8.960  0.1924 -1.6823 -0.0234
   62CHL1  H21B 7048   5.161   4.190   8.825  0.8439  0.9378  0.4783
   62CHL1  H21C 7049   5.040   4.316   8.788  1.3522 -3.7984 -2.3948
   62CHL1   C22 7050   5.338   4.341   8.754 -0.4441  0.7236  0.1091
   62CHL1  H22A 7051   5.434   4.396   8.758 -0.2100  0.3216  0.0026
   62CHL1  H22B 7052   5.371   4.240   8.785  1.8338  1.8816  1.7658
   62CHL1   C23 7053   5.295   4.355   8.604  0.1940  0.8276 -0.0040
   62CHL1  H23A 7054   5.197   4.307   8.581  1.0017  0.6239 -3.7278
   62CHL1  H23B 7055   5.288   4.464   8.587 -0.5223  0.5979 -1.3615
   62CHL1   C24 7056   5.401   4.301   8.510 -0.4519 -0.4879 -0.2258
   62CHL1  H24A 7057   5.494   4.359   8.532 -0.0550 -0.9526 -0.6493
   62CHL1  H24B 7058   5.425   4.195   8.530  1.0782  0.3318  2.9973
   62CHL1   C25 7059   5.371   4.323   8.358  0.0530  1.3936 -0.0342
   62CHL1   H25 7060   5.326   4.425   8.351 -1.9285  0.5677 -0.1269
   62CHL1   C26 7061   5.486   4.305   8.263  0.1421 -0.5081  0.9736
   62CHL1  H26A 7062   5.501   4.197   8.247  0.6613 -0.1400 -1.3460
   62CHL1  H26B 7063   5.462   4.353   8.165  2.5248  0.0324  0.5838
   62CHL1  H26C 7064   5.569   4.363   8.309 -0.0050 -0.2464  0.9157
   62CHL1   C27 7065   5.250   4.229   8.318 -0.5879 -0.3469 -0.4364
   62CHL1  H27A 7066   5.265   4.130   8.366 -1.3051  0.7362  2.2655
   62CHL1  H27B 7067   5.153   4.266   8.360 -0.9967  1.1894 -2.5730
   62CHL1  H27C 7068   5.246   4.220   8.208 -0.6708 -1.0350 -0.3817
   63CHL1    C3 7069   1.031   5.784   9.318  0.7304  0.4797  0.0189
   63CHL1    H3 7070   1.122   5.838   9.287  0.3485  0.7809 -0.6178
   63CHL1    O3 7071   0.994   5.794   9.453 -0.0449 -0.2400  0.4127
   63CHL1   H3' 7072   0.900   5.779   9.461 -1.0168  3.9217 -0.7239
   63CHL1    C4 7073   0.915   5.844   9.233 -0.3355  0.1817 -0.6331
   63CHL1   H4A 7074   0.813   5.817   9.269  0.1556 -1.8167 -0.5927
   63CHL1   H4B 7075   0.932   5.952   9.250 -0.3574 -0.0304  0.9122
   63CHL1    C5 7076   0.915   5.809   9.086  0.3190  0.1584  0.3585
   63CHL1    C6 7077   0.916   5.904   8.989  0.3056  1.0220  0.0529
   63CHL1    H6 7078   0.911   6.009   9.020 -2.3376  0.3146  2.4667
   63CHL1    C7 7079   0.892   5.876   8.845 -1.0947 -0.1978  0.2474
   63CHL1   H7A 7080   0.816   5.944   8.804 -0.6887  0.0061 -0.1765
   63CHL1   H7B 7081   0.985   5.906   8.791 -0.3115 -0.3509  1.4651
   63CHL1    C8 7082   0.856   5.733   8.813  0.4549  0.1492  0.6092
   63CHL1    H8 7083   0.750   5.721   8.845  0.1763  0.4371 -0.1738
   63CHL1   C14 7084   0.873   5.694   8.663 -0.3061  0.4274 -0.0670
   63CHL1   H14 7085   0.982   5.706   8.646  0.0464  0.0607  1.7601
   63CHL1   C15 7086   0.805   5.783   8.557  0.4554 -0.2642 -0.3495
   63CHL1  H15A 7087   0.710   5.818   8.602  1.3644  1.6766  0.1784
   63CHL1  H15B 7088   0.871   5.873   8.545  2.6930 -1.6525  0.8362
   63CHL1   C16 7089   0.801   5.697   8.436  0.7115 -0.1298  0.6673
   63CHL1  H16A 7090   0.695   5.702   8.405  0.4174 -2.9566  0.9401
   63CHL1  H16B 7091   0.857   5.751   8.357 -2.1572  0.2111 -1.2738
   63CHL1   C17 7092   0.868   5.562   8.476  0.3227  0.2439 -0.7830
   63CHL1   H17 7093   0.976   5.579   8.460  0.5910 -1.2909 -0.8055
   63CHL1   C13 7094   0.837   5.556   8.627  0.2749 -0.3102 -0.1833
   63CHL1   C18 7095   0.685   5.531   8.656 -0.0445  0.1865 -0.0849
   63CHL1  H18A 7096   0.648   5.563   8.756 -0.8359 -0.8225 -0.0385
   63CHL1  H18B 7097   0.633   5.588   8.576 -0.7648 -0.7525 -0.2938
   63CHL1  H18C 7098   0.663   5.424   8.642 -1.7076  0.4184  0.5344
   63CHL1   C12 7099   0.930   5.461   8.706 -0.4482 -0.5540  0.0888
   63CHL1  H12A 7100   0.909   5.355   8.678 -0.6962 -0.1551 -1.3423
   63CHL1  H12B 7101   1.037   5.481   8.683 -0.8781  2.3939  0.2741
   63CHL1   C11 7102   0.912   5.485   8.856  0.6129 -0.2922 -0.1820
   63CHL1  H11A 7103   0.806   5.458   8.877 -0.0340  1.8749 -0.4486
   63CHL1  H11B 7104   0.978   5.420   8.917 -0.9383 -0.8898  0.9233
   63CHL1    C9 7105   0.933   5.638   8.897 -0.1424  0.4446 -0.0375
   63CHL1    H9 7106   1.043   5.652   8.890  0.0929 -1.5221 -0.8411
   63CHL1   C10 7107   0.904   5.657   9.053  0.5669 -0.3061  0.1687
   63CHL1   C19 7108   0.773   5.595   9.097  0.3987  0.7053  0.8845
   63CHL1  H19A 7109   0.759   5.594   9.207 -0.9039 -0.9716  0.7438
   63CHL1  H19B 7110   0.687   5.645   9.048 -0.3410 -2.4169 -1.3423
   63CHL1  H19C 7111   0.751   5.487   9.078 -2.0142  1.1875  0.6607
   63CHL1    C1 7112   1.029   5.602   9.131 -0.0573 -0.3125  0.1703
   63CHL1   H1A 7113   1.037   5.493   9.113 -0.2310 -0.5850  1.6402
   63CHL1   H1B 7114   1.117   5.649   9.084 -0.3446  1.0940  0.9808
   63CHL1    C2 7115   1.044   5.636   9.282 -0.0199  0.5538  0.6157
   63CHL1   H2A 7116   1.134   5.597   9.334  0.0793  1.2372  0.9701
   63CHL1   H2B 7117   0.966   5.571   9.326 -0.7404  1.9923  1.5310
   63CHL1   C20 7118   0.827   5.451   8.387 -0.1979 -0.0801 -0.5111
   63CHL1   H20 7119   0.726   5.418   8.420 -0.4462  0.0541 -1.1368
   63CHL1   C21 7120   0.919   5.329   8.426  0.0290  0.1772  0.4072
   63CHL1  H21A 7121   0.872   5.269   8.507 -0.0507  2.0882  1.8477
   63CHL1  H21B 7122   1.017   5.361   8.467  0.3633 -0.4729  0.1333
   63CHL1  H21C 7123   0.942   5.259   8.342  0.8978 -2.5751  2.7558
   63CHL1   C22 7124   0.819   5.485   8.233  0.3308 -0.2391 -0.3736
   63CHL1  H22A 7125   0.733   5.554   8.217 -0.3383 -1.0646 -0.3842
   63CHL1  H22B 7126   0.918   5.532   8.211 -0.0189  0.5042 -0.3768
   63CHL1   C23 7127   0.792   5.372   8.129 -0.8734  0.2293  0.3442
   63CHL1  H23A 7128   0.864   5.290   8.148 -0.6264  0.1691 -0.7498
   63CHL1  H23B 7129   0.685   5.342   8.140 -1.1350  0.3837 -1.3903
   63CHL1   C24 7130   0.801   5.422   7.982 -0.7835  0.4142 -0.0124
   63CHL1  H24A 7131   0.733   5.508   7.968  0.8509  1.4592 -2.0378
   63CHL1  H24B 7132   0.906   5.456   7.966 -1.0354  1.3778  0.3775
   63CHL1   C25 7133   0.765   5.319   7.872  0.3170  0.1620 -0.2028
   63CHL1   H25 7134   0.777   5.362   7.770 -1.6283  0.4293 -0.3574
   63CHL1   C26 7135   0.868   5.204   7.872  0.1144  0.0067 -0.1843
   63CHL1  H26A 7136   0.965   5.234   7.827 -0.0049  0.3427 -0.2210
   63CHL1  H26B 7137   0.888   5.166   7.975  1.9038  0.4253 -0.3421
   63CHL1  H26C 7138   0.838   5.127   7.798  1.2210 -0.2345 -0.3938
   63CHL1   C27 7139   0.621   5.280   7.877  0.1983  0.7303  0.2791
   63CHL1  H27A 7140   0.548   5.362   7.866 -2.5576 -1.6897 -0.8282
   63CHL1  H27B 7141   0.603   5.198   7.804  1.2958 -0.1118  0.9079
   63CHL1  H27C 7142   0.601   5.238   7.978 -0.4316  0.6899  0.1426
   64CHL1    C3 7143   5.879   5.125   9.644  0.6598  0.0212 -0.4559
   64CHL1    H3 7144   5.815   5.035   9.635  0.0531  0.4595 -0.6133
   64CHL1    O3 7145   5.871   5.176   9.776 -0.2684 -0.0637 -0.5647
   64CHL1   H3' 7146   5.911   5.102   9.822 -1.0711 -1.8217 -2.5074
   64CHL1    C4 7147   6.022   5.105   9.606 -0.6401  0.5725  0.0422
   64CHL1   H4A 7148   6.064   5.208   9.614  0.4253  0.4752 -2.8799
   64CHL1   H4B 7149   6.079   5.033   9.668  1.1037  0.7334 -1.2846
   64CHL1    C5 7150   6.041   5.065   9.458 -0.5329 -0.3428  0.0409
   64CHL1    C6 7151   6.105   4.949   9.421  0.2968  0.4296 -0.5460
   64CHL1    H6 7152   6.156   4.886   9.495  2.7189  1.3335 -1.3547
   64CHL1    C7 7153   6.126   4.914   9.273  1.1326 -0.2537 -0.1194
   64CHL1   H7A 7154   6.234   4.893   9.261  1.4351  0.6595  0.8689
   64CHL1   H7B 7155   6.065   4.823   9.254  0.2597 -0.4886  3.2351
   64CHL1    C8 7156   6.084   5.023   9.172  0.9033 -0.9544 -0.1148
   64CHL1    H8 7157   6.172   5.091   9.173  0.3036 -0.1674 -0.3373
   64CHL1   C14 7158   6.062   4.960   9.042 -0.4200 -0.2970  0.8270
   64CHL1   H14 7159   5.977   4.889   9.034  1.0178 -1.9062 -1.2885
   64CHL1   C15 7160   6.172   4.871   8.982  0.2426  0.9821  0.3059
   64CHL1  H15A 7161   6.274   4.914   8.991  1.6820 -1.3241 -2.9834
   64CHL1  H15B 7162   6.157   4.770   9.026 -3.7893 -0.0237 -2.7942
   64CHL1   C16 7163   6.136   4.854   8.834 -0.2005 -0.4336  0.8698
   64CHL1  H16A 7164   6.224   4.876   8.769 -0.7401  0.9029  0.5472
   64CHL1  H16B 7165   6.090   4.756   8.812 -1.5949 -0.1121  2.2186
   64CHL1   C17 7166   6.030   4.959   8.803 -0.1730 -0.9822  0.5077
   64CHL1   H17 7167   5.929   4.911   8.803 -0.3118 -0.7438 -0.9161
   64CHL1   C13 7168   6.038   5.060   8.930 -0.1323  0.2499  0.3958
   64CHL1   C18 7169   6.162   5.149   8.902 -0.2115 -0.5259  0.0039
   64CHL1  H18A 7170   6.258   5.098   8.876  0.6736  0.8134  0.5176
   64CHL1  H18B 7171   6.142   5.224   8.822  1.5647 -0.6641 -0.6134
   64CHL1  H18C 7172   6.192   5.201   8.995 -0.3138  1.8414 -1.2107
   64CHL1   C12 7173   5.908   5.136   8.973 -0.2145 -0.0636  0.7498
   64CHL1  H12A 7174   5.893   5.218   8.899  1.1963 -1.3568 -1.0635
   64CHL1  H12B 7175   5.817   5.072   8.973 -1.3276  1.4348  0.0209
   64CHL1   C11 7176   5.924   5.202   9.110 -0.1849 -0.3651  0.2893
   64CHL1  H11A 7177   6.004   5.279   9.102 -2.0364  1.4816 -1.4383
   64CHL1  H11B 7178   5.827   5.255   9.125  0.9163  1.7801  0.1918
   64CHL1    C9 7179   5.960   5.096   9.216  0.1509 -0.1855  1.1263
   64CHL1    H9 7180   5.875   5.025   9.209  0.6103 -0.5678 -1.5022
   64CHL1   C10 7181   5.976   5.164   9.360  0.1482 -0.8587 -0.5623
   64CHL1   C19 7182   6.052   5.300   9.351  1.1673  0.7376 -0.7414
   64CHL1  H19A 7183   5.986   5.379   9.310  0.3563 -0.4386 -1.7861
   64CHL1  H19B 7184   6.073   5.339   9.453 -0.7829  0.4834 -0.1909
   64CHL1  H19C 7185   6.149   5.293   9.299  1.9167  1.4245  0.5033
   64CHL1    C1 7186   5.831   5.202   9.411  0.4496 -0.5328  0.0486
   64CHL1   H1A 7187   5.782   5.280   9.347  1.4992  1.4858  1.5925
   64CHL1   H1B 7188   5.774   5.108   9.394 -0.1568 -0.2049  0.2185
   64CHL1    C2 7189   5.812   5.238   9.564  0.1922 -0.0186  0.3211
   64CHL1   H2A 7190   5.703   5.242   9.580 -0.1384 -1.2259 -1.4239
   64CHL1   H2B 7191   5.865   5.335   9.584  0.9274 -0.1039 -1.0858
   64CHL1   C20 7192   6.043   5.025   8.659  0.5497 -0.2536 -0.2130
   64CHL1   H20 7193   6.145   5.070   8.655  0.4569 -0.1412 -1.9361
   64CHL1   C21 7194   5.933   5.135   8.634 -0.4752  0.1316  0.3933
   64CHL1  H21A 7195   5.934   5.172   8.529 -1.4165 -0.8015  0.0348
   64CHL1  H21B 7196   5.951   5.215   8.709 -0.3337 -0.3686  0.8977
   64CHL1  H21C 7197   5.831   5.094   8.650 -0.5963  0.3039  0.0841
   64CHL1   C22 7198   6.022   4.917   8.556 -0.3321  0.2519  0.6548
   64CHL1  H22A 7199   6.090   4.833   8.581 -0.7657  0.0724  1.2441
   64CHL1  H22B 7200   5.919   4.881   8.536  0.4874 -1.8421 -0.1025
   64CHL1   C23 7201   6.071   4.966   8.413 -0.3077 -0.2504  1.3717
   64CHL1  H23A 7202   6.007   5.055   8.392  0.3577  0.5507  2.6016
   64CHL1  H23B 7203   6.177   4.998   8.412 -0.7682  1.3935  0.1840
   64CHL1   C24 7204   6.057   4.858   8.302 -0.1283  0.0601  0.0780
   64CHL1  H24A 7205   6.125   4.773   8.323  0.3880 -0.0851 -1.9859
   64CHL1  H24B 7206   5.956   4.812   8.315  1.5054 -3.9196 -0.0309
   64CHL1   C25 7207   6.084   4.918   8.163 -0.4321  0.3624  0.2133
   64CHL1   H25 7208   6.179   4.974   8.157 -0.9274  1.1067 -1.0343
   64CHL1   C26 7209   6.105   4.799   8.068 -0.1861  0.3034  0.6873
   64CHL1  H26A 7210   6.189   4.736   8.105  2.0495  1.0915 -2.5424
   64CHL1  H26B 7211   6.011   4.741   8.062  0.1474 -0.0995 -1.4719
   64CHL1  H26C 7212   6.141   4.830   7.967  0.4112 -2.5053 -0.0453
   64CHL1   C27 7213   5.984   5.008   8.110 -0.6813  0.0604 -0.6081
   64CHL1  H27A 7214   5.996   5.032   8.002 -1.1300  0.8589 -0.4882
   64CHL1  H27B 7215   5.880   4.972   8.123 -0.7125 -0.1850 -1.4690
   64CHL1  H27C 7216   5.990   5.108   8.159 -0.2659 -0.0284 -0.4726
   65CHL1    C3 7217   1.247   3.358   9.791  0.5807  0.6788  0.6847
   65CHL1    H3 7218   1.279   3.252   9.808  1.0605  1.0937  2.6187
   65CHL1    O3 7219   1.219   3.401   9.920  0.0041 -0.1743  0.3133
   65CHL1   H3' 7220   1.126   3.393   9.942  0.2120  1.7502  2.2794
   65CHL1    C4 7221   1.360   3.439   9.725 -0.1813 -0.0426 -0.4249
   65CHL1   H4A 7222   1.332   3.546   9.729  0.2709  0.0357  0.8299
   65CHL1   H4B 7223   1.451   3.431   9.788  0.1218 -0.4406 -0.9063
   65CHL1    C5 7224   1.393   3.408   9.583 -0.5133  0.1459 -0.2355
   65CHL1    C6 7225   1.515   3.379   9.537 -0.5076  0.0242  0.1121
   65CHL1    H6 7226   1.606   3.381   9.598  0.2443 -0.9198 -0.9384
   65CHL1    C7 7227   1.556   3.364   9.392 -0.3369 -0.2375  0.1354
   65CHL1   H7A 7228   1.642   3.429   9.367 -1.8689  1.3391 -1.3537
   65CHL1   H7B 7229   1.597   3.261   9.383  1.8191  0.4372  1.5827
   65CHL1    C8 7230   1.443   3.399   9.291  0.2035  0.0363 -0.1873
   65CHL1    H8 7231   1.450   3.509   9.282  2.4219 -0.1219 -1.1576
   65CHL1   C14 7232   1.473   3.326   9.157 -0.1390  0.0500  0.7073
   65CHL1   H14 7233   1.476   3.217   9.178  0.0663 -0.0428  0.2008
   65CHL1   C15 7234   1.617   3.346   9.092 -0.3322  1.1124 -0.1646
   65CHL1  H15A 7235   1.641   3.455   9.097 -1.7961  1.6043 -2.4069
   65CHL1  H15B 7236   1.692   3.278   9.137  1.4339  0.5913 -3.5709
   65CHL1   C16 7237   1.594   3.299   8.946 -0.5578  0.0123 -0.4400
   65CHL1  H16A 7238   1.631   3.388   8.891  1.8594 -0.2963  0.5745
   65CHL1  H16B 7239   1.643   3.202   8.922 -2.7182 -1.1646 -0.2956
   65CHL1   C17 7240   1.443   3.277   8.934 -1.3398  0.4257 -0.0501
   65CHL1   H17 7241   1.428   3.168   8.952  1.6905  0.0730  0.9456
   65CHL1   C13 7242   1.369   3.350   9.050 -0.0392 -0.1583  0.0503
   65CHL1   C18 7243   1.368   3.502   9.027  0.0650 -0.4430  0.0179
   65CHL1  H18A 7244   1.359   3.557   9.123  0.8643 -1.8768  0.9467
   65CHL1  H18B 7245   1.450   3.540   8.963 -0.9660  1.4349 -0.2550
   65CHL1  H18C 7246   1.280   3.527   8.963 -0.0553  1.3462  0.8182
   65CHL1   C12 7247   1.234   3.290   9.107  0.4920  0.0698  0.3188
   65CHL1  H12A 7248   1.148   3.307   9.038  1.4609  0.6827 -0.7654
   65CHL1  H12B 7249   1.239   3.180   9.127 -2.1517 -0.2168 -0.2302
   65CHL1   C11 7250   1.201   3.364   9.242  0.8024 -0.2686 -0.2075
   65CHL1  H11A 7251   1.193   3.471   9.213  0.5425  0.1142  1.1590
   65CHL1  H11B 7252   1.097   3.340   9.271  1.1736  0.9395  2.4238
   65CHL1    C9 7253   1.310   3.351   9.350 -0.2408  0.0654  0.0089
   65CHL1    H9 7254   1.320   3.242   9.367  1.3842  0.0665 -0.7658
   65CHL1   C10 7255   1.271   3.410   9.487  0.2684  0.4096 -0.7547
   65CHL1   C19 7256   1.230   3.560   9.468 -0.7687 -0.0919 -1.4504
   65CHL1  H19A 7257   1.196   3.602   9.565  0.0336 -0.3008 -1.0750
   65CHL1  H19B 7258   1.311   3.624   9.429  0.8926 -1.4924 -0.4602
   65CHL1  H19C 7259   1.139   3.563   9.404 -1.2602  1.4423 -0.7142
   65CHL1    C1 7260   1.150   3.330   9.551  0.1346 -0.7301  0.3055
   65CHL1   H1A 7261   1.058   3.350   9.493  1.8387 -0.1046 -2.3561
   65CHL1   H1B 7262   1.177   3.223   9.537  0.8538 -0.3007 -1.8339
   65CHL1    C2 7263   1.130   3.366   9.698  0.5596 -0.0212 -0.0398
   65CHL1   H2A 7264   1.048   3.307   9.745 -0.9089  1.6670 -0.3838
   65CHL1   H2B 7265   1.099   3.472   9.699  1.6882  0.3233  1.2451
   65CHL1   C20 7266   1.389   3.308   8.786 -0.3665  0.3461 -0.8073
   65CHL1   H20 7267   1.397   3.419   8.783 -1.5695  0.4637 -0.1255
   65CHL1   C21 7268   1.242   3.262   8.769 -0.3944  0.0354  0.7199
   65CHL1  H21A 7269   1.164   3.322   8.820 -0.2166  1.8900 -1.0799
   65CHL1  H21B 7270   1.235   3.156   8.803 -1.4977 -0.1923 -0.1918
   65CHL1  H21C 7271   1.227   3.267   8.659 -2.0044  2.1947  0.9795
   65CHL1   C22 7272   1.476   3.242   8.674  0.2401 -0.7313  0.9283
   65CHL1  H22A 7273   1.583   3.270   8.687 -0.1671  1.4541 -0.1276
   65CHL1  H22B 7274   1.457   3.133   8.686 -0.0344 -0.6074  1.7383
   65CHL1   C23 7275   1.460   3.291   8.528  0.5974 -0.1167  0.2354
   65CHL1  H23A 7276   1.358   3.268   8.489 -0.0793  0.2592  1.7231
   65CHL1  H23B 7277   1.474   3.401   8.532  1.3946 -0.2180  0.3017
   65CHL1   C24 7278   1.555   3.229   8.422 -0.2301  0.7007 -0.8081
   65CHL1  H24A 7279   1.658   3.235   8.463 -0.0383  1.0568 -1.3223
   65CHL1  H24B 7280   1.519   3.125   8.407 -2.4490  1.3670 -0.4592
   65CHL1   C25 7281   1.569   3.303   8.289 -0.3354  0.3274 -0.5395
   65CHL1   H25 7282   1.473   3.356   8.274 -2.0528 -2.8226 -1.4796
   65CHL1   C26 7283   1.683   3.411   8.309 -0.3490  0.0550  0.9026
   65CHL1  H26A 7284   1.710   3.452   8.209  0.0337 -0.6925  0.6892
   65CHL1  H26B 7285   1.642   3.488   8.377 -2.2039 -0.9247  0.9604
   65CHL1  H26C 7286   1.775   3.372   8.358  0.2072  1.5234  1.0881
   65CHL1   C27 7287   1.600   3.203   8.181  0.0140  0.6873 -0.8454
   65CHL1  H27A 7288   1.529   3.118   8.180  0.3201  0.4263 -1.6136
   65CHL1  H27B 7289   1.605   3.261   8.086 -1.3014  1.1203 -0.6734
   65CHL1  H27C 7290   1.699   3.156   8.200  0.3795  1.5196 -0.6641
   66CHL1    C3 7291   6.603   1.479   9.685  0.0726 -0.4239  0.4558
   66CHL1    H3 7292   6.707   1.467   9.648  0.1251  2.2643 -0.4627
   66CHL1    O3 7293   6.605   1.525   9.820  0.0135  0.0196 -0.3773
   66CHL1   H3' 7294   6.659   1.460   9.866 -0.5648 -1.1692 -1.2939
   66CHL1    C4 7295   6.525   1.572   9.598 -0.1411  0.3468 -0.4631
   66CHL1   H4A 7296   6.421   1.587   9.636 -0.3512  1.7751 -1.5145
   66CHL1   H4B 7297   6.578   1.669   9.598 -0.3329  0.4737  1.0023
   66CHL1    C5 7298   6.520   1.511   9.458 -0.0268 -0.2808 -0.1642
   66CHL1    C6 7299   6.568   1.581   9.353 -0.1998  1.0693 -0.4014
   66CHL1    H6 7300   6.626   1.672   9.376  0.7978  0.0847  1.1390
   66CHL1    C7 7301   6.566   1.534   9.208  0.7922 -0.4648  0.0104
   66CHL1   H7A 7302   6.531   1.619   9.144 -0.7762 -0.0183  1.3753
   66CHL1   H7B 7303   6.668   1.508   9.174  0.8173 -0.6053  0.1953
   66CHL1    C8 7304   6.475   1.408   9.191 -0.3672  0.0595 -0.0927
   66CHL1    H8 7305   6.371   1.446   9.192  0.0081  1.2384 -1.3981
   66CHL1   C14 7306   6.510   1.343   9.056 -0.0804  0.4823 -0.4235
   66CHL1   H14 7307   6.615   1.309   9.069 -0.5611 -0.0628  2.8997
   66CHL1   C15 7308   6.511   1.432   8.924  0.5946  0.8242 -1.6760
   66CHL1  H15A 7309   6.426   1.504   8.929 -1.4963 -1.3544 -3.1857
   66CHL1  H15B 7310   6.608   1.484   8.912  0.5224  1.3702 -0.1676
   66CHL1   C16 7311   6.484   1.331   8.813 -0.6398  0.8624  0.0746
   66CHL1  H16A 7312   6.389   1.361   8.764 -0.9425  1.6655  1.1192
   66CHL1  H16B 7313   6.560   1.332   8.731  0.9227 -0.9180  1.4183
   66CHL1   C17 7314   6.464   1.187   8.875 -0.0045 -0.5339  0.0482
   66CHL1   H17 7315   6.564   1.141   8.887  0.0906  0.0956  1.9309
   66CHL1   C13 7316   6.417   1.224   9.017  0.3053 -0.2826  0.2940
   66CHL1   C18 7317   6.272   1.280   8.997 -0.0225  0.2074 -0.3964
   66CHL1  H18A 7318   6.249   1.343   8.908 -0.2234  0.3442 -0.2497
   66CHL1  H18B 7319   6.198   1.200   8.976  0.6615 -0.4480 -0.3231
   66CHL1  H18C 7320   6.240   1.342   9.084  1.0115  0.4203 -0.1514
   66CHL1   C12 7321   6.432   1.119   9.129 -0.3659 -0.3609  0.1353
   66CHL1  H12A 7322   6.366   1.029   9.122  1.2400 -1.6539  0.8900
   66CHL1  H12B 7323   6.539   1.089   9.130  0.0909  1.1585 -0.5982
   66CHL1   C11 7324   6.408   1.177   9.272 -0.5404  0.0303  0.0771
   66CHL1  H11A 7325   6.298   1.194   9.270 -0.6044 -0.2697 -2.5505
   66CHL1  H11B 7326   6.444   1.102   9.347 -1.2732  0.2217  0.6337
   66CHL1    C9 7327   6.495   1.305   9.301  0.0268  0.2558  0.3893
   66CHL1    H9 7328   6.604   1.283   9.301  0.7731  3.4501 -0.5110
   66CHL1   C10 7329   6.463   1.366   9.444 -0.3814 -0.2494 -0.7275
   66CHL1   C19 7330   6.304   1.373   9.465  0.9610 -0.7858  0.5923
   66CHL1  H19A 7331   6.257   1.433   9.384  0.9852 -0.1252  1.0631
   66CHL1  H19B 7332   6.258   1.272   9.463 -0.0140 -0.3960 -2.2702
   66CHL1  H19C 7333   6.283   1.417   9.565 -1.2003  2.0290 -0.9308
   66CHL1    C1 7334   6.549   1.277   9.545 -0.1445 -0.5243 -0.2901
   66CHL1   H1A 7335   6.506   1.175   9.548  0.1989 -0.6541  0.4051
   66CHL1   H1B 7336   6.657   1.265   9.520  0.5869 -0.1890  2.3831
   66CHL1    C2 7337   6.544   1.343   9.684  0.0789  1.0884  0.3370
   66CHL1   H2A 7338   6.610   1.287   9.753  1.8967  3.1085  0.3280
   66CHL1   H2B 7339   6.441   1.335   9.725 -0.2449 -1.7545 -0.7830
   66CHL1   C20 7340   6.390   1.081   8.789  0.3274 -0.0034  0.7831
   66CHL1   H20 7341   6.279   1.090   8.789  0.3700  0.5946  1.6712
   66CHL1   C21 7342   6.424   0.939   8.832  0.2418  0.0105 -0.2332
   66CHL1  H21A 7343   6.421   0.929   8.943 -2.8815  3.1819  0.1566
   66CHL1  H21B 7344   6.526   0.921   8.790  1.1582  1.4570  1.2454
   66CHL1  H21C 7345   6.351   0.876   8.778 -1.5386  0.8655  1.0520
   66CHL1   C22 7346   6.413   1.098   8.640 -0.2708  0.1219  0.0476
   66CHL1  H22A 7347   6.388   1.203   8.617 -0.4917 -0.3288 -1.9761
   66CHL1  H22B 7348   6.518   1.081   8.610  0.1090  2.5495 -0.1603
   66CHL1   C23 7349   6.313   1.009   8.556 -0.3238 -0.2574  0.0224
   66CHL1  H23A 7350   6.336   0.902   8.574  1.1391  0.2523  1.4366
   66CHL1  H23B 7351   6.208   1.031   8.583  0.4275  3.1906  0.6342
   66CHL1   C24 7352   6.333   1.033   8.402 -0.6598  0.2973 -0.2374
   66CHL1  H24A 7353   6.299   1.135   8.377  1.8475  1.6601  1.4828
   66CHL1  H24B 7354   6.439   1.011   8.376 -0.7066  1.2492 -1.2715
   66CHL1   C25 7355   6.250   0.935   8.312  0.0426  0.1869 -0.1876
   66CHL1   H25 7356   6.143   0.934   8.343  0.1947 -1.1238  0.3690
   66CHL1   C26 7357   6.258   0.995   8.169 -0.2242  0.4954 -0.5454
   66CHL1  H26A 7358   6.360   1.035   8.153  0.4267 -0.5236  0.7975
   66CHL1  H26B 7359   6.235   0.917   8.093  0.7042 -0.6579  0.3098
   66CHL1  H26C 7360   6.193   1.083   8.154  0.8097  1.3538 -0.1180
   66CHL1   C27 7361   6.301   0.791   8.323 -0.0233 -0.6419 -0.1675
   66CHL1  H27A 7362   6.252   0.725   8.248  0.2936 -0.3211 -0.6695
   66CHL1  H27B 7363   6.409   0.776   8.302 -0.6091 -3.3686 -1.7714
   66CHL1  H27C 7364   6.266   0.746   8.418 -0.4191  0.2624  0.1281
   67CHL1    C3 7365   3.351   1.505  10.337  0.0516  0.2068  0.0220
   67CHL1    H3 7366   3.292   1.431  10.278 -0.1881  0.4760 -0.0784
   67CHL1    O3 7367   3.342   1.478  10.478 -0.2409 -0.1080  0.6137
   67CHL1   H3' 7368   3.249   1.463  10.493 -0.0021 -0.9477  1.2980
   67CHL1    C4 7369   3.495   1.489  10.300  0.0372  0.3123 -0.2591
   67CHL1   H4A 7370   3.554   1.565  10.356 -0.3290  0.4928 -0.1149
   67CHL1   H4B 7371   3.532   1.389  10.329 -1.3224 -0.0536  0.3097
   67CHL1    C5 7372   3.520   1.521  10.151 -0.1761 -0.2747  0.1803
   67CHL1    C6 7373   3.568   1.429  10.071 -0.3792  0.3950 -0.0360
   67CHL1    H6 7374   3.591   1.327  10.106 -3.8287  0.1530  2.0461
   67CHL1    C7 7375   3.589   1.440   9.921 -0.5121 -0.7452  0.2216
   67CHL1   H7A 7376   3.686   1.396   9.888 -0.6991 -1.6639  0.8576
   67CHL1   H7B 7377   3.501   1.397   9.869 -1.7401  1.8289  0.0150
   67CHL1    C8 7378   3.590   1.591   9.874  0.2649 -0.4725  0.3543
   67CHL1    H8 7379   3.683   1.640   9.909  0.0156 -0.7569  1.4680
   67CHL1   C14 7380   3.563   1.601   9.723 -0.5713  0.3052 -0.3789
   67CHL1   H14 7381   3.464   1.553   9.710 -0.9977  1.0937 -0.1239
   67CHL1   C15 7382   3.652   1.512   9.634  0.4930  0.3433 -0.1766
   67CHL1  H15A 7383   3.759   1.526   9.663  0.0806  2.1970  0.5906
   67CHL1  H15B 7384   3.624   1.405   9.636  0.1183  0.4285  1.9304
   67CHL1   C16 7385   3.632   1.576   9.494 -0.0447 -0.2796  0.3127
   67CHL1  H16A 7386   3.727   1.626   9.465 -0.2865  0.7246  1.1813
   67CHL1  H16B 7387   3.603   1.499   9.419 -2.4441  2.8703 -2.3000
   67CHL1   C17 7388   3.531   1.700   9.504 -0.3111  0.0349  0.5912
   67CHL1   H17 7389   3.432   1.653   9.486 -0.1504  0.2325 -0.8588
   67CHL1   C13 7390   3.550   1.740   9.651  0.3966  0.1285  0.1227
   67CHL1   C18 7391   3.676   1.815   9.669 -0.9334 -0.0503 -0.1246
   67CHL1  H18A 7392   3.665   1.912   9.617 -2.9743  0.0872  0.5086
   67CHL1  H18B 7393   3.701   1.837   9.776 -0.4556  3.2053 -0.7897
   67CHL1  H18C 7394   3.764   1.764   9.624 -0.9847 -0.6411  0.4229
   67CHL1   C12 7395   3.427   1.805   9.724  0.7177 -0.1722  0.2310
   67CHL1  H12A 7396   3.433   1.911   9.691  1.4555 -0.5972 -1.0800
   67CHL1  H12B 7397   3.332   1.756   9.693  0.8475  0.0905 -0.6202
   67CHL1   C11 7398   3.445   1.804   9.881  0.8463  0.0271 -0.0158
   67CHL1  H11A 7399   3.530   1.875   9.892 -0.1832  1.2216  0.3752
   67CHL1  H11B 7400   3.348   1.840   9.920  0.2907 -2.0713  0.6558
   67CHL1    C9 7401   3.473   1.667   9.947  0.3369 -0.1099  0.0586
   67CHL1    H9 7402   3.385   1.607   9.918  0.0426 -0.5442  1.7562
   67CHL1   C10 7403   3.473   1.665  10.106  0.6437 -0.3211  0.0639
   67CHL1   C19 7404   3.579   1.765  10.164 -0.0145 -0.7977  0.3874
   67CHL1  H19A 7405   3.533   1.866  10.163 -0.3130 -0.9299  0.6588
   67CHL1  H19B 7406   3.615   1.746  10.267  0.0429  0.6553  0.6576
   67CHL1  H19C 7407   3.668   1.772  10.097 -1.9987 -1.4071 -2.4986
   67CHL1    C1 7408   3.328   1.694  10.159  0.7607  0.7486  0.0230
   67CHL1   H1A 7409   3.297   1.801  10.159  1.2516  0.8932 -0.8230
   67CHL1   H1B 7410   3.254   1.633  10.103  2.7923 -0.1170 -1.8251
   67CHL1    C2 7411   3.303   1.652  10.308 -0.3964 -0.0283  0.4380
   67CHL1   H2A 7412   3.195   1.658  10.336 -0.6926  1.5038 -0.9371
   67CHL1   H2B 7413   3.367   1.721  10.367 -2.6812  0.0460  3.0806
   67CHL1   C20 7414   3.548   1.804   9.393 -0.0331  0.2711  0.1498
   67CHL1   H20 7415   3.635   1.866   9.422 -0.9536  1.5507  0.2995
   67CHL1   C21 7416   3.422   1.892   9.389  0.4681  0.5386  0.1706
   67CHL1  H21A 7417   3.428   1.965   9.305  2.4692 -1.4539 -1.5408
   67CHL1  H21B 7418   3.420   1.966   9.473  0.3673  1.7910 -0.8995
   67CHL1  H21C 7419   3.326   1.837   9.381 -0.1422  1.6768 -0.7149
   67CHL1   C22 7420   3.581   1.747   9.252  0.4233 -0.0472  0.5265
   67CHL1  H22A 7421   3.675   1.687   9.256  0.7105  0.1041 -2.1763
   67CHL1  H22B 7422   3.494   1.683   9.226  1.0990 -1.3898  1.4161
   67CHL1   C23 7423   3.614   1.853   9.149  0.1413  0.0100  0.2193
   67CHL1  H23A 7424   3.530   1.925   9.139  0.5497  0.7530  1.8594
   67CHL1  H23B 7425   3.697   1.916   9.188 -0.8032 -0.3513  3.0285
   67CHL1   C24 7426   3.666   1.802   9.017  0.0991  0.2380  0.2380
   67CHL1  H24A 7427   3.747   1.726   9.031  0.4696  0.7366  0.8587
   67CHL1  H24B 7428   3.584   1.748   8.965 -0.9383 -0.2089  2.2161
   67CHL1   C25 7429   3.717   1.918   8.927 -0.4133  0.4754  1.0020
   67CHL1   H25 7430   3.808   1.965   8.970 -1.3819  1.9389  1.5578
   67CHL1   C26 7431   3.762   1.850   8.792 -0.0890 -0.0450  0.2240
   67CHL1  H26A 7432   3.668   1.806   8.751  0.4252 -0.0203 -1.0159
   67CHL1  H26B 7433   3.794   1.935   8.729 -2.8317  1.0912  0.2369
   67CHL1  H26C 7434   3.837   1.768   8.799 -0.5489 -0.5192 -0.3078
   67CHL1   C27 7435   3.612   2.026   8.902 -0.0122  0.0938 -0.7309
   67CHL1  H27A 7436   3.598   2.085   8.996  2.0284  1.8859 -1.4541
   67CHL1  H27B 7437   3.653   2.110   8.842  0.9193  0.7534  0.7767
   67CHL1  H27C 7438   3.510   1.987   8.882 -0.5451  0.2062  1.4114
   68CHL1    C3 7439   1.434   2.965   9.867 -0.2330  0.3183  0.0030
   68CHL1    H3 7440   1.335   3.014   9.866 -0.2653  0.3592  1.7146
   68CHL1    O3 7441   1.487   2.965  10.001 -0.5269  0.3134 -0.1818
   68CHL1   H3' 7442   1.531   2.880  10.002  2.0424  1.4231 -2.6754
   68CHL1    C4 7443   1.442   2.820   9.815  0.0398  0.3083 -0.2372
   68CHL1   H4A 7444   1.541   2.777   9.840 -0.3403 -0.7760 -0.5323
   68CHL1   H4B 7445   1.372   2.761   9.876 -1.2878 -0.4580 -2.3720
   68CHL1    C5 7446   1.409   2.815   9.668 -0.3217 -0.3471  0.3812
   68CHL1    C6 7447   1.304   2.751   9.634  0.8004  0.3789  0.3196
   68CHL1    H6 7448   1.242   2.689   9.701  0.6055  0.8327  0.5628
   68CHL1    C7 7449   1.271   2.725   9.488  0.5613  0.9034 -0.5644
   68CHL1   H7A 7450   1.242   2.618   9.474 -0.6255  0.8994  1.4853
   68CHL1   H7B 7451   1.177   2.774   9.456  0.8990  2.6500  0.9751
   68CHL1    C8 7452   1.389   2.756   9.395 -1.3923 -0.3566  1.1286
   68CHL1    H8 7453   1.446   2.663   9.412 -0.4598  0.1530  0.9090
   68CHL1   C14 7454   1.348   2.764   9.245 -0.1886 -0.3042 -0.4328
   68CHL1   H14 7455   1.278   2.848   9.224  0.0576 -0.3536 -1.5060
   68CHL1   C15 7456   1.269   2.638   9.192 -0.1255 -0.1926 -0.1195
   68CHL1  H15A 7457   1.319   2.547   9.232 -0.3819  0.2889  1.3147
   68CHL1  H15B 7458   1.164   2.644   9.226 -0.0435 -1.0502  0.3221
   68CHL1   C16 7459   1.294   2.641   9.038 -0.2609  0.0359 -0.0549
   68CHL1  H16A 7460   1.335   2.541   9.013 -0.5699  0.0050 -0.4489
   68CHL1  H16B 7461   1.204   2.658   8.975  1.6410  2.6056 -2.3556
   68CHL1   C17 7462   1.400   2.757   9.013  0.0201  0.5740 -0.3812
   68CHL1   H17 7463   1.353   2.857   9.000 -0.0480  0.6597  0.4628
   68CHL1   C13 7464   1.467   2.779   9.153 -0.6161 -0.2614  0.0749
   68CHL1   C18 7465   1.566   2.661   9.166 -0.0392  0.8463  0.6414
   68CHL1  H18A 7466   1.601   2.656   9.271 -3.0674  0.6194  1.7530
   68CHL1  H18B 7467   1.524   2.559   9.149  2.0237  0.0372  0.0368
   68CHL1  H18C 7468   1.650   2.668   9.094 -0.5192 -1.1214 -0.1834
   68CHL1   C12 7469   1.530   2.914   9.175  0.2064 -0.0744  0.6190
   68CHL1  H12A 7470   1.626   2.928   9.120  0.7663  0.6480  1.7388
   68CHL1  H12B 7471   1.470   2.998   9.135  0.0706 -0.6741 -0.4749
   68CHL1   C11 7472   1.571   2.934   9.324  0.0191 -0.1882 -0.4286
   68CHL1  H11A 7473   1.661   2.873   9.344  0.2498  0.2576 -0.1023
   68CHL1  H11B 7474   1.614   3.034   9.343 -1.2396  0.6125 -1.5980
   68CHL1    C9 7475   1.459   2.886   9.425 -0.3990  0.0565  0.4692
   68CHL1    H9 7476   1.372   2.955   9.423 -1.7484 -1.3891  3.2849
   68CHL1   C10 7477   1.508   2.890   9.575 -1.0254 -0.9075 -0.6596
   68CHL1   C19 7478   1.649   2.825   9.589  0.0153 -0.2965  0.0802
   68CHL1  H19A 7479   1.643   2.728   9.535 -0.1272  0.5986 -1.5800
   68CHL1  H19B 7480   1.721   2.879   9.525 -0.5928 -0.5562 -0.8455
   68CHL1  H19C 7481   1.694   2.817   9.690  0.8729 -1.4072 -0.3605
   68CHL1    C1 7482   1.511   3.036   9.634 -0.5862 -0.9713  0.3214
   68CHL1   H1A 7483   1.590   3.099   9.587  0.1427 -0.2254  2.4116
   68CHL1   H1B 7484   1.412   3.080   9.608 -0.0872  0.2533  0.4079
   68CHL1    C2 7485   1.526   3.050   9.787  0.3812 -0.2486 -0.0061
   68CHL1   H2A 7486   1.512   3.156   9.817  0.5747 -0.1229 -0.3540
   68CHL1   H2B 7487   1.631   3.020   9.804  1.1857  0.2746 -3.2901
   68CHL1   C20 7488   1.476   2.734   8.882  0.4012 -1.0353 -0.2812
   68CHL1   H20 7489   1.540   2.643   8.882 -0.1387 -1.4619 -1.9122
   68CHL1   C21 7490   1.558   2.859   8.840  0.0829 -1.1335  0.2228
   68CHL1  H21A 7491   1.602   2.840   8.740  2.4727 -3.1343  1.5341
   68CHL1  H21B 7492   1.642   2.869   8.912 -1.5643 -1.5927  2.3057
   68CHL1  H21C 7493   1.495   2.950   8.836 -0.0974 -1.2708 -0.1195
   68CHL1   C22 7494   1.377   2.697   8.771  0.2867  0.1138 -0.5725
   68CHL1  H22A 7495   1.449   2.663   8.693  1.8087 -0.7338  1.1213
   68CHL1  H22B 7496   1.317   2.607   8.796 -0.0013  0.3068 -0.5589
   68CHL1   C23 7497   1.278   2.811   8.733 -0.4950 -0.4219 -0.6282
   68CHL1  H23A 7498   1.205   2.828   8.815  2.0174  1.6336  1.3289
   68CHL1  H23B 7499   1.332   2.906   8.717  1.8556 -1.3840  1.0121
   68CHL1   C24 7500   1.209   2.771   8.600  0.7300 -0.5099 -0.8611
   68CHL1  H24A 7501   1.288   2.755   8.523  0.3508 -1.2388 -1.1060
   68CHL1  H24B 7502   1.150   2.677   8.607 -1.9368  1.0754 -0.8982
   68CHL1   C25 7503   1.105   2.871   8.553  0.7236  0.2483  0.7192
   68CHL1   H25 7504   1.165   2.955   8.512  1.6099 -1.6510 -2.2687
   68CHL1   C26 7505   1.029   2.814   8.427 -0.2881 -0.3379 -0.5613
   68CHL1  H26A 7506   1.101   2.818   8.343  1.5544  1.2152  0.9803
   68CHL1  H26B 7507   0.991   2.713   8.453 -0.4398 -0.6634 -2.0071
   68CHL1  H26C 7508   0.952   2.888   8.396  1.8343  1.7691 -1.0856
   68CHL1   C27 7509   1.000   2.904   8.657 -0.2110 -0.5416 -0.1684
   68CHL1  H27A 7510   1.040   2.987   8.719 -0.6198  0.7697 -1.5950
   68CHL1  H27B 7511   0.914   2.954   8.607  1.1370  1.8410 -0.2535
   68CHL1  H27C 7512   0.975   2.812   8.713  1.5174 -0.7812  0.2379
   69CHL1    C3 7513   3.425   6.159   6.578  0.3079 -0.5682  1.0210
   69CHL1    H3 7514   3.416   6.266   6.550 -0.9533 -1.5920 -3.1484
   69CHL1    O3 7515   3.441   6.072   6.464 -0.1163 -0.0722 -0.5226
   69CHL1   H3' 7516   3.354   6.078   6.424 -0.3836 -0.1223  0.0298
   69CHL1    C4 7517   3.531   6.140   6.680 -0.4164  0.5525  0.3709
   69CHL1   H4A 7518   3.550   6.033   6.706 -0.0104  1.0591  2.3425
   69CHL1   H4B 7519   3.622   6.174   6.626 -1.2883  0.8267 -0.9850
   69CHL1    C5 7520   3.513   6.220   6.805  0.0989 -0.1709  0.4873
   69CHL1    C6 7521   3.601   6.323   6.836 -0.1500  0.3893  0.5428
   69CHL1    H6 7522   3.692   6.344   6.777 -1.7533 -0.3408 -2.3694
   69CHL1    C7 7523   3.583   6.395   6.964  0.1007 -1.1608 -0.5078
   69CHL1   H7A 7524   3.676   6.395   7.026  0.3023 -0.7549 -0.8046
   69CHL1   H7B 7525   3.560   6.501   6.941 -0.5816 -1.6943 -2.3949
   69CHL1    C8 7526   3.485   6.328   7.066 -0.0136  0.6875  0.0898
   69CHL1    H8 7527   3.541   6.242   7.110 -0.3933 -1.2203 -2.8247
   69CHL1   C14 7528   3.448   6.426   7.176 -0.6369 -0.1847  0.1040
   69CHL1   H14 7529   3.408   6.519   7.131 -1.6960 -0.2003  0.9595
   69CHL1   C15 7530   3.563   6.485   7.264  1.0641  0.5089 -0.1977
   69CHL1  H15A 7531   3.643   6.412   7.292  1.1204  0.1363 -1.2984
   69CHL1  H15B 7532   3.625   6.553   7.203  1.0257 -0.5168 -1.4233
   69CHL1   C16 7533   3.489   6.554   7.389 -0.6302  0.1607  0.6684
   69CHL1  H16A 7534   3.535   6.522   7.485 -0.5349  0.9895  0.9045
   69CHL1  H16B 7535   3.496   6.663   7.368  0.5985  0.1444  0.9247
   69CHL1   C17 7536   3.343   6.496   7.390 -0.0683  0.3557  0.0755
   69CHL1   H17 7537   3.279   6.575   7.344 -1.8890  0.8452  3.1982
   69CHL1   C13 7538   3.351   6.375   7.288 -0.1621 -0.9495 -0.2663
   69CHL1   C18 7539   3.405   6.246   7.354  0.2812 -0.4261 -0.2353
   69CHL1  H18A 7540   3.324   6.197   7.412  0.1146  0.8871  0.6727
   69CHL1  H18B 7541   3.445   6.169   7.285  0.6092 -0.2056 -0.2931
   69CHL1  H18C 7542   3.494   6.271   7.416 -2.2352  3.3461  2.3053
   69CHL1   C12 7543   3.222   6.348   7.212  0.2505  0.0862 -0.1143
   69CHL1  H12A 7544   3.146   6.319   7.288  0.0774  1.6591  0.3517
   69CHL1  H12B 7545   3.192   6.446   7.171  0.1420  1.3616  2.7676
   69CHL1   C11 7546   3.242   6.247   7.098 -0.1974 -0.2826 -0.0577
   69CHL1  H11A 7547   3.272   6.153   7.151  0.7170  0.3184  0.5237
   69CHL1  H11B 7548   3.142   6.230   7.053 -1.4019  3.9850  0.5986
   69CHL1    C9 7549   3.357   6.282   6.995 -0.6218 -0.4650  0.0349
   69CHL1    H9 7550   3.319   6.374   6.944 -1.1904  0.4087  1.9239
   69CHL1   C10 7551   3.382   6.181   6.882 -0.2784  0.4802 -0.4180
   69CHL1   C19 7552   3.382   6.036   6.942  0.0173 -0.4633 -0.1237
   69CHL1  H19A 7553   3.288   6.012   6.997 -0.9659  1.4889 -0.8441
   69CHL1  H19B 7554   3.407   5.956   6.870 -1.3526 -0.6272 -0.4428
   69CHL1  H19C 7555   3.456   6.036   7.025  1.3239 -2.8973 -1.2114
   69CHL1    C1 7556   3.271   6.193   6.776  0.3840 -0.3912  0.1145
   69CHL1   H1A 7557   3.173   6.170   6.824  0.4965  1.7453  1.5105
   69CHL1   H1B 7558   3.270   6.299   6.743  0.9445 -0.0601  1.1204
   69CHL1    C2 7559   3.290   6.115   6.648 -0.3735  0.7842  0.1238
   69CHL1   H2A 7560   3.209   6.134   6.576 -0.2338 -1.9568 -0.8893
   69CHL1   H2B 7561   3.276   6.006   6.666 -1.7163  1.0537  0.7872
   69CHL1   C20 7562   3.292   6.469   7.529 -0.3516 -1.2116 -0.4914
   69CHL1   H20 7563   3.351   6.389   7.577 -1.8748 -1.4910  1.0286
   69CHL1   C21 7564   3.152   6.422   7.525  0.1195 -0.1560  0.1540
   69CHL1  H21A 7565   3.099   6.426   7.623 -0.7823  0.4884 -0.3419
   69CHL1  H21B 7566   3.146   6.317   7.488 -2.4848 -0.8108  2.1021
   69CHL1  H21C 7567   3.106   6.493   7.453 -0.9419  0.5655  1.5021
   69CHL1   C22 7568   3.299   6.594   7.616  0.2691 -0.8798  0.6552
   69CHL1  H22A 7569   3.407   6.621   7.614 -0.1771  1.9954 -4.6279
   69CHL1  H22B 7570   3.242   6.676   7.565 -1.0167 -1.6891  0.7516
   69CHL1   C23 7571   3.244   6.589   7.754 -0.4453 -0.1521 -0.0848
   69CHL1  H23A 7572   3.133   6.593   7.750 -0.5504 -1.9540  0.4586
   69CHL1  H23B 7573   3.267   6.498   7.812  1.0948  2.1803  3.3032
   69CHL1   C24 7574   3.290   6.705   7.843 -0.3756  0.9171 -0.5010
   69CHL1  H24A 7575   3.397   6.688   7.868  0.7679  4.5229 -2.2554
   69CHL1  H24B 7576   3.287   6.804   7.793 -0.3970  1.3342  0.3262
   69CHL1   C25 7577   3.202   6.713   7.975  0.3193  0.4221 -0.7449
   69CHL1   H25 7578   3.102   6.756   7.957 -0.3794 -0.6177  0.4468
   69CHL1   C26 7579   3.192   6.581   8.051  0.0258 -0.5818 -0.0430
   69CHL1  H26A 7580   3.292   6.541   8.076  0.6264  1.4541  0.9986
   69CHL1  H26B 7581   3.138   6.596   8.147 -1.6252  0.2726 -1.0433
   69CHL1  H26C 7582   3.132   6.518   7.981 -3.0614  2.5532 -0.5209
   69CHL1   C27 7583   3.279   6.813   8.067  0.0928  0.5472 -0.2663
   69CHL1  H27A 7584   3.239   6.798   8.170  0.4664 -1.4271 -0.3623
   69CHL1  H27B 7585   3.385   6.782   8.064  0.1498  0.8194 -1.2752
   69CHL1  H27C 7586   3.262   6.917   8.032 -2.1634  0.1487 -0.5421
   70CHL1    C3 7587   3.478   3.364   6.953  0.5087  0.1271  0.4736
   70CHL1    H3 7588   3.411   3.433   7.009  0.6949  1.7141 -1.1856
   70CHL1    O3 7589   3.409   3.338   6.829  0.0031  0.0024 -0.1382
   70CHL1   H3' 7590   3.478   3.334   6.762  0.8865  0.7764  0.6853
   70CHL1    C4 7591   3.620   3.430   6.943  0.5863 -0.2257 -0.1458
   70CHL1   H4A 7592   3.670   3.369   6.866  1.3931 -1.8783  1.5929
   70CHL1   H4B 7593   3.603   3.531   6.899  0.6875 -0.5319 -0.8982
   70CHL1    C5 7594   3.698   3.442   7.076 -0.5689 -0.5254  0.1661
   70CHL1    C6 7595   3.742   3.561   7.114 -0.1036 -0.0454 -0.5740
   70CHL1    H6 7596   3.717   3.655   7.061 -2.3271 -0.4454 -0.3440
   70CHL1    C7 7597   3.797   3.588   7.248 -0.3763  0.4882 -0.3566
   70CHL1   H7A 7598   3.872   3.670   7.248  0.3312 -0.1391 -1.4558
   70CHL1   H7B 7599   3.720   3.625   7.319  1.0324  0.9262  1.0037
   70CHL1    C8 7600   3.861   3.458   7.304 -0.1376  0.3121 -0.4252
   70CHL1    H8 7601   3.947   3.428   7.241  0.6196 -0.7813  1.0630
   70CHL1   C14 7602   3.908   3.485   7.451 -0.2906  1.0585  0.7455
   70CHL1   H14 7603   3.814   3.520   7.499  0.9072  1.3039  3.0796
   70CHL1   C15 7604   4.008   3.596   7.469 -0.3236  0.4995  0.3713
   70CHL1  H15A 7605   4.094   3.577   7.400  1.0342 -0.4249  2.2448
   70CHL1  H15B 7606   3.978   3.702   7.454  0.7992  0.6432 -1.1516
   70CHL1   C16 7607   4.061   3.570   7.611 -0.5548 -0.2556 -0.0229
   70CHL1  H16A 7608   4.171   3.582   7.608 -0.8401  3.5094 -0.5585
   70CHL1  H16B 7609   4.021   3.651   7.676  0.4726  0.5009 -0.2993
   70CHL1   C17 7610   4.003   3.434   7.658  0.3899  0.2763 -0.0119
   70CHL1   H17 7611   3.914   3.462   7.718 -1.9883  0.7321 -3.4958
   70CHL1   C13 7612   3.957   3.364   7.530  0.3269  0.1476 -0.0785
   70CHL1   C18 7613   4.079   3.300   7.454 -0.1317  0.0561  0.2495
   70CHL1  H18A 7614   4.063   3.298   7.344 -0.1955  0.4580  0.2496
   70CHL1  H18B 7615   4.168   3.364   7.472 -0.0210 -0.0549  0.0949
   70CHL1  H18C 7616   4.095   3.196   7.490 -0.1565 -0.2280 -0.5453
   70CHL1   C12 7617   3.835   3.270   7.545 -0.5072 -0.6802  0.1698
   70CHL1  H12A 7618   3.881   3.185   7.601 -0.8691 -1.6028 -0.9117
   70CHL1  H12B 7619   3.754   3.314   7.607  0.0960 -1.4839  1.5958
   70CHL1   C11 7620   3.789   3.225   7.405 -0.2650  0.1041  0.3615
   70CHL1  H11A 7621   3.875   3.173   7.356  0.9836  1.9553  0.4700
   70CHL1  H11B 7622   3.710   3.147   7.406 -0.0238 -0.2863 -2.2882
   70CHL1    C9 7623   3.747   3.346   7.308 -0.4907 -0.9239  0.6003
   70CHL1    H9 7624   3.668   3.402   7.360  1.0386  1.1296  0.8296
   70CHL1   C10 7625   3.701   3.315   7.162 -1.3510 -0.5119  0.2653
   70CHL1   C19 7626   3.803   3.210   7.110 -0.5532  0.0234  0.1956
   70CHL1  H19A 7627   3.911   3.234   7.125  0.0830 -2.4145 -0.0036
   70CHL1  H19B 7628   3.775   3.111   7.151  1.5254 -0.5314  0.3787
   70CHL1  H19C 7629   3.790   3.203   7.000  1.1431  2.3350 -0.2390
   70CHL1    C1 7630   3.555   3.255   7.161 -0.1360 -0.3343 -0.1034
   70CHL1   H1A 7631   3.544   3.160   7.218  0.1159 -1.9864 -2.6389
   70CHL1   H1B 7632   3.480   3.326   7.203 -1.9280 -1.7408 -0.7674
   70CHL1    C2 7633   3.493   3.231   7.023  0.0591  0.1030 -0.1988
   70CHL1   H2A 7634   3.389   3.197   7.043 -0.6662  2.7011  0.9325
   70CHL1   H2B 7635   3.552   3.159   6.962 -0.1228 -0.4194  0.2366
   70CHL1   C20 7636   4.103   3.360   7.752  0.4740 -0.4052  0.1032
   70CHL1   H20 7637   4.195   3.343   7.694  0.5543  1.6558 -0.4520
   70CHL1   C21 7638   4.054   3.211   7.792  0.5760 -0.0574  0.1564
   70CHL1  H21A 7639   4.132   3.164   7.857  0.5302 -0.8884 -0.3781
   70CHL1  H21B 7640   4.061   3.154   7.697 -1.3250  1.4748 -0.9820
   70CHL1  H21C 7641   3.951   3.210   7.831 -0.0819 -0.7379 -1.4944
   70CHL1   C22 7642   4.139   3.431   7.883  0.1199 -0.2498  0.3846
   70CHL1  H22A 7643   4.187   3.355   7.948 -0.1666  0.8668  1.9662
   70CHL1  H22B 7644   4.198   3.519   7.849 -3.2588  2.2856  0.5947
   70CHL1   C23 7645   4.026   3.493   7.963  0.3230  0.3671  0.3910
   70CHL1  H23A 7646   3.962   3.557   7.898 -0.3767 -1.9224 -1.2940
   70CHL1  H23B 7647   3.964   3.411   8.006  1.0122  0.6215  1.9362
   70CHL1   C24 7648   4.071   3.567   8.086 -0.4663 -0.3412  0.0069
   70CHL1  H24A 7649   3.987   3.568   8.158  0.2819 -1.5727  0.9330
   70CHL1  H24B 7650   4.152   3.509   8.135 -1.1773 -2.4631 -1.1951
   70CHL1   C25 7651   4.112   3.716   8.054  0.2093  0.2292 -0.2452
   70CHL1   H25 7652   4.177   3.713   7.964 -2.7064  0.2685 -2.4665
   70CHL1   C26 7653   3.994   3.797   8.012  0.2956  0.7211 -0.9392
   70CHL1  H26A 7654   3.947   3.754   7.921  1.3484 -1.0238 -0.6892
   70CHL1  H26B 7655   3.923   3.794   8.098  2.1791 -0.7156  0.6571
   70CHL1  H26C 7656   4.039   3.899   8.012  2.3518 -0.0884  1.6545
   70CHL1   C27 7657   4.175   3.785   8.174 -0.3375  0.0270 -0.6955
   70CHL1  H27A 7658   4.274   3.745   8.203 -0.0079  1.7395  0.7178
   70CHL1  H27B 7659   4.173   3.895   8.158 -0.9120  0.2850  0.9432
   70CHL1  H27C 7660   4.106   3.768   8.259 -3.4232  2.3979 -2.4801
   71CHL1    C3 7661   0.868   6.659   6.419 -0.0750 -0.4502 -0.5165
   71CHL1    H3 7662   0.768   6.614   6.435 -0.7092  1.0284 -0.1924
   71CHL1    O3 7663   0.862   6.723   6.292  0.2168  0.3174 -0.6359
   71CHL1   H3' 7664   0.936   6.783   6.293  0.4031  0.3029  3.4360
   71CHL1    C4 7665   0.904   6.765   6.529 -0.2821 -0.3487  0.1823
   71CHL1   H4A 7666   0.997   6.822   6.508  1.7152 -3.3144  0.3265
   71CHL1   H4B 7667   0.825   6.842   6.516  1.0974  1.4896  2.0050
   71CHL1    C5 7668   0.930   6.705   6.667 -0.1032  0.0972 -0.4800
   71CHL1    C6 7669   0.861   6.743   6.777 -0.7111 -0.1341 -0.1113
   71CHL1    H6 7670   0.809   6.839   6.765  0.6914  0.4905 -1.7924
   71CHL1    C7 7671   0.874   6.691   6.916  0.3355 -0.0748  0.1825
   71CHL1   H7A 7672   0.895   6.772   6.988 -1.2830 -0.1118  0.7392
   71CHL1   H7B 7673   0.787   6.643   6.967  1.6832 -0.4118  2.2768
   71CHL1    C8 7674   1.004   6.597   6.928  0.1537 -0.1275  0.3337
   71CHL1    H8 7675   1.085   6.672   6.935  1.0844 -0.9152 -1.5067
   71CHL1   C14 7676   0.999   6.515   7.055 -0.6558  0.1667 -0.8273
   71CHL1   H14 7677   0.913   6.446   7.043 -1.6093  0.8615  1.4257
   71CHL1   C15 7678   0.971   6.586   7.186 -0.3735 -0.3040 -0.6125
   71CHL1  H15A 7679   1.019   6.685   7.179 -1.5771  0.2594 -1.2310
   71CHL1  H15B 7680   0.863   6.606   7.199  0.3734  1.8757  4.9631
   71CHL1   C16 7681   1.025   6.487   7.294  0.5863  0.1920  0.7698
   71CHL1  H16A 7682   1.103   6.543   7.348 -0.5012  2.2667  0.3001
   71CHL1  H16B 7683   0.953   6.441   7.365 -0.2784 -1.3156 -0.9788
   71CHL1   C17 7684   1.101   6.362   7.218 -0.0242  0.0556  0.2043
   71CHL1   H17 7685   1.029   6.281   7.194  2.1881 -1.3481 -2.2032
   71CHL1   C13 7686   1.119   6.426   7.078  0.1911 -0.4654 -0.0307
   71CHL1   C18 7687   1.242   6.517   7.079  0.0763  0.0012  0.1916
   71CHL1  H18A 7688   1.242   6.595   7.158 -0.8429  1.4411 -1.1913
   71CHL1  H18B 7689   1.336   6.458   7.086 -0.1789 -0.2470  1.7990
   71CHL1  H18C 7690   1.265   6.571   6.984  0.7956  0.5773  0.6796
   71CHL1   C12 7691   1.130   6.324   6.955 -0.2362 -0.2190  0.5685
   71CHL1  H12A 7692   1.214   6.252   6.960  0.5476  0.3645 -2.5118
   71CHL1  H12B 7693   1.036   6.264   6.947  0.4898 -1.5199  1.3646
   71CHL1   C11 7694   1.139   6.402   6.822  0.2038  0.2992  0.1915
   71CHL1  H11A 7695   1.233   6.460   6.824  0.5788 -0.1578 -1.6244
   71CHL1  H11B 7696   1.138   6.329   6.738  2.3419  1.0258 -0.5280
   71CHL1    C9 7697   1.021   6.507   6.808 -0.3686 -0.3020 -0.4871
   71CHL1    H9 7698   0.929   6.445   6.800  0.1102 -0.8947 -1.7042
   71CHL1   C10 7699   1.022   6.589   6.671 -0.1344  0.1669 -0.5696
   71CHL1   C19 7700   1.167   6.637   6.649 -0.0453 -0.2239  0.0851
   71CHL1  H19A 7701   1.174   6.688   6.550  3.0628  2.7316  1.6429
   71CHL1  H19B 7702   1.211   6.701   6.728  1.3721 -1.3666  0.2486
   71CHL1  H19C 7703   1.238   6.552   6.640 -2.9200 -2.7465 -0.6933
   71CHL1    C1 7704   0.988   6.488   6.558  0.2003  0.2226 -0.7119
   71CHL1   H1A 7705   1.066   6.409   6.550 -0.2970 -0.1956 -1.5795
   71CHL1   H1B 7706   0.888   6.442   6.571 -0.1699  1.0402 -0.5628
   71CHL1    C2 7707   0.976   6.551   6.416  0.0529 -0.2633 -0.5772
   71CHL1   H2A 7708   0.958   6.466   6.347  1.6034 -2.4766  1.5667
   71CHL1   H2B 7709   1.071   6.595   6.381 -1.1699  2.0209 -1.2145
   71CHL1   C20 7710   1.217   6.305   7.305 -0.2336  0.2297  0.1617
   71CHL1   H20 7711   1.275   6.397   7.328 -0.5952  0.8095 -1.1537
   71CHL1   C21 7712   1.307   6.206   7.230  0.3122  0.4873 -0.3054
   71CHL1  H21A 7713   1.386   6.253   7.168  1.0565  0.1793  0.3803
   71CHL1  H21B 7714   1.243   6.142   7.166  2.3317  0.6696 -2.6707
   71CHL1  H21C 7715   1.362   6.138   7.298  2.2462  1.3047 -0.9579
   71CHL1   C22 7716   1.160   6.242   7.434  0.3509  0.1479  0.4005
   71CHL1  H22A 7717   1.090   6.315   7.480  0.1414  0.1860  0.0202
   71CHL1  H22B 7718   1.099   6.154   7.406  0.6023  0.1875 -0.3015
   71CHL1   C23 7719   1.266   6.213   7.544  0.3294 -0.2507  0.6698
   71CHL1  H23A 7720   1.340   6.138   7.509 -0.7264 -0.7777 -0.4994
   71CHL1  H23B 7721   1.319   6.306   7.574 -1.6729  1.3606 -0.5280
   71CHL1   C24 7722   1.202   6.149   7.671  0.0830 -0.1530 -0.2521
   71CHL1  H24A 7723   1.114   6.214   7.688 -3.1089 -3.7602 -1.5755
   71CHL1  H24B 7724   1.153   6.050   7.661 -3.2558  1.2190  1.1767
   71CHL1   C25 7725   1.305   6.145   7.789  0.1158  0.0402 -0.3677
   71CHL1   H25 7726   1.408   6.116   7.761  1.1630  1.0727  2.1817
   71CHL1   C26 7727   1.325   6.280   7.865 -0.0930  0.3733  0.7729
   71CHL1  H26A 7728   1.411   6.271   7.934 -0.2040 -1.7644  0.6952
   71CHL1  H26B 7729   1.353   6.364   7.797  0.7269  0.9673  1.8174
   71CHL1  H26C 7730   1.228   6.309   7.910  0.3490 -0.3953  2.2579
   71CHL1   C27 7731   1.270   6.033   7.896  0.6632  0.0466 -0.5660
   71CHL1  H27A 7732   1.276   5.933   7.848 -0.2508 -0.1087 -0.3592
   71CHL1  H27B 7733   1.333   6.044   7.987  0.4941 -1.0394 -0.3084
   71CHL1  H27C 7734   1.167   6.053   7.930  1.3826  3.4709 -0.0763
   72CHL1    C3 7735   2.453   6.030   9.447 -0.1628 -0.6619  0.5005
   72CHL1    H3 7736   2.399   6.125   9.430 -1.6358 -1.7031 -0.9763
   72CHL1    O3 7737   2.434   6.008   9.587 -0.0897  0.4659  0.3448
   72CHL1   H3' 7738   2.430   5.912   9.598  1.9421 -0.0037 -2.1100
   72CHL1    C4 7739   2.378   5.921   9.365  0.1469  0.0897 -0.4821
   72CHL1   H4A 7740   2.398   5.820   9.407  1.1405  1.0844  1.5916
   72CHL1   H4B 7741   2.271   5.936   9.391  0.4199 -1.6839  1.9441
   72CHL1    C5 7742   2.396   5.939   9.217 -0.1937 -0.1000  0.9130
   72CHL1    C6 7743   2.287   5.957   9.132 -0.4898 -0.7474  0.3623
   72CHL1    H6 7744   2.182   5.965   9.165 -0.3335  0.3040  0.6486
   72CHL1    C7 7745   2.314   5.981   8.985 -0.3232  0.3638  0.4176
   72CHL1   H7A 7746   2.250   5.910   8.929  0.4134 -0.7967  1.0057
   72CHL1   H7B 7747   2.278   6.079   8.947 -1.0866 -0.9225 -2.4409
   72CHL1    C8 7748   2.457   5.950   8.932  0.1498  0.4922 -0.3789
   72CHL1    H8 7749   2.466   5.840   8.930 -4.6366 -0.1059 -1.7558
   72CHL1   C14 7750   2.471   6.014   8.797 -0.3716 -0.2607 -0.4427
   72CHL1   H14 7751   2.455   6.122   8.815 -3.3975 -0.5006 -1.2553
   72CHL1   C15 7752   2.366   5.976   8.683 -0.1367 -0.6281 -0.5426
   72CHL1  H15A 7753   2.345   5.867   8.690  1.8074 -0.9625  1.0426
   72CHL1  H15B 7754   2.280   6.044   8.699 -0.1856 -1.5145  4.6045
   72CHL1   C16 7755   2.444   6.005   8.555 -0.7026  0.5813 -0.5932
   72CHL1  H16A 7756   2.468   5.905   8.512  1.4346  0.7091  0.1894
   72CHL1  H16B 7757   2.390   6.066   8.480 -1.4236  0.1589 -0.4286
   72CHL1   C17 7758   2.585   6.053   8.589  0.0562  0.0190 -0.4158
   72CHL1   H17 7759   2.585   6.162   8.610  0.9066 -0.2546  1.1594
   72CHL1   C13 7760   2.611   5.993   8.731  0.1545  0.9662 -0.5725
   72CHL1   C18 7761   2.639   5.843   8.723  0.0085 -0.1265  0.3136
   72CHL1  H18A 7762   2.563   5.786   8.665  1.2430 -1.7057  0.1842
   72CHL1  H18B 7763   2.733   5.814   8.671  0.4385  0.8972  0.5031
   72CHL1  H18C 7764   2.646   5.794   8.822  0.4414  0.9931  0.8533
   72CHL1   C12 7765   2.717   6.053   8.825  0.7201  0.0250  0.6565
   72CHL1  H12A 7766   2.824   6.040   8.795  1.6367  0.2239  3.5082
   72CHL1  H12B 7767   2.687   6.160   8.825  0.8319  0.0791  2.4461
   72CHL1   C11 7768   2.709   5.991   8.969  0.1684 -0.1994 -0.3287
   72CHL1  H11A 7769   2.733   5.883   8.978  0.9586  0.0176  0.2849
   72CHL1  H11B 7770   2.782   6.041   9.036 -0.9961  0.5990  0.3738
   72CHL1    C9 7771   2.566   6.011   9.027 -0.0577  0.6516 -0.1363
   72CHL1    H9 7772   2.561   6.122   9.029  0.9250  0.6958  0.4070
   72CHL1   C10 7773   2.554   5.964   9.177  0.9017  0.3257 -0.6798
   72CHL1   C19 7774   2.605   5.821   9.196  0.2925 -0.4473  0.1194
   72CHL1  H19A 7775   2.715   5.830   9.181  0.3379  1.0013  1.1397
   72CHL1  H19B 7776   2.588   5.781   9.298 -0.4150 -1.5572 -0.4136
   72CHL1  H19C 7777   2.579   5.744   9.120  1.3002 -1.6804  0.9856
   72CHL1    C1 7778   2.624   6.058   9.275  0.4898 -0.4476 -0.0640
   72CHL1   H1A 7779   2.735   6.058   9.269  0.4756 -0.0917 -0.3503
   72CHL1   H1B 7780   2.594   6.162   9.251 -0.9272 -1.0627 -1.1558
   72CHL1    C2 7781   2.598   6.032   9.422  0.0831 -0.3805  0.0812
   72CHL1   H2A 7782   2.649   6.106   9.488 -1.9695 -0.9579  2.4861
   72CHL1   H2B 7783   2.634   5.928   9.440 -0.0760 -0.7728 -1.6579
   72CHL1   C20 7784   2.694   6.032   8.486  0.1514  0.6113 -0.0595
   72CHL1   H20 7785   2.736   5.929   8.485 -0.4144  0.3816 -0.2484
   72CHL1   C21 7786   2.811   6.129   8.510 -0.1017 -0.1492 -0.0069
   72CHL1  H21A 7787   2.888   6.098   8.437 -0.9387 -0.9806 -0.5666
   72CHL1  H21B 7788   2.862   6.107   8.607  0.4054 -0.3470 -0.3150
   72CHL1  H21C 7789   2.780   6.234   8.498 -1.0878 -0.5739 -1.3134
   72CHL1   C22 7790   2.630   6.069   8.351 -0.4308 -0.8166  0.1062
   72CHL1  H22A 7791   2.580   5.977   8.314  0.0059 -0.8260 -0.4604
   72CHL1  H22B 7792   2.554   6.149   8.363  1.8597  1.2430  2.1285
   72CHL1   C23 7793   2.717   6.112   8.240  0.0988 -0.5618  1.4647
   72CHL1  H23A 7794   2.773   6.206   8.261  3.0019 -1.4694 -1.4401
   72CHL1  H23B 7795   2.788   6.030   8.217 -1.4333 -1.0375 -2.2828
   72CHL1   C24 7796   2.630   6.128   8.111  0.7725  0.7654 -0.0538
   72CHL1  H24A 7797   2.588   6.033   8.071 -1.4772  0.7438  2.0981
   72CHL1  H24B 7798   2.536   6.188   8.114 -0.6904 -1.2283 -2.2969
   72CHL1   C25 7799   2.712   6.195   7.997 -0.6360 -0.4556  0.3982
   72CHL1   H25 7800   2.752   6.289   8.040 -1.2749  0.1391 -0.2915
   72CHL1   C26 7801   2.834   6.105   7.968  0.2629 -0.3444  0.2168
   72CHL1  H26A 7802   2.875   6.123   7.866  1.1590  0.9260  0.7715
   72CHL1  H26B 7803   2.918   6.121   8.038  0.3084  0.2958  0.0242
   72CHL1  H26C 7804   2.801   6.001   7.986 -1.3400  0.3400  1.5377
   72CHL1   C27 7805   2.623   6.231   7.877 -0.1830 -0.6100 -0.1620
   72CHL1  H27A 7806   2.693   6.267   7.800 -1.5294 -1.7206 -1.9975
   72CHL1  H27B 7807   2.577   6.137   7.838 -1.4395 -0.5232  1.0236
   72CHL1  H27C 7808   2.549   6.310   7.901  0.3632 -0.2403  0.3345
   73CHL1    C3 7809   0.866   0.808   6.491 -0.1046  0.1217 -0.3577
   73CHL1    H3 7810   0.939   0.789   6.572 -1.2755  0.4217  0.8072
   73CHL1    O3 7811   0.904   0.764   6.362 -0.9403  0.5769 -0.0425
   73CHL1   H3' 7812   0.958   0.839   6.335  0.8519 -0.0263  1.6645
   73CHL1    C4 7813   0.740   0.725   6.527  0.0686 -0.0942  0.2060
   73CHL1   H4A 7814   0.667   0.732   6.444 -0.7248  3.1798  1.0307
   73CHL1   H4B 7815   0.773   0.620   6.535  1.3369  0.1049 -1.8737
   73CHL1    C5 7816   0.671   0.771   6.659 -0.4305  0.2795  0.3629
   73CHL1    C6 7817   0.648   0.694   6.765  0.1625 -0.0212  0.3881
   73CHL1    H6 7818   0.688   0.591   6.760  0.7038  0.1769  0.5256
   73CHL1    C7 7819   0.580   0.736   6.883  0.1610  0.5518  0.0250
   73CHL1   H7A 7820   0.520   0.655   6.930  0.5473  0.9242  1.2062
   73CHL1   H7B 7821   0.652   0.748   6.968 -1.7895  1.5451  1.6270
   73CHL1    C8 7822   0.492   0.867   6.874 -0.3819 -0.1207  0.6529
   73CHL1    H8 7823   0.395   0.846   6.823  0.2931  0.3533 -0.8648
   73CHL1   C14 7824   0.458   0.930   7.010  0.1098  0.4577  0.5053
   73CHL1   H14 7825   0.558   0.947   7.055  1.6808 -2.0663 -1.7615
   73CHL1   C15 7826   0.385   0.854   7.125 -0.5364 -0.0135  0.5521
   73CHL1  H15A 7827   0.314   0.778   7.088  1.0223  0.0345 -2.8804
   73CHL1  H15B 7828   0.461   0.796   7.182 -0.2907 -0.3015 -0.0596
   73CHL1   C16 7829   0.315   0.955   7.213 -0.4095 -0.7890 -0.3559
   73CHL1  H16A 7830   0.205   0.944   7.200 -0.5845  1.3597 -1.0963
   73CHL1  H16B 7831   0.346   0.947   7.319 -2.6804 -0.1696  0.4124
   73CHL1   C17 7832   0.362   1.094   7.161 -0.5273  0.3535  0.3363
   73CHL1   H17 7833   0.464   1.119   7.197 -0.3768 -0.5144  0.5353
   73CHL1   C13 7834   0.386   1.063   7.011  0.6840  0.9525  0.0341
   73CHL1   C18 7835   0.250   1.035   6.947  0.1986 -0.2758  0.1658
   73CHL1  H18A 7836   0.265   1.023   6.837  0.7224 -1.2901  0.3343
   73CHL1  H18B 7837   0.211   0.939   6.986 -0.2576  0.4816  1.6513
   73CHL1  H18C 7838   0.174   1.114   6.960 -0.5140 -0.6693 -1.3512
   73CHL1   C12 7839   0.485   1.155   6.934 -0.7248 -0.4898 -0.4826
   73CHL1  H12A 7840   0.449   1.259   6.919 -0.4225 -0.4534 -0.9677
   73CHL1  H12B 7841   0.582   1.161   6.988 -1.3528 -1.2378  0.7674
   73CHL1   C11 7842   0.518   1.107   6.797  0.2515 -0.0256 -0.4146
   73CHL1  H11A 7843   0.427   1.111   6.733 -1.5756  3.7311  2.0432
   73CHL1  H11B 7844   0.590   1.177   6.750 -0.6017  1.1149 -0.0730
   73CHL1    C9 7845   0.580   0.968   6.803 -0.1055  0.7596  0.3061
   73CHL1    H9 7846   0.670   0.985   6.867  0.9726  0.9159 -1.1899
   73CHL1   C10 7847   0.637   0.921   6.661  0.2145  0.0232 -0.3721
   73CHL1   C19 7848   0.534   0.947   6.548  1.1864 -0.2294 -0.1139
   73CHL1  H19A 7849   0.574   0.929   6.446 -0.7093 -1.6716 -0.6659
   73CHL1  H19B 7850   0.458   0.867   6.549  3.1186 -2.2048 -1.2960
   73CHL1  H19C 7851   0.492   1.049   6.558  0.1574 -0.5290 -1.1523
   73CHL1    C1 7852   0.765   1.000   6.619 -0.6813  0.0237  0.7843
   73CHL1   H1A 7853   0.739   1.108   6.614 -0.8225 -0.0781 -1.7031
   73CHL1   H1B 7854   0.838   0.977   6.700  0.1841 -0.3928 -0.0977
   73CHL1    C2 7855   0.841   0.959   6.489 -0.6874  1.2026  0.5741
   73CHL1   H2A 7856   0.939   1.010   6.480  0.2691 -0.8168 -1.3782
   73CHL1   H2B 7857   0.780   0.977   6.398 -2.2661 -0.6715  1.1921
   73CHL1   C20 7858   0.260   1.205   7.205  0.6112  0.3861 -0.0149
   73CHL1   H20 7859   0.162   1.183   7.158  0.4717  0.4743  0.2310
   73CHL1   C21 7860   0.311   1.344   7.157 -0.5066  1.1401 -0.2613
   73CHL1  H21A 7861   0.284   1.350   7.049  2.6117  1.8690 -1.0926
   73CHL1  H21B 7862   0.417   1.356   7.186  0.6093 -0.1203 -3.3865
   73CHL1  H21C 7863   0.250   1.428   7.196 -3.1821 -0.6532 -0.2419
   73CHL1   C22 7864   0.233   1.199   7.357 -0.3776 -0.7584  0.6443
   73CHL1  H22A 7865   0.183   1.295   7.380 -0.2206 -0.0880 -1.5508
   73CHL1  H22B 7866   0.182   1.109   7.399 -0.5174 -1.3267 -0.6788
   73CHL1   C23 7867   0.361   1.213   7.433 -0.6608  0.1880 -0.0611
   73CHL1  H23A 7868   0.398   1.110   7.454  0.3336  0.3300 -1.0097
   73CHL1  H23B 7869   0.446   1.258   7.377  0.1947  0.2184  1.2160
   73CHL1   C24 7870   0.343   1.288   7.560 -0.0600  0.0598 -0.0055
   73CHL1  H24A 7871   0.307   1.393   7.552 -1.0465 -0.3842 -1.9801
   73CHL1  H24B 7872   0.266   1.234   7.619  0.9954 -0.5767  0.8293
   73CHL1   C25 7873   0.468   1.290   7.656 -0.4854 -0.6358 -0.4399
   73CHL1   H25 7874   0.512   1.189   7.668 -1.3877 -1.1901 -1.6194
   73CHL1   C26 7875   0.580   1.379   7.594  0.6441 -0.8834 -0.0315
   73CHL1  H26A 7876   0.676   1.391   7.647 -0.7320 -0.1615  2.4734
   73CHL1  H26B 7877   0.595   1.329   7.496  0.7920 -1.6664  0.3913
   73CHL1  H26C 7878   0.538   1.482   7.582 -1.5494 -1.7926 -0.5637
   73CHL1   C27 7879   0.444   1.335   7.803 -0.7368 -0.7551  0.0203
   73CHL1  H27A 7880   0.383   1.427   7.795  0.1551 -0.2865 -2.5608
   73CHL1  H27B 7881   0.384   1.258   7.857  0.0381 -0.5281  1.2346
   73CHL1  H27C 7882   0.542   1.344   7.853 -0.4226 -3.2932 -0.0144
   74CHL1    C3 7883   6.783   5.656   6.209  0.4405 -0.7608  0.1138
   74CHL1    H3 7884   6.682   5.680   6.249  0.4608 -2.0265  0.9830
   74CHL1    O3 7885   6.766   5.630   6.071 -0.1736  0.3494 -0.2328
   74CHL1   H3' 7886   6.748   5.713   6.027  0.7501 -0.1259 -1.5681
   74CHL1    C4 7887   6.889   5.771   6.225  0.2106 -0.1645 -0.1137
   74CHL1   H4A 7888   6.982   5.742   6.173 -0.4632 -0.3380 -1.2527
   74CHL1   H4B 7889   6.840   5.857   6.176  0.5710 -0.3917 -0.8829
   74CHL1    C5 7890   6.918   5.806   6.375  0.1050 -0.5509  0.5354
   74CHL1    C6 7891   6.896   5.931   6.421 -0.2363  0.5174  1.1036
   74CHL1    H6 7892   6.876   6.016   6.355  0.3950 -0.1971 -0.0386
   74CHL1    C7 7893   6.924   5.974   6.560  0.1366 -0.6830 -0.6162
   74CHL1   H7A 7894   6.990   6.063   6.561  0.6418 -1.0023 -2.1497
   74CHL1   H7B 7895   6.828   5.990   6.613  0.8025 -0.7804  0.6597
   74CHL1    C8 7896   6.991   5.863   6.646 -0.3463 -0.2375  0.0667
   74CHL1    H8 7897   7.100   5.850   6.629 -0.4145 -0.5684 -0.1129
   74CHL1   C14 7898   6.970   5.888   6.795 -0.3027 -0.6072 -0.0258
   74CHL1   H14 7899   6.863   5.873   6.823 -0.2759  0.2552  0.6230
   74CHL1   C15 7900   6.996   6.036   6.845 -0.1050 -0.2321 -0.0013
   74CHL1  H15A 7901   7.094   6.066   6.801 -0.3955 -0.1146 -0.5713
   74CHL1  H15B 7902   6.913   6.105   6.820 -1.8483 -2.0868  0.4606
   74CHL1   C16 7903   6.997   6.014   6.994 -0.3500  0.3007 -0.1118
   74CHL1  H16A 7904   7.100   6.041   7.028  0.5273 -2.8719 -0.0055
   74CHL1  H16B 7905   6.919   6.068   7.051 -0.0664  1.1627 -0.5116
   74CHL1   C17 7906   7.010   5.865   7.026 -0.1611 -0.8550  0.2030
   74CHL1   H17 7907   6.906   5.834   7.051 -1.0516 -1.3011 -3.5592
   74CHL1   C13 7908   7.047   5.800   6.893 -0.2473 -0.2753  0.7376
   74CHL1   C18 7909   7.201   5.813   6.872 -0.3226 -0.1813 -0.4295
   74CHL1  H18A 7910   7.269   5.752   6.936  0.2833  0.8743 -0.0457
   74CHL1  H18B 7911   7.230   5.784   6.769 -1.2133 -1.8942 -0.2296
   74CHL1  H18C 7912   7.231   5.919   6.884 -0.9553 -0.0603  0.1056
   74CHL1   C12 7913   6.995   5.659   6.858  0.2736 -0.1015  0.0456
   74CHL1  H12A 7914   7.052   5.585   6.917 -1.3400 -1.3869  0.0810
   74CHL1  H12B 7915   6.888   5.638   6.880  0.8951 -1.5728  1.9291
   74CHL1   C11 7916   7.014   5.624   6.712 -0.0900  0.2023  0.4408
   74CHL1  H11A 7917   7.119   5.604   6.685 -0.7928 -2.7678 -0.4759
   74CHL1  H11B 7918   6.967   5.525   6.693  1.0912 -0.2094 -0.3954
   74CHL1    C9 7919   6.942   5.725   6.615 -0.0041  0.1332 -0.1372
   74CHL1    H9 7920   6.836   5.717   6.647  0.3542  0.8201  1.2868
   74CHL1   C10 7921   6.955   5.691   6.468  0.3162 -0.4941  0.6360
   74CHL1   C19 7922   7.106   5.646   6.428 -0.3227 -0.5313 -0.4560
   74CHL1  H19A 7923   7.141   5.569   6.500  1.6236  0.5194 -0.2274
   74CHL1  H19B 7924   7.118   5.613   6.323  0.4247  0.5271 -0.7147
   74CHL1  H19C 7925   7.170   5.736   6.440  0.4436 -1.2203  0.8850
   74CHL1    C1 7926   6.869   5.567   6.430 -0.1310 -0.5205  0.3897
   74CHL1   H1A 7927   6.907   5.482   6.489 -2.5335 -0.9099  1.5145
   74CHL1   H1B 7928   6.771   5.584   6.482  0.8972  0.2205  2.1836
   74CHL1    C2 7929   6.833   5.535   6.282 -0.8708  0.2231 -0.5054
   74CHL1   H2A 7930   6.758   5.453   6.275 -1.0768  0.1691  1.6868
   74CHL1   H2B 7931   6.923   5.499   6.229  0.9712 -0.7404  3.0126
   74CHL1   C20 7932   7.104   5.834   7.152  0.7864  0.2157 -0.0702
   74CHL1   H20 7933   7.209   5.858   7.125  0.2901  0.6596 -1.6925
   74CHL1   C21 7934   7.087   5.686   7.200  0.8627  0.4258  0.0041
   74CHL1  H21A 7935   6.984   5.676   7.239  1.1334 -0.8800  0.4290
   74CHL1  H21B 7936   7.161   5.669   7.282  1.1006  0.3855 -0.2184
   74CHL1  H21C 7937   7.109   5.614   7.119  0.3084 -0.1614  0.3662
   74CHL1   C22 7938   7.076   5.937   7.265  0.3624  0.4435  0.5210
   74CHL1  H22A 7939   7.120   6.033   7.233  0.7250 -0.2691 -1.2434
   74CHL1  H22B 7940   6.965   5.951   7.265  0.4377  1.2375 -0.7530
   74CHL1   C23 7941   7.129   5.913   7.405  0.0931  0.0630 -0.2566
   74CHL1  H23A 7942   7.075   5.824   7.445  2.0960 -1.1315 -0.0672
   74CHL1  H23B 7943   7.237   5.893   7.389 -0.3857 -0.4980 -3.4780
   74CHL1   C24 7944   7.113   6.035   7.499 -0.0711 -0.9141  0.2636
   74CHL1  H24A 7945   7.177   6.117   7.459  0.5091 -1.3517  0.2807
   74CHL1  H24B 7946   7.017   6.084   7.474  0.9094 -0.9344 -4.4592
   74CHL1   C25 7947   7.144   6.028   7.646  0.8772  0.3847  0.1849
   74CHL1   H25 7948   7.243   5.978   7.653 -0.2189 -1.6947  2.8340
   74CHL1   C26 7949   7.134   6.162   7.718 -0.8254  0.0122 -0.2003
   74CHL1  H26A 7950   7.188   6.239   7.658 -2.5394 -0.0800 -1.9470
   74CHL1  H26B 7951   7.029   6.196   7.726 -0.7014  0.4821 -0.5110
   74CHL1  H26C 7952   7.180   6.147   7.818  0.9269  0.6882 -0.8639
   74CHL1   C27 7953   7.033   5.949   7.721 -0.2199 -0.3271 -0.1881
   74CHL1  H27A 7954   6.934   5.999   7.723 -0.2515 -0.3398 -1.1168
   74CHL1  H27B 7955   7.003   5.848   7.686 -1.2508  0.0889 -0.5500
   74CHL1  H27C 7956   7.053   5.941   7.830 -3.9123  0.5755  0.7202
   75CHL1    C3 7957   2.695   1.008   6.576  0.3241 -0.3684  0.4233
   75CHL1    H3 7958   2.593   0.976   6.605  0.4492 -1.3559 -0.1964
   75CHL1    O3 7959   2.721   0.995   6.436 -0.5156  0.6942  0.1153
   75CHL1   H3' 7960   2.816   1.007   6.421 -0.5220  0.0107 -0.5366
   75CHL1    C4 7961   2.715   1.158   6.619  0.6527  0.1785  0.3680
   75CHL1   H4A 7962   2.814   1.181   6.574  1.5654 -1.3302  1.4978
   75CHL1   H4B 7963   2.637   1.216   6.565  0.6066  0.3143  0.5792
   75CHL1    C5 7964   2.722   1.189   6.766  0.3660  0.1213  0.1298
   75CHL1    C6 7965   2.637   1.274   6.827 -0.5070 -0.3983 -0.0061
   75CHL1    H6 7966   2.569   1.343   6.775  1.1452  1.3634  0.0620
   75CHL1    C7 7967   2.626   1.295   6.975 -0.4465 -0.0359  0.1108
   75CHL1   H7A 7968   2.626   1.403   6.999 -0.1731 -0.1160  0.4721
   75CHL1   H7B 7969   2.535   1.244   7.014 -0.8723  0.3750 -0.3315
   75CHL1    C8 7970   2.746   1.236   7.053 -0.0714  0.1233  0.4026
   75CHL1    H8 7971   2.833   1.305   7.039 -0.0603  0.1740  0.7237
   75CHL1   C14 7972   2.709   1.224   7.201  0.1355  0.3920  0.6543
   75CHL1   H14 7973   2.623   1.153   7.209  1.5394 -1.4825 -0.1391
   75CHL1   C15 7974   2.667   1.356   7.274  0.5724  0.6105 -0.4733
   75CHL1  H15A 7975   2.747   1.427   7.243  2.5980 -1.5282 -0.4790
   75CHL1  H15B 7976   2.563   1.389   7.258  0.5726  0.5515 -0.6015
   75CHL1   C16 7977   2.679   1.317   7.427  0.3434  0.9495 -0.6853
   75CHL1  H16A 7978   2.726   1.394   7.491  0.1546 -0.7972  1.6656
   75CHL1  H16B 7979   2.583   1.282   7.471  1.4231  0.7050  1.5803
   75CHL1   C17 7980   2.765   1.181   7.436 -0.2132 -0.2997  0.0840
   75CHL1   H17 7981   2.688   1.101   7.443 -2.2807  1.6135  0.7041
   75CHL1   C13 7982   2.824   1.162   7.290 -0.9334 -0.4960  0.3702
   75CHL1   C18 7983   2.948   1.261   7.287  0.3736  0.4868 -0.0065
   75CHL1  H18A 7984   2.984   1.288   7.185  1.1748  1.1797  0.4446
   75CHL1  H18B 7985   2.938   1.351   7.351  0.8301  0.8169 -0.3936
   75CHL1  H18C 7986   3.034   1.207   7.331 -0.4667 -1.4124 -0.6006
   75CHL1   C12 7987   2.860   1.022   7.236  0.5171 -0.9383  0.3627
   75CHL1  H12A 7988   2.943   0.976   7.292  0.3458 -0.5598  0.9331
   75CHL1  H12B 7989   2.770   0.957   7.241 -0.4242  0.3508  0.6312
   75CHL1   C11 7990   2.893   1.032   7.081  0.0130 -0.6667 -0.2372
   75CHL1  H11A 7991   2.986   1.089   7.065 -0.5897  0.0344 -1.3562
   75CHL1  H11B 7992   2.905   0.925   7.051 -1.6091 -0.9912  0.1359
   75CHL1    C9 7993   2.783   1.098   6.989 -1.0679 -0.2889 -0.1693
   75CHL1    H9 7994   2.691   1.035   6.990  0.0250 -2.1079 -2.8657
   75CHL1   C10 7995   2.814   1.098   6.842  1.0060  0.1936  0.5181
   75CHL1   C19 7996   2.957   1.144   6.821  0.6399 -0.1937  1.0323
   75CHL1  H19A 7997   3.024   1.063   6.855 -0.8349 -2.0675 -0.2890
   75CHL1  H19B 7998   2.987   1.154   6.714  1.0270 -0.9930  1.0626
   75CHL1  H19C 7999   2.981   1.239   6.874  0.6662 -0.0502  0.7650
   75CHL1    C1 8000   2.798   0.947   6.794  0.3533 -0.2281  0.0212
   75CHL1   H1A 8001   2.887   0.891   6.831 -0.0024  0.4638  2.0708
   75CHL1   H1B 8002   2.701   0.901   6.822  0.0490  0.7941  0.7093
   75CHL1    C2 8003   2.801   0.923   6.643  0.1436  0.1674 -0.2796
   75CHL1   H2A 8004   2.778   0.817   6.618  0.2884 -0.3888  1.7499
   75CHL1   H2B 8005   2.901   0.947   6.601 -0.3484  0.7874 -1.1121
   75CHL1   C20 8006   2.865   1.166   7.558 -0.1836  0.2609 -0.5814
   75CHL1   H20 8007   2.966   1.206   7.536  0.4944 -0.4920  0.9701
   75CHL1   C21 8008   2.905   1.021   7.569 -0.1371 -0.3930 -0.6559
   75CHL1  H21A 8009   2.841   0.947   7.515  2.3301 -1.1282 -2.8058
   75CHL1  H21B 8010   2.899   0.994   7.676 -1.6425  0.9463 -0.3671
   75CHL1  H21C 8011   3.015   1.014   7.553  0.4301  1.6986  1.7335
   75CHL1   C22 8012   2.814   1.227   7.692 -0.1443  0.0084  0.3254
   75CHL1  H22A 8013   2.879   1.204   7.779 -0.4139  1.1538  0.8522
   75CHL1  H22B 8014   2.807   1.338   7.691 -1.1862 -0.0380  0.9087
   75CHL1   C23 8015   2.683   1.174   7.743 -0.4958 -0.2059 -0.4975
   75CHL1  H23A 8016   2.604   1.197   7.668 -0.4814  0.9207 -0.1815
   75CHL1  H23B 8017   2.690   1.063   7.749  1.5770 -0.0623  0.3927
   75CHL1   C24 8018   2.649   1.232   7.885  0.2176 -0.4654 -0.2116
   75CHL1  H24A 8019   2.739   1.237   7.951  0.9919  0.8841 -1.3357
   75CHL1  H24B 8020   2.611   1.336   7.887 -0.8162 -0.8282  1.5954
   75CHL1   C25 8021   2.533   1.159   7.952 -0.1410  0.3016 -0.2598
   75CHL1   H25 8022   2.571   1.057   7.975  0.4698  0.6520  0.2970
   75CHL1   C26 8023   2.494   1.214   8.093  0.0324  1.0410  0.3669
   75CHL1  H26A 8024   2.449   1.316   8.089 -1.9531  0.1950 -1.7657
   75CHL1  H26B 8025   2.417   1.141   8.126  0.8551  0.4493  0.9904
   75CHL1  H26C 8026   2.583   1.214   8.158 -0.9502  0.5999  1.7582
   75CHL1   C27 8027   2.402   1.154   7.865  0.8494 -0.0017 -0.2896
   75CHL1  H27A 8028   2.364   1.259   7.861  1.8883  0.5394  1.9757
   75CHL1  H27B 8029   2.428   1.118   7.764  0.8321 -1.8084  0.3265
   75CHL1  H27C 8030   2.328   1.080   7.904  1.7156 -0.9998 -0.5064
   76CHL1    C3 8031   2.551   2.931   6.623 -0.7112 -0.2287  0.0933
   76CHL1    H3 8032   2.660   2.929   6.644 -0.8572  0.4487  1.0069
   76CHL1    O3 8033   2.547   2.973   6.483  0.3428 -0.0196 -0.5882
   76CHL1   H3' 8034   2.464   2.945   6.442 -0.4422  1.5689 -0.1664
   76CHL1    C4 8035   2.484   2.788   6.636 -0.0890  0.5045 -0.0741
   76CHL1   H4A 8036   2.379   2.789   6.600 -0.7296  2.1314  1.7052
   76CHL1   H4B 8037   2.535   2.710   6.575  0.6121  1.3433 -0.5865
   76CHL1    C5 8038   2.488   2.754   6.789 -0.4922  0.8348 -0.3137
   76CHL1    C6 8039   2.556   2.654   6.845 -0.0737 -0.0647  0.2764
   76CHL1    H6 8040   2.615   2.599   6.771 -1.7445  1.7944 -2.6290
   76CHL1    C7 8041   2.553   2.616   6.987  0.0632  0.1772  0.1368
   76CHL1   H7A 8042   2.537   2.506   6.993 -1.8177  0.1193 -3.3073
   76CHL1   H7B 8043   2.648   2.651   7.034 -0.7904  2.9679 -0.0692
   76CHL1    C8 8044   2.439   2.683   7.062  0.2075  0.0102  0.2442
   76CHL1    H8 8045   2.344   2.630   7.039  0.9457 -0.1549 -2.8631
   76CHL1   C14 8046   2.456   2.677   7.216  0.2570  0.6825  0.5420
   76CHL1   H14 8047   2.557   2.724   7.229 -0.9218  3.0672  1.8507
   76CHL1   C15 8048   2.478   2.534   7.272  0.1454 -0.5257 -0.8706
   76CHL1  H15A 8049   2.409   2.462   7.224 -0.6439 -0.0442 -0.4741
   76CHL1  H15B 8050   2.579   2.500   7.238  0.7318 -1.0336  1.2098
   76CHL1   C16 8051   2.463   2.553   7.422 -0.7051 -0.2607 -0.1500
   76CHL1  H16A 8052   2.370   2.495   7.441  0.8082 -2.9730 -0.6052
   76CHL1  H16B 8053   2.555   2.512   7.468 -0.1263 -1.2723 -2.1365
   76CHL1   C17 8054   2.437   2.706   7.445  0.2917 -0.1958 -0.5762
   76CHL1   H17 8055   2.539   2.750   7.452  0.9214 -1.2083 -2.5887
   76CHL1   C13 8056   2.370   2.751   7.309 -0.2648  0.0447  0.6271
   76CHL1   C18 8057   2.223   2.702   7.307 -0.2420 -0.2035  1.2697
   76CHL1  H18A 8058   2.157   2.769   7.365 -0.3642  0.6866  0.1492
   76CHL1  H18B 8059   2.183   2.689   7.204 -0.2828 -1.2600  1.4143
   76CHL1  H18C 8060   2.218   2.603   7.356  1.0821 -0.2832  1.2738
   76CHL1   C12 8061   2.379   2.907   7.268  0.2064 -0.6338  0.4018
   76CHL1  H12A 8062   2.318   2.964   7.342  0.5025  0.8136 -0.4342
   76CHL1  H12B 8063   2.486   2.935   7.276  0.1069 -0.0501 -0.2477
   76CHL1   C11 8064   2.341   2.924   7.121  0.6768  0.9428  0.2816
   76CHL1  H11A 8065   2.233   2.897   7.113  0.8317  0.6458 -0.8579
   76CHL1  H11B 8066   2.342   3.033   7.096 -1.8515  1.4243  1.7945
   76CHL1    C9 8067   2.426   2.837   7.025  0.5765  0.0497  1.2010
   76CHL1    H9 8068   2.533   2.863   7.039  1.2992 -0.6146 -2.1517
   76CHL1   C10 8069   2.407   2.863   6.881 -0.0108 -0.2151  0.7252
   76CHL1   C19 8070   2.252   2.864   6.840 -0.2177  0.0078 -0.4366
   76CHL1  H19A 8071   2.221   2.956   6.895 -1.4529 -2.6032  3.8195
   76CHL1  H19B 8072   2.239   2.877   6.731  0.9276 -1.2263 -0.7469
   76CHL1  H19C 8073   2.198   2.786   6.899  0.6117 -0.2150  0.0401
   76CHL1    C1 8074   2.474   3.000   6.855  0.1481  0.4089  0.6310
   76CHL1   H1A 8075   2.427   3.090   6.901 -1.4444  0.1659 -0.4632
   76CHL1   H1B 8076   2.580   2.994   6.888  0.1311 -0.9239  0.4656
   76CHL1    C2 8077   2.479   3.040   6.700  0.3292 -0.2827 -0.2927
   76CHL1   H2A 8078   2.516   3.144   6.693  1.8379 -0.8987 -2.9606
   76CHL1   H2B 8079   2.370   3.039   6.675 -0.4290 -1.5494  2.6106
   76CHL1   C20 8080   2.371   2.734   7.584 -0.5781 -0.1131 -0.0430
   76CHL1   H20 8081   2.274   2.681   7.591  0.5348 -2.5578 -1.7451
   76CHL1   C21 8082   2.349   2.882   7.596 -0.1179 -0.0282  0.3854
   76CHL1  H21A 8083   2.440   2.930   7.555  0.4655  0.2209  1.9187
   76CHL1  H21B 8084   2.339   2.903   7.704  0.1002 -1.3301  0.6772
   76CHL1  H21C 8085   2.256   2.915   7.545 -0.7550  1.4901  2.3951
   76CHL1   C22 8086   2.450   2.685   7.697 -0.4507  0.3844  0.5056
   76CHL1  H22A 8087   2.494   2.584   7.686 -2.0392 -0.2926  0.1010
   76CHL1  H22B 8088   2.540   2.749   7.705  0.2536 -0.3834 -0.9519
   76CHL1   C23 8089   2.370   2.674   7.830 -0.3037  0.7713  0.3678
   76CHL1  H23A 8090   2.333   2.774   7.861 -0.2507  1.2158 -0.9295
   76CHL1  H23B 8091   2.281   2.609   7.813  1.4444 -0.9626 -3.5962
   76CHL1   C24 8092   2.456   2.626   7.946  0.0269 -0.3400 -0.4035
   76CHL1  H24A 8093   2.510   2.530   7.930  0.3685 -0.4729  1.3379
   76CHL1  H24B 8094   2.532   2.705   7.968 -0.8674  0.9339 -1.7173
   76CHL1   C25 8095   2.378   2.618   8.081  0.5853  0.0294  0.8757
   76CHL1   H25 8096   2.321   2.713   8.089  1.5655  0.7238 -0.0191
   76CHL1   C26 8097   2.277   2.506   8.086  0.5591  0.6519  0.2015
   76CHL1  H26A 8098   2.324   2.405   8.096  0.1248  0.3593 -0.5667
   76CHL1  H26B 8099   2.224   2.518   8.183  0.1184  3.1285 -0.2766
   76CHL1  H26C 8100   2.210   2.522   7.999  0.5988  0.1980  0.0867
   76CHL1   C27 8101   2.470   2.620   8.201  1.0767 -0.3270 -0.5411
   76CHL1  H27A 8102   2.526   2.715   8.211  0.5225 -0.1644  1.3495
   76CHL1  H27B 8103   2.407   2.607   8.291 -0.5181 -2.6737 -1.8788
   76CHL1  H27C 8104   2.549   2.542   8.193 -0.1663 -1.5553 -1.3927
   77CHL1    C3 8105   1.175   0.538   6.715  0.2624 -0.3711 -0.0425
   77CHL1    H3 8106   1.247   0.453   6.715 -0.6211 -1.1287  0.1927
   77CHL1    O3 8107   1.203   0.595   6.588  0.4558  0.6957  0.0808
   77CHL1   H3' 8108   1.154   0.542   6.525  1.2418 -2.0413  1.6186
   77CHL1    C4 8109   1.031   0.488   6.727  0.5236  0.6150  0.4882
   77CHL1   H4A 8110   0.969   0.580   6.719  1.0278  0.8346 -1.5595
   77CHL1   H4B 8111   1.008   0.433   6.633 -0.2435  2.8376 -0.7133
   77CHL1    C5 8112   1.015   0.412   6.858  0.5820  0.1026 -0.6547
   77CHL1    C6 8113   0.976   0.285   6.855  0.4682 -0.1415  0.0186
   77CHL1    H6 8114   0.966   0.242   6.754 -2.2925  0.5789 -0.1013
   77CHL1    C7 8115   0.946   0.201   6.977  1.0573  0.3634 -0.1616
   77CHL1   H7A 8116   0.848   0.149   6.979  0.3117  1.7157  2.0103
   77CHL1   H7B 8117   1.018   0.120   7.000  0.6610 -0.1854 -0.8327
   77CHL1    C8 8118   0.941   0.290   7.097  0.2408 -0.0156 -0.1184
   77CHL1    H8 8119   0.846   0.347   7.095 -0.7012 -1.5255 -2.0581
   77CHL1   C14 8120   0.927   0.202   7.223  0.4126 -0.8087 -0.7976
   77CHL1   H14 8121   1.014   0.132   7.224  1.3231  0.2424  1.4389
   77CHL1   C15 8122   0.803   0.103   7.244  0.4051 -0.1948 -1.2238
   77CHL1  H15A 8123   0.712   0.163   7.224 -1.1799 -1.8546  0.5850
   77CHL1  H15B 8124   0.799   0.013   7.180 -0.5145 -0.2612 -1.0850
   77CHL1   C16 8125   0.819   0.072   7.392 -0.2980  0.1353 -0.8711
   77CHL1  H16A 8126   0.721   0.090   7.443  0.9367 -2.0552  2.6310
   77CHL1  H16B 8127   0.857  -0.030   7.412  0.2592  0.3656 -0.7528
   77CHL1   C17 8128   0.938   0.161   7.450  0.7709  0.4049 -0.3447
   77CHL1   H17 8129   1.036   0.111   7.442  1.1988  0.9971  0.9240
   77CHL1   C13 8130   0.936   0.285   7.355  0.3486 -0.2383 -0.2680
   77CHL1   C18 8131   0.807   0.369   7.371 -0.8829  1.0471 -0.5654
   77CHL1  H18A 8132   0.796   0.455   7.300 -1.3687  1.4498 -0.0120
   77CHL1  H18B 8133   0.715   0.307   7.370 -1.1426  1.3980  0.2826
   77CHL1  H18C 8134   0.818   0.420   7.469  1.6196 -0.9864  0.3120
   77CHL1   C12 8135   1.070   0.366   7.358  0.0313  0.4414 -0.5628
   77CHL1  H12A 8136   1.083   0.414   7.457 -1.4476  0.1405 -0.1910
   77CHL1  H12B 8137   1.147   0.287   7.346  0.5264  0.5874  1.4502
   77CHL1   C11 8138   1.071   0.463   7.243  0.3685  0.5365  0.5447
   77CHL1  H11A 8139   0.987   0.535   7.253 -0.9850 -0.4749 -2.4035
   77CHL1  H11B 8140   1.167   0.518   7.244  0.4459  0.4111  0.1599
   77CHL1    C9 8141   1.059   0.386   7.106  0.1138 -0.1847  0.7010
   77CHL1    H9 8142   1.153   0.326   7.105 -0.2383 -0.7485  1.0304
   77CHL1   C10 8143   1.052   0.487   6.987  0.0847  0.1390  0.4132
   77CHL1   C19 8144   0.955   0.601   6.995  0.7484 -0.2937  0.2565
   77CHL1  H19A 8145   0.966   0.648   7.095  0.5733 -0.9073  0.5658
   77CHL1  H19B 8146   0.969   0.678   6.917 -2.5440  0.0842 -0.0628
   77CHL1  H19C 8147   0.850   0.567   6.985  0.3444  1.4187 -1.8846
   77CHL1    C1 8148   1.186   0.559   6.971 -0.9262 -0.8148  1.1217
   77CHL1   H1A 8149   1.201   0.629   7.056 -0.1818  1.0309 -0.4700
   77CHL1   H1B 8150   1.275   0.494   6.959 -0.1387  0.6658 -2.2788
   77CHL1    C2 8151   1.210   0.638   6.831 -0.3960  0.0117 -0.5387
   77CHL1   H2A 8152   1.319   0.659   6.828 -0.2634 -0.6787 -0.8574
   77CHL1   H2B 8153   1.145   0.727   6.821  0.5474  1.0167  1.5517
   77CHL1   C20 8154   0.940   0.199   7.597 -0.3253 -0.0661 -1.0655
   77CHL1   H20 8155   1.008   0.283   7.619 -1.1516  0.9432 -2.1940
   77CHL1   C21 8156   1.010   0.079   7.668  0.3027 -0.1536 -0.1804
   77CHL1  H21A 8157   1.110   0.067   7.622 -0.3841 -3.1020 -1.1015
   77CHL1  H21B 8158   0.949  -0.013   7.657  0.0485 -0.0696  0.4482
   77CHL1  H21C 8159   1.019   0.088   7.779  4.0878  2.8074 -0.5142
   77CHL1   C22 8160   0.813   0.214   7.661  0.9341 -0.3469 -0.2400
   77CHL1  H22A 8161   0.732   0.254   7.597  3.0485 -1.6220 -4.0848
   77CHL1  H22B 8162   0.768   0.120   7.701 -2.4284  0.0967 -2.6054
   77CHL1   C23 8163   0.827   0.317   7.772 -0.5304 -0.0122  0.5463
   77CHL1  H23A 8164   0.912   0.294   7.841 -1.5497 -0.7134  1.6205
   77CHL1  H23B 8165   0.850   0.415   7.727 -1.7274 -0.4310 -1.0583
   77CHL1   C24 8166   0.700   0.326   7.855 -0.3310  0.2839 -0.3690
   77CHL1  H24A 8167   0.659   0.224   7.872  0.7815  0.0209  0.9126
   77CHL1  H24B 8168   0.745   0.361   7.950  0.4404  1.2707 -1.0711
   77CHL1   C25 8169   0.594   0.434   7.813  0.2145 -0.9791 -0.4919
   77CHL1   H25 8170   0.554   0.406   7.713  0.9036  0.3401 -1.1708
   77CHL1   C26 8171   0.466   0.429   7.898 -0.6586 -0.0020  0.6845
   77CHL1  H26A 8172   0.380   0.370   7.860 -0.2489 -0.9512  1.1924
   77CHL1  H26B 8173   0.494   0.392   7.999 -2.5810 -1.8992  0.6072
   77CHL1  H26C 8174   0.412   0.522   7.925 -1.3033 -0.2022  0.1187
   77CHL1   C27 8175   0.647   0.577   7.827  0.5377  0.6692  0.1633
   77CHL1  H27A 8176   0.574   0.658   7.809  1.3861  1.8792  1.8867
   77CHL1  H27B 8177   0.691   0.597   7.928  0.3246  0.7782  0.2341
   77CHL1  H27C 8178   0.726   0.592   7.750 -0.7496 -2.5290 -2.0045
   78CHL1    C3 8179   3.059   6.655   6.655 -0.0099 -0.3815 -0.2466
   78CHL1    H3 8180   2.955   6.691   6.639  0.4523  1.1122 -0.0768
   78CHL1    O3 8181   3.115   6.625   6.528 -0.3168 -0.2730 -0.2825
   78CHL1   H3' 8182   3.192   6.577   6.560 -1.1035  0.0370  2.3227
   78CHL1    C4 8183   3.142   6.770   6.708  0.3610 -0.1102  0.8665
   78CHL1   H4A 8184   3.246   6.735   6.725 -0.4772 -2.3888  1.6066
   78CHL1   H4B 8185   3.141   6.845   6.626  2.1234 -0.3113  0.6236
   78CHL1    C5 8186   3.083   6.824   6.830  0.2807 -0.6033 -0.0072
   78CHL1    C6 8187   3.043   6.953   6.836 -0.0473 -0.4199 -0.0707
   78CHL1    H6 8188   3.046   7.025   6.752 -0.8900  0.4581  0.6274
   78CHL1    C7 8189   2.995   7.008   6.970  0.2626 -0.0144 -0.6128
   78CHL1   H7A 8190   3.032   7.110   6.991  4.3674 -1.5577  0.7053
   78CHL1   H7B 8191   2.884   7.002   6.968  0.2583  0.2307 -2.3736
   78CHL1    C8 8192   3.036   6.924   7.095 -0.5984  0.3437  0.0954
   78CHL1    H8 8193   3.146   6.932   7.109 -0.3756 -1.3130 -0.4940
   78CHL1   C14 8194   2.953   6.962   7.216 -0.5354 -0.6209 -0.5816
   78CHL1   H14 8195   2.848   6.944   7.184 -0.8650  1.7182 -1.0507
   78CHL1   C15 8196   2.948   7.109   7.256 -0.0571 -0.1818 -0.5862
   78CHL1  H15A 8197   3.048   7.155   7.247 -1.1928  1.9506 -4.2255
   78CHL1  H15B 8198   2.891   7.174   7.186 -0.7210 -1.4804 -1.2964
   78CHL1   C16 8199   2.896   7.118   7.396 -1.0724 -0.0864 -0.1101
   78CHL1  H16A 8200   2.967   7.174   7.461 -1.3420 -0.2339  0.3135
   78CHL1  H16B 8201   2.797   7.165   7.415 -0.9571  0.2747 -0.3869
   78CHL1   C17 8202   2.897   6.970   7.446  0.3340 -0.6677  0.3151
   78CHL1   H17 8203   2.792   6.934   7.448 -0.5641  1.7579  0.7302
   78CHL1   C13 8204   2.981   6.886   7.348  0.4213  0.5616  0.2164
   78CHL1   C18 8205   3.130   6.894   7.384 -0.6886 -0.4219 -0.1959
   78CHL1  H18A 8206   3.164   6.863   7.485  0.9734  5.4703  1.4439
   78CHL1  H18B 8207   3.197   6.850   7.306  0.0683 -2.4090  1.4658
   78CHL1  H18C 8208   3.159   7.001   7.385  0.3802 -0.6917  1.0868
   78CHL1   C12 8209   2.926   6.744   7.319  0.1824  0.1821 -0.6703
   78CHL1  H12A 8210   2.929   6.677   7.407  1.7896 -0.6784 -1.3413
   78CHL1  H12B 8211   2.818   6.753   7.293  0.4609  3.4915 -1.1459
   78CHL1   C11 8212   2.994   6.683   7.194  0.2636 -0.2438 -0.2161
   78CHL1  H11A 8213   3.101   6.662   7.219  0.0198  0.8862  1.9776
   78CHL1  H11B 8214   2.950   6.584   7.169 -0.6018  0.3391 -1.0853
   78CHL1    C9 8215   2.989   6.771   7.064  0.4664  0.2570 -0.4971
   78CHL1    H9 8216   2.885   6.766   7.027  0.1709 -2.4696  0.4432
   78CHL1   C10 8217   3.074   6.716   6.942  0.5461 -0.0998  0.0696
   78CHL1   C19 8218   3.219   6.683   6.986  0.1392 -0.0041 -0.3992
   78CHL1  H19A 8219   3.289   6.664   6.902  0.1014  2.0413 -0.9336
   78CHL1  H19B 8220   3.271   6.763   7.041  1.5606  0.2862 -2.0791
   78CHL1  H19C 8221   3.224   6.600   7.059 -2.3430 -0.3834 -0.5601
   78CHL1    C1 8222   3.002   6.582   6.890 -0.4151  0.0292 -0.2344
   78CHL1   H1A 8223   3.033   6.499   6.957 -0.6691  0.6900  0.7224
   78CHL1   H1B 8224   2.895   6.608   6.877 -0.0075  0.8921 -2.3898
   78CHL1    C2 8225   3.046   6.537   6.753  0.2525 -0.8594  0.3108
   78CHL1   H2A 8226   2.978   6.463   6.705  0.5897  0.2256 -1.9828
   78CHL1   H2B 8227   3.149   6.497   6.762  1.3557  2.0138  1.6464
   78CHL1   C20 8228   2.938   6.962   7.595  0.0543 -0.5935 -0.9181
   78CHL1   H20 8229   3.043   6.989   7.617 -0.0294 -1.1872  0.2765
   78CHL1   C21 8230   2.905   6.819   7.649 -0.1416 -0.3390 -0.1124
   78CHL1  H21A 8231   2.983   6.748   7.613 -0.4595 -0.0638 -1.3598
   78CHL1  H21B 8232   2.807   6.777   7.619 -0.7654 -0.6730  2.1971
   78CHL1  H21C 8233   2.909   6.807   7.760  0.8330 -4.2262 -0.4133
   78CHL1   C22 8234   2.858   7.057   7.697  0.3009 -0.1035  0.6758
   78CHL1  H22A 8235   2.835   7.154   7.646 -1.1546 -0.6116  0.3054
   78CHL1  H22B 8236   2.768   7.001   7.730 -0.0694  0.9625  1.5544
   78CHL1   C23 8237   2.940   7.097   7.822 -0.0618 -0.1737 -0.3848
   78CHL1  H23A 8238   2.997   7.009   7.860 -1.8435 -1.0264  0.4787
   78CHL1  H23B 8239   3.010   7.178   7.796  0.2909  0.1922  1.5353
   78CHL1   C24 8240   2.853   7.154   7.927  0.3534 -0.0471  0.2449
   78CHL1  H24A 8241   2.810   7.250   7.890  0.1050  0.0346  0.7305
   78CHL1  H24B 8242   2.773   7.084   7.959 -0.6192  1.4204  1.1433
   78CHL1   C25 8243   2.923   7.179   8.062 -0.1058 -0.1099 -0.2063
   78CHL1   H25 8244   3.001   7.104   8.088  0.2131  1.0127  2.3604
   78CHL1   C26 8245   2.992   7.319   8.057  0.5125  0.5258  0.3127
   78CHL1  H26A 8246   3.023   7.339   8.162 -2.7333 -0.6571  1.6225
   78CHL1  H26B 8247   3.082   7.298   7.995  0.4851  1.1308  0.0637
   78CHL1  H26C 8248   2.924   7.396   8.017 -1.6145 -0.2039  2.2903
   78CHL1   C27 8249   2.823   7.188   8.177 -0.9676 -0.5308  0.8127
   78CHL1  H27A 8250   2.746   7.265   8.153 -2.0360 -1.8643 -0.2071
   78CHL1  H27B 8251   2.774   7.092   8.202  1.0011 -1.5853  0.7350
   78CHL1  H27C 8252   2.873   7.222   8.271 -1.4751  0.0577  0.8782
   79CHL1    C3 8253   1.764   1.603   6.655 -0.2211 -0.2295 -0.4732
   79CHL1    H3 8254   1.826   1.650   6.734  0.1171 -1.7888  0.2328
   79CHL1    O3 8255   1.832   1.607   6.533  0.6211  0.1589  0.5593
   79CHL1   H3' 8256   1.768   1.646   6.474  0.1108  1.4318  1.8953
   79CHL1    C4 8257   1.743   1.459   6.695  0.5999 -0.3916  0.0668
   79CHL1   H4A 8258   1.678   1.406   6.621  0.8766  0.6968 -0.9968
   79CHL1   H4B 8259   1.840   1.406   6.697  1.3769  1.0118  0.4574
   79CHL1    C5 8260   1.669   1.463   6.828  0.2043 -0.2187  0.4140
   79CHL1    C6 8261   1.723   1.408   6.945 -0.1987 -0.1497  0.1118
   79CHL1    H6 8262   1.820   1.359   6.927  0.7467  2.1748 -1.4238
   79CHL1    C7 8263   1.655   1.396   7.083  0.0641 -0.4309  0.3408
   79CHL1   H7A 8264   1.676   1.291   7.113  0.7937  0.2395  2.3585
   79CHL1   H7B 8265   1.709   1.469   7.147  0.2729  0.3488 -0.7053
   79CHL1    C8 8266   1.505   1.424   7.065 -0.1707 -0.0504  0.4050
   79CHL1    H8 8267   1.464   1.329   7.025  1.2378 -1.6113  2.4687
   79CHL1   C14 8268   1.440   1.452   7.198  0.5185  0.1627  0.1708
   79CHL1   H14 8269   1.491   1.545   7.230  0.5735  0.7173 -1.4708
   79CHL1   C15 8270   1.476   1.354   7.318 -0.0063  0.3000 -0.5896
   79CHL1  H15A 8271   1.448   1.250   7.290  0.2565 -0.2524  1.1243
   79CHL1  H15B 8272   1.586   1.358   7.333 -0.0194 -0.2351 -0.3393
   79CHL1   C16 8273   1.383   1.395   7.423 -0.5287 -0.3393 -0.9036
   79CHL1  H16A 8274   1.326   1.313   7.471 -1.3997  1.1817  0.8044
   79CHL1  H16B 8275   1.439   1.450   7.502 -1.3204 -0.1074 -0.4924
   79CHL1   C17 8276   1.287   1.501   7.360 -0.1794 -0.0230  0.8820
   79CHL1   H17 8277   1.321   1.606   7.378 -2.3965  0.7988  0.6148
   79CHL1   C13 8278   1.297   1.481   7.207  0.1445  0.1512 -0.5504
   79CHL1   C18 8279   1.209   1.359   7.167  0.5914  0.4710 -0.2352
   79CHL1  H18A 8280   1.234   1.272   7.231 -0.7173  0.8081  0.7600
   79CHL1  H18B 8281   1.099   1.376   7.175  0.2615 -2.1984  2.4134
   79CHL1  H18C 8282   1.238   1.322   7.066  0.8392  0.5871 -0.2079
   79CHL1   C12 8283   1.271   1.603   7.122 -0.2849 -0.6848  0.8745
   79CHL1  H12A 8284   1.165   1.635   7.117  0.0483  0.2418 -1.9488
   79CHL1  H12B 8285   1.325   1.692   7.161 -1.9768  1.5268 -1.4978
   79CHL1   C11 8286   1.321   1.578   6.979  0.0725 -0.6233  0.4144
   79CHL1  H11A 8287   1.271   1.486   6.941  1.7156 -1.2658 -0.3138
   79CHL1  H11B 8288   1.311   1.672   6.921  1.7595 -1.1032 -0.7611
   79CHL1    C9 8289   1.475   1.547   6.979 -0.6209 -0.3167 -0.2108
   79CHL1    H9 8290   1.531   1.632   7.024 -1.2765  1.0945 -1.9440
   79CHL1   C10 8291   1.527   1.533   6.829  0.8158 -0.1070  0.2191
   79CHL1   C19 8292   1.437   1.442   6.740  0.5311  0.0562  0.2329
   79CHL1  H19A 8293   1.422   1.334   6.763  0.0810 -0.0405 -0.5126
   79CHL1  H19B 8294   1.334   1.482   6.729 -0.1456 -1.6171  0.1560
   79CHL1  H19C 8295   1.471   1.443   6.635 -1.3232  2.8900 -0.4484
   79CHL1    C1 8296   1.538   1.676   6.772 -0.0905 -0.5523  0.6440
   79CHL1   H1A 8297   1.435   1.705   6.742  0.5034 -0.0281 -0.9772
   79CHL1   H1B 8298   1.585   1.745   6.845  0.0343  1.4786 -1.2522
   79CHL1    C2 8299   1.635   1.682   6.645  0.0467  0.0382 -0.3457
   79CHL1   H2A 8300   1.658   1.787   6.616 -0.7771  0.5222  0.7079
   79CHL1   H2B 8301   1.576   1.635   6.563 -0.6330  0.0522  0.1338
   79CHL1   C20 8302   1.147   1.500   7.436 -0.3922 -1.0923 -0.2589
   79CHL1   H20 8303   1.090   1.416   7.393 -2.4774 -0.4099  1.0493
   79CHL1   C21 8304   1.072   1.625   7.372 -0.7025 -0.0169 -0.2320
   79CHL1  H21A 8305   1.125   1.723   7.375 -1.8528  0.6388 -0.5683
   79CHL1  H21B 8306   0.973   1.637   7.420 -1.0482 -0.0588 -0.9290
   79CHL1  H21C 8307   1.055   1.601   7.265  2.1581 -3.0961 -0.1764
   79CHL1   C22 8308   1.155   1.498   7.594  0.3530 -0.4077  0.2097
   79CHL1  H22A 8309   1.215   1.409   7.622  1.9990 -0.1077 -2.0596
   79CHL1  H22B 8310   1.213   1.590   7.620 -0.5359  0.8195 -1.9425
   79CHL1   C23 8311   1.019   1.497   7.663  0.3018 -0.3682  0.2985
   79CHL1  H23A 8312   0.973   1.598   7.651 -3.0408 -1.5170  2.1949
   79CHL1  H23B 8313   0.941   1.433   7.617 -4.5683  2.9477  3.0222
   79CHL1   C24 8314   1.035   1.461   7.816 -0.5333  0.6477 -0.0509
   79CHL1  H24A 8315   1.099   1.534   7.869  0.9933 -1.9818  1.9475
   79CHL1  H24B 8316   0.932   1.472   7.857 -0.5691 -2.7506  1.0251
   79CHL1   C25 8317   1.080   1.319   7.849 -0.6250 -0.3654  0.5026
   79CHL1   H25 8318   1.181   1.307   7.805 -0.5065 -1.7600  1.0990
   79CHL1   C26 8319   1.095   1.308   8.004 -0.1678  0.1520 -0.1187
   79CHL1  H26A 8320   1.114   1.200   8.022 -0.8906 -0.2063 -1.3441
   79CHL1  H26B 8321   1.177   1.375   8.036 -0.4840  0.8771 -0.7891
   79CHL1  H26C 8322   1.000   1.335   8.056 -0.7275  0.0080 -1.0322
   79CHL1   C27 8323   0.996   1.211   7.784 -0.4459 -0.2061  0.1563
   79CHL1  H27A 8324   0.897   1.215   7.835 -0.9933 -2.0801 -0.6992
   79CHL1  H27B 8325   0.982   1.226   7.675 -0.8636  1.8213  0.4418
   79CHL1  H27C 8326   1.048   1.114   7.793 -0.6272 -0.3697 -0.5235
   80CHL1    C3 8327   0.183   0.604   6.602 -0.0774 -0.4123 -0.0108
   80CHL1    H3 8328   0.279   0.613   6.658 -1.0547  1.1792  1.5339
   80CHL1    O3 8329   0.211   0.592   6.465  0.0803  0.5978  0.0802
   80CHL1   H3' 8330   0.140   0.636   6.418  0.6972  2.6549  0.9791
   80CHL1    C4 8331   0.082   0.506   6.650 -0.6041 -0.1309 -0.1973
   80CHL1   H4A 8332  -0.006   0.512   6.582 -0.4745 -0.2707 -0.3778
   80CHL1   H4B 8333   0.105   0.399   6.633  0.0693 -0.4709  2.3843
   80CHL1    C5 8334   0.031   0.527   6.789  1.1084 -0.2847 -0.1496
   80CHL1    C6 8335   0.024   0.433   6.881 -0.0487  0.0639 -0.8768
   80CHL1    H6 8336   0.053   0.328   6.863 -2.0253 -0.4320 -1.3831
   80CHL1    C7 8337  -0.026   0.459   7.021 -0.9993  0.1772 -0.5357
   80CHL1   H7A 8338  -0.082   0.372   7.062 -1.2527  0.9345  0.7826
   80CHL1   H7B 8339   0.065   0.461   7.085 -1.2977 -1.8092  0.0213
   80CHL1    C8 8340  -0.110   0.581   7.047 -0.0361 -0.6850  1.4316
   80CHL1    H8 8341  -0.213   0.575   7.005  0.0802 -1.8431  1.2802
   80CHL1   C14 8342  -0.120   0.607   7.196 -0.2894  0.0341  0.4949
   80CHL1   H14 8343  -0.012   0.618   7.219 -0.0590 -2.4200  0.8189
   80CHL1   C15 8344  -0.163   0.496   7.286 -0.5045 -0.1029 -0.0882
   80CHL1  H15A 8345  -0.270   0.470   7.268 -1.5684  3.1887  0.7115
   80CHL1  H15B 8346  -0.094   0.409   7.291  0.4615  0.7182  1.2539
   80CHL1   C16 8347  -0.164   0.573   7.419  0.2189  0.2196  0.1761
   80CHL1  H16A 8348  -0.247   0.549   7.489 -0.1658  1.8624  0.3310
   80CHL1  H16B 8349  -0.069   0.559   7.476  0.0540 -0.4523  0.2942
   80CHL1   C17 8350  -0.164   0.729   7.383 -1.3573  0.6018 -0.0931
   80CHL1   H17 8351  -0.058   0.761   7.392 -1.2420  0.8911 -1.9960
   80CHL1   C13 8352  -0.188   0.731   7.232 -0.1017 -0.8034 -0.0151
   80CHL1   C18 8353  -0.341   0.713   7.206  0.3615 -0.0621 -0.1545
   80CHL1  H18A 8354  -0.371   0.691   7.102 -3.1741 -0.6974  0.8831
   80CHL1  H18B 8355  -0.375   0.626   7.266  0.1137 -0.1539 -0.4316
   80CHL1  H18C 8356  -0.397   0.802   7.242  0.1769 -0.3080  0.1747
   80CHL1   C12 8357  -0.124   0.848   7.155  0.7914 -0.2891  0.4193
   80CHL1  H12A 8358  -0.177   0.945   7.168  1.2306 -0.0739  0.6098
   80CHL1  H12B 8359  -0.023   0.868   7.196  1.1046 -0.6415 -0.1750
   80CHL1   C11 8360  -0.109   0.828   7.006 -0.1579  0.5610 -0.3146
   80CHL1  H11A 8361  -0.213   0.830   6.967  0.0176  1.4416 -0.7737
   80CHL1  H11B 8362  -0.056   0.918   6.967  0.3251  0.3399 -0.1711
   80CHL1    C9 8363  -0.035   0.695   6.975  0.1610  0.1574  1.0470
   80CHL1    H9 8364   0.064   0.703   7.024 -0.2179  2.0221  1.6016
   80CHL1   C10 8365  -0.012   0.677   6.822  0.1328 -0.3170  0.7669
   80CHL1   C19 8366  -0.143   0.683   6.744 -0.3531  0.0032 -0.3164
   80CHL1  H19A 8367  -0.143   0.638   6.642 -1.0577 -2.0539  0.5463
   80CHL1  H19B 8368  -0.224   0.622   6.790 -0.2053  0.7561  0.9682
   80CHL1  H19C 8369  -0.173   0.789   6.732 -1.1507 -0.0121  1.3529
   80CHL1    C1 8370   0.088   0.784   6.763 -0.7781  0.1323 -0.0279
   80CHL1   H1A 8371   0.041   0.883   6.781 -1.8330 -0.3686  0.0622
   80CHL1   H1B 8372   0.186   0.768   6.812  0.4913  0.7763 -2.2415
   80CHL1    C2 8373   0.126   0.746   6.620 -0.4982 -0.3142 -0.3765
   80CHL1   H2A 8374   0.208   0.811   6.584 -0.0999 -0.4811  0.2103
   80CHL1   H2B 8375   0.043   0.774   6.551 -0.5048  1.4587  0.2858
   80CHL1   C20 8376  -0.241   0.808   7.491  0.4781  0.8591  0.7678
   80CHL1   H20 8377  -0.345   0.772   7.486  0.2567  1.6004 -1.7428
   80CHL1   C21 8378  -0.241   0.952   7.438  0.6903  0.1322 -0.7374
   80CHL1  H21A 8379  -0.286   0.957   7.337  0.1673  0.3104 -0.4981
   80CHL1  H21B 8380  -0.139   0.995   7.426  1.4321 -0.0303  3.4156
   80CHL1  H21C 8381  -0.299   1.016   7.509  1.4377  1.2051 -1.0732
   80CHL1   C22 8382  -0.169   0.804   7.631  0.3536 -0.2847 -0.1292
   80CHL1  H22A 8383  -0.169   0.701   7.673  1.6377 -0.7554 -1.2045
   80CHL1  H22B 8384  -0.062   0.827   7.611  0.6746 -0.7118  1.0456
   80CHL1   C23 8385  -0.234   0.895   7.741 -0.2441 -0.0530 -0.5472
   80CHL1  H23A 8386  -0.190   0.997   7.730 -0.7778  0.0006 -2.6780
   80CHL1  H23B 8387  -0.344   0.906   7.730 -0.5419 -2.1754 -0.1487
   80CHL1   C24 8388  -0.209   0.831   7.876 -0.0077  0.0545  0.1888
   80CHL1  H24A 8389  -0.245   0.726   7.868  0.0859  0.0135  0.3116
   80CHL1  H24B 8390  -0.101   0.814   7.893  0.1396 -0.3159 -0.9779
   80CHL1   C25 8391  -0.271   0.897   8.003 -0.7430 -0.3831  0.1593
   80CHL1   H25 8392  -0.382   0.901   7.990 -0.8002 -0.9483  0.4428
   80CHL1   C26 8393  -0.245   0.798   8.120  0.0147  0.8443 -0.5980
   80CHL1  H26A 8394  -0.305   0.707   8.098 -2.0510  2.2095 -0.9952
   80CHL1  H26B 8395  -0.136   0.784   8.135  0.3712  1.4196 -2.3879
   80CHL1  H26C 8396  -0.291   0.838   8.213  2.2393  0.9284  0.5356
   80CHL1   C27 8397  -0.208   1.029   8.032 -0.3213 -0.0792  0.0028
   80CHL1  H27A 8398  -0.098   1.019   8.022 -0.4162  0.5716 -2.1016
   80CHL1  H27B 8399  -0.242   1.094   7.948 -0.2472 -0.9014 -0.6718
   80CHL1  H27C 8400  -0.245   1.079   8.125 -0.4895 -1.2334  0.5750
   81CHL1    C3 8401   4.499   5.049   6.499  0.2984  0.4681  0.9597
   81CHL1    H3 8402   4.415   5.116   6.470 -0.8407 -0.8656  1.0675
   81CHL1    O3 8403   4.588   5.045   6.381 -0.4388 -0.1641 -0.3154
   81CHL1   H3' 8404   4.569   4.963   6.335  0.9076 -1.9416  2.0722
   81CHL1    C4 8405   4.573   5.115   6.618  0.4490 -0.0674 -0.0936
   81CHL1   H4A 8406   4.678   5.083   6.631  0.6001  1.2960  2.8413
   81CHL1   H4B 8407   4.575   5.224   6.593 -0.5688  0.0143  0.1366
   81CHL1    C5 8408   4.494   5.110   6.750 -0.3145 -0.0397  0.6664
   81CHL1    C6 8409   4.472   5.222   6.829 -0.0819  0.5490 -0.5067
   81CHL1    H6 8410   4.500   5.317   6.780  1.7264  0.1468 -0.3160
   81CHL1    C7 8411   4.408   5.213   6.960  0.4915  0.6940  0.4353
   81CHL1   H7A 8412   4.458   5.268   7.042 -1.5979 -0.1490  2.3539
   81CHL1   H7B 8413   4.307   5.256   6.949  0.4844  0.7226  0.6158
   81CHL1    C8 8414   4.398   5.070   7.012  0.3298 -0.6125  0.3942
   81CHL1    H8 8415   4.500   5.043   7.044  1.0638  3.5799  2.3935
   81CHL1   C14 8416   4.288   5.071   7.119  0.1511 -0.6099 -0.4873
   81CHL1   H14 8417   4.194   5.095   7.066  0.1079  0.2254 -0.0513
   81CHL1   C15 8418   4.282   5.171   7.237 -0.1099 -0.3171  0.3170
   81CHL1  H15A 8419   4.387   5.189   7.270  0.4935  2.2213 -2.4753
   81CHL1  H15B 8420   4.246   5.271   7.204 -0.1622 -0.2959  0.4380
   81CHL1   C16 8421   4.196   5.109   7.343  0.1375  0.0749  0.0346
   81CHL1  H16A 8422   4.267   5.096   7.427  2.8079  1.7652 -1.8169
   81CHL1  H16B 8423   4.108   5.172   7.369  0.2490 -0.1104  0.8853
   81CHL1   C17 8424   4.155   4.968   7.299 -0.2044 -1.0563  0.5164
   81CHL1   H17 8425   4.056   4.977   7.249 -0.0225  0.1354  0.3474
   81CHL1   C13 8426   4.266   4.936   7.192 -0.3679 -0.5028 -0.0142
   81CHL1   C18 8427   4.402   4.898   7.258 -0.5784  0.5130 -0.5191
   81CHL1  H18A 8428   4.401   4.801   7.312  3.6991  1.9870  2.7306
   81CHL1  H18B 8429   4.479   4.900   7.178  1.0077  0.3913  0.9620
   81CHL1  H18C 8430   4.440   4.968   7.335  2.3980  0.4830 -1.8093
   81CHL1   C12 8431   4.217   4.838   7.080 -0.2737 -0.2620 -0.1530
   81CHL1  H12A 8432   4.195   4.735   7.116 -1.3506  0.2633  0.7323
   81CHL1  H12B 8433   4.120   4.877   7.044 -0.1336  1.3046  1.1126
   81CHL1   C11 8434   4.314   4.836   6.957  0.0098 -0.7021 -0.2003
   81CHL1  H11A 8435   4.401   4.784   7.002  1.4842  2.3708  0.7700
   81CHL1  H11B 8436   4.283   4.761   6.881 -0.6472 -0.4587 -0.1836
   81CHL1    C9 8437   4.353   4.972   6.898 -0.6627 -0.5411  0.4441
   81CHL1    H9 8438   4.259   5.014   6.856  0.6040  1.4828 -0.5035
   81CHL1   C10 8439   4.452   4.964   6.777  0.3079 -0.2256 -0.2794
   81CHL1   C19 8440   4.571   4.875   6.812  0.5620  0.0316  0.2562
   81CHL1  H19A 8441   4.636   4.858   6.724 -0.4075 -1.9146 -0.1300
   81CHL1  H19B 8442   4.627   4.918   6.898 -2.6676  1.9119  1.6329
   81CHL1  H19C 8443   4.547   4.770   6.840 -0.6343 -0.5676 -2.6081
   81CHL1    C1 8444   4.385   4.909   6.657  0.2855 -0.4632 -0.2110
   81CHL1   H1A 8445   4.368   4.800   6.669  0.5752 -0.5584 -0.6119
   81CHL1   H1B 8446   4.297   4.977   6.651  2.3074  2.3029 -0.9985
   81CHL1    C2 8447   4.468   4.907   6.530  0.3117  0.4405  0.7086
   81CHL1   H2A 8448   4.406   4.852   6.456  1.3388  0.7360 -0.3972
   81CHL1   H2B 8449   4.564   4.852   6.538  1.7662  2.9316  1.5883
   81CHL1   C20 8450   4.139   4.876   7.425 -0.6803  0.0012 -0.3317
   81CHL1   H20 8451   4.240   4.863   7.469 -1.4289  0.1572  1.4918
   81CHL1   C21 8452   4.092   4.742   7.379  0.7710 -0.5581 -0.5767
   81CHL1  H21A 8453   4.011   4.745   7.303 -0.8158  1.3851  1.0765
   81CHL1  H21B 8454   4.055   4.679   7.462  0.5468  0.3192  0.0070
   81CHL1  H21C 8455   4.182   4.690   7.338  1.3645 -0.0218  0.0066
   81CHL1   C22 8456   4.053   4.932   7.544 -0.1699  1.2940  0.6420
   81CHL1  H22A 8457   4.098   5.030   7.571  0.3658  1.1355  0.3499
   81CHL1  H22B 8458   3.951   4.946   7.504 -0.6509  0.8285  1.6605
   81CHL1   C23 8459   4.048   4.836   7.663 -0.3262  1.0955  0.0193
   81CHL1  H23A 8460   3.972   4.758   7.641 -1.6992  2.2090  0.6183
   81CHL1  H23B 8461   4.145   4.783   7.671  0.5684  2.6514 -0.0416
   81CHL1   C24 8462   4.011   4.904   7.796  0.5101  0.3210 -0.2699
   81CHL1  H24A 8463   3.987   4.820   7.864 -0.9190 -1.2237 -2.5104
   81CHL1  H24B 8464   4.097   4.962   7.835  0.0342  0.3240  0.7995
   81CHL1   C25 8465   3.892   4.996   7.798  0.0616  0.3133  0.0369
   81CHL1   H25 8466   3.915   5.083   7.734  1.0867 -0.4203 -0.6254
   81CHL1   C26 8467   3.759   4.926   7.748  0.3397  0.4647 -0.0610
   81CHL1  H26A 8468   3.745   4.830   7.803  0.2513 -0.0878 -1.0226
   81CHL1  H26B 8469   3.669   4.987   7.769 -0.5599 -0.5677 -0.7832
   81CHL1  H26C 8470   3.776   4.902   7.641 -0.6463 -0.9437  0.0648
   81CHL1   C27 8471   3.863   5.037   7.943  0.6983 -0.0311 -0.5580
   81CHL1  H27A 8472   3.778   5.108   7.947  1.3243  0.7075  2.3772
   81CHL1  H27B 8473   3.836   4.950   8.006 -1.0884  0.5046 -0.5385
   81CHL1  H27C 8474   3.952   5.080   7.996 -0.2682  1.5272 -0.1272
   82CHL1    C3 8475   5.826   6.140   6.530 -0.0235 -0.7367 -0.5619
   82CHL1    H3 8476   5.725   6.112   6.566 -1.7072  0.8703 -3.6649
   82CHL1    O3 8477   5.826   6.172   6.393 -0.4448 -0.6099  0.1837
   82CHL1   H3' 8478   5.920   6.186   6.382 -0.4511  0.3464  1.1353
   82CHL1    C4 8479   5.886   6.261   6.604  0.2269  0.3203 -0.0138
   82CHL1   H4A 8480   5.990   6.276   6.565 -0.4111  0.0042 -1.9355
   82CHL1   H4B 8481   5.827   6.354   6.590  0.3393  0.8270  2.5115
   82CHL1    C5 8482   5.904   6.229   6.751 -0.2087  0.4407  0.0268
   82CHL1    C6 8483   5.836   6.295   6.848  0.4012  0.4522 -0.0679
   82CHL1    H6 8484   5.771   6.379   6.818 -0.2437  0.0918  0.3066
   82CHL1    C7 8485   5.864   6.272   6.995 -0.1985 -0.5303  0.1248
   82CHL1   H7A 8486   5.869   6.366   7.054  0.9298 -0.9876  0.7889
   82CHL1   H7B 8487   5.772   6.224   7.035 -0.4202 -0.4748 -0.3118
   82CHL1    C8 8488   5.983   6.175   7.031  0.2485 -0.1764  0.6270
   82CHL1    H8 8489   6.072   6.241   7.016 -0.4361  0.4060 -1.1533
   82CHL1   C14 8490   5.979   6.121   7.174  0.6824  0.2678 -0.3608
   82CHL1   H14 8491   5.896   6.048   7.177  1.9824 -1.3004 -0.7730
   82CHL1   C15 8492   5.960   6.228   7.287 -0.4631 -0.6756 -0.0137
   82CHL1  H15A 8493   6.020   6.321   7.276  0.6539 -1.1892  1.3950
   82CHL1  H15B 8494   5.854   6.258   7.300  0.4983  2.1051  2.7244
   82CHL1   C16 8495   6.016   6.156   7.413  0.4897 -0.2390  0.2547
   82CHL1  H16A 8496   6.091   6.218   7.466  1.2462 -0.6459 -0.3256
   82CHL1  H16B 8497   5.929   6.146   7.482 -1.7327  0.2515 -2.3132
   82CHL1   C17 8498   6.070   6.017   7.371 -0.0601 -0.5332  0.1134
   82CHL1   H17 8499   5.983   5.947   7.373 -0.4531 -0.0614 -0.1476
   82CHL1   C13 8500   6.097   6.027   7.216  0.3359  0.7553  0.4351
   82CHL1   C18 8501   6.236   6.086   7.190  0.1407  0.3417  0.7704
   82CHL1  H18A 8502   6.255   6.168   7.263  0.7038  0.8631  0.0454
   82CHL1  H18B 8503   6.310   6.010   7.220  0.6738  0.5847  0.0773
   82CHL1  H18C 8504   6.260   6.117   7.087 -1.2491 -0.2083  0.2524
   82CHL1   C12 8505   6.080   5.901   7.125  0.1910 -0.3406 -0.0255
   82CHL1  H12A 8506   6.163   5.833   7.153  1.5692  1.5214  0.6486
   82CHL1  H12B 8507   5.988   5.841   7.136  0.8788 -2.5135 -4.1825
   82CHL1   C11 8508   6.087   5.939   6.977 -0.6982  0.2529  0.2006
   82CHL1  H11A 8509   6.190   5.974   6.955  0.1618 -1.6605  0.9527
   82CHL1  H11B 8510   6.081   5.853   6.908  0.7482  0.2477  0.0663
   82CHL1    C9 8511   5.986   6.051   6.935 -0.0732 -0.6695 -0.6619
   82CHL1    H9 8512   5.887   6.007   6.959  0.9925 -1.3487  3.3513
   82CHL1   C10 8513   5.995   6.106   6.789  0.0636 -0.5341 -0.2787
   82CHL1   C19 8514   6.145   6.138   6.751  0.2601  0.3134 -0.4187
   82CHL1  H19A 8515   6.212   6.054   6.781  2.1951  1.4818 -1.3190
   82CHL1  H19B 8516   6.160   6.139   6.641  0.9477  0.1278 -0.3310
   82CHL1  H19C 8517   6.174   6.233   6.800  0.7762 -0.1502  0.1947
   82CHL1    C1 8518   5.944   5.988   6.699 -0.0767 -0.1180 -0.0638
   82CHL1   H1A 8519   6.010   5.898   6.703  0.6283  0.3944 -0.0341
   82CHL1   H1B 8520   5.840   5.959   6.723 -0.6747 -0.0033 -2.3305
   82CHL1    C2 8521   5.926   6.019   6.547  0.0332  0.0949  0.1438
   82CHL1   H2A 8522   5.877   5.931   6.501 -0.6684  0.5175  0.0808
   82CHL1   H2B 8523   6.021   6.046   6.496 -0.5752  0.3200 -0.8817
   82CHL1   C20 8524   6.181   5.968   7.470  0.0855  0.4639  0.2045
   82CHL1   H20 8525   6.270   6.034   7.459  0.6677 -0.2004  0.7750
   82CHL1   C21 8526   6.228   5.828   7.431  1.1941 -0.7668  0.2596
   82CHL1  H21A 8527   6.150   5.751   7.444 -0.1263  0.6319  0.9027
   82CHL1  H21B 8528   6.319   5.802   7.490  1.2975  0.3609  0.6171
   82CHL1  H21C 8529   6.257   5.824   7.324  0.2968 -0.5514  0.0065
   82CHL1   C22 8530   6.130   5.970   7.619 -0.3845 -1.1433  0.0354
   82CHL1  H22A 8531   6.223   5.938   7.670 -0.5267 -0.3968  0.7787
   82CHL1  H22B 8532   6.106   6.077   7.638 -1.5107 -0.6286 -3.4808
   82CHL1   C23 8533   5.998   5.889   7.657 -0.3729  0.1015 -0.4088
   82CHL1  H23A 8534   5.900   5.923   7.617 -2.8769 -5.0201  0.5038
   82CHL1  H23B 8535   6.014   5.790   7.610 -1.5522 -1.5343  2.3596
   82CHL1   C24 8536   5.970   5.867   7.809  0.1293 -0.7248 -0.3612
   82CHL1  H24A 8537   5.952   5.968   7.851 -0.4625 -0.9466 -0.0665
   82CHL1  H24B 8538   5.874   5.812   7.820 -0.3997  0.1136 -0.7017
   82CHL1   C25 8539   6.080   5.801   7.897 -0.0596 -0.1066  0.4266
   82CHL1   H25 8540   6.153   5.882   7.917 -0.4750  0.4577 -0.2661
   82CHL1   C26 8541   6.030   5.741   8.033 -0.3331 -0.8486  0.1917
   82CHL1  H26A 8542   5.978   5.644   8.020 -1.6098 -0.4221  1.8190
   82CHL1  H26B 8543   6.117   5.723   8.100  1.0151  2.6442 -0.3599
   82CHL1  H26C 8544   5.969   5.825   8.073  0.4341  1.5309 -3.1936
   82CHL1   C27 8545   6.164   5.693   7.827 -0.5848  0.4297  0.1570
   82CHL1  H27A 8546   6.240   5.725   7.752  1.6127 -0.8888  1.6764
   82CHL1  H27B 8547   6.216   5.638   7.909  0.6550  3.2966  1.4152
   82CHL1  H27C 8548   6.103   5.620   7.770  0.5427  0.2964 -0.9424
   83CHL1    C3 8549   2.289   1.416   6.721  0.4808 -0.2354  0.7937
   83CHL1    H3 8550   2.357   1.330   6.741 -1.2769 -2.0994 -0.7928
   83CHL1    O3 8551   2.293   1.455   6.582  0.3726  0.0199 -0.5585
   83CHL1   H3' 8552   2.228   1.526   6.580 -0.1158 -0.2027  2.6496
   83CHL1    C4 8553   2.145   1.371   6.756 -1.1760  0.1508 -0.3778
   83CHL1   H4A 8554   2.075   1.448   6.717 -1.9881 -0.3912 -0.0093
   83CHL1   H4B 8555   2.135   1.283   6.689 -0.8748  0.0948 -0.3539
   83CHL1    C5 8556   2.116   1.338   6.905  0.4209 -0.3417  0.5691
   83CHL1    C6 8557   2.058   1.228   6.947 -0.0295 -0.5089 -0.7167
   83CHL1    H6 8558   2.034   1.154   6.869  2.2849  1.4978 -3.5954
   83CHL1    C7 8559   2.033   1.205   7.092 -0.7396  0.3199 -0.1962
   83CHL1   H7A 8560   1.929   1.173   7.111 -0.6275 -0.4128 -0.7572
   83CHL1   H7B 8561   2.095   1.117   7.121 -0.6702 -0.0291 -1.3592
   83CHL1    C8 8562   2.046   1.326   7.185  0.0287  0.7446 -0.3471
   83CHL1    H8 8563   1.954   1.385   7.168  0.4807  1.3192 -0.8661
   83CHL1   C14 8564   2.051   1.279   7.333  0.0183  0.2642  0.0478
   83CHL1   H14 8565   2.143   1.217   7.336  0.1587  0.4863  0.3896
   83CHL1   C15 8566   1.943   1.179   7.386 -0.2111  0.1489 -1.0312
   83CHL1  H15A 8567   1.843   1.207   7.346 -0.7704  1.0448  0.8889
   83CHL1  H15B 8568   1.963   1.072   7.367  0.6351 -0.0057  0.5405
   83CHL1   C16 8569   1.942   1.199   7.540  0.2205 -0.1280 -0.2858
   83CHL1  H16A 8570   1.845   1.223   7.590  0.1199 -1.4069  0.1666
   83CHL1  H16B 8571   1.975   1.104   7.587 -0.0058  0.2906  0.7525
   83CHL1   C17 8572   2.048   1.315   7.565  0.0281  0.3793 -0.3545
   83CHL1   H17 8573   2.147   1.269   7.582 -0.9138 -1.2153  1.1070
   83CHL1   C13 8574   2.060   1.395   7.429 -0.9467 -0.2840 -0.2093
   83CHL1   C18 8575   1.940   1.493   7.411  0.2618 -0.2821 -0.4539
   83CHL1  H18A 8576   1.843   1.440   7.425  0.7902 -0.8504  1.4033
   83CHL1  H18B 8577   1.936   1.578   7.484 -1.8996  0.1786 -1.0469
   83CHL1  H18C 8578   1.937   1.538   7.310  0.5342  1.1879  0.1515
   83CHL1   C12 8579   2.199   1.467   7.401  0.6746  0.5890  0.4823
   83CHL1  H12A 8580   2.226   1.548   7.472  1.8758 -0.1290  0.8820
   83CHL1  H12B 8581   2.287   1.400   7.415 -0.5249 -1.0118  0.6791
   83CHL1   C11 8582   2.201   1.513   7.252  0.0644  0.0696 -0.0409
   83CHL1  H11A 8583   2.135   1.601   7.241 -1.2007 -0.6092  1.6772
   83CHL1  H11B 8584   2.303   1.554   7.236  0.0759  0.3662  0.7542
   83CHL1    C9 8585   2.165   1.403   7.148 -0.7580 -0.2512 -0.2161
   83CHL1    H9 8586   2.244   1.325   7.157 -1.6475 -1.1361  0.2458
   83CHL1   C10 8587   2.158   1.448   7.001  1.2216  0.4245  0.3922
   83CHL1   C19 8588   2.062   1.565   6.977  0.2139  0.4062 -0.1863
   83CHL1  H19A 8589   2.093   1.654   7.036  2.1884 -1.5911  2.0219
   83CHL1  H19B 8590   2.046   1.591   6.870  2.2305  0.5425 -0.5086
   83CHL1  H19C 8591   1.963   1.550   7.023  0.3088 -1.5221 -0.5249
   83CHL1    C1 8592   2.302   1.489   6.957 -0.1238 -0.1730 -0.6388
   83CHL1   H1A 8593   2.330   1.578   7.018 -1.2002 -0.1629 -0.1379
   83CHL1   H1B 8594   2.368   1.405   6.988  0.4829  0.7817  0.7926
   83CHL1    C2 8595   2.322   1.525   6.812 -0.6457 -0.8042 -0.2243
   83CHL1   H2A 8596   2.427   1.550   6.788 -0.3240 -0.9736  0.9193
   83CHL1   H2B 8597   2.262   1.616   6.792 -1.3052 -1.0927  0.3955
   83CHL1   C20 8598   2.011   1.400   7.687 -0.1742  0.6353  0.6705
   83CHL1   H20 8599   1.920   1.459   7.665 -0.8611 -0.8631 -0.7093
   83CHL1   C21 8600   2.132   1.486   7.722  0.1616 -0.0568  0.1147
   83CHL1  H21A 8601   2.162   1.571   7.657 -1.1790 -0.2361 -0.7768
   83CHL1  H21B 8602   2.221   1.423   7.744 -0.1051 -0.6465 -0.4762
   83CHL1  H21C 8603   2.114   1.542   7.817 -0.0515  0.4775 -0.2380
   83CHL1   C22 8604   1.983   1.300   7.805 -0.4787  0.4203 -0.0488
   83CHL1  H22A 8605   1.895   1.235   7.787 -1.1228  0.6796  1.8944
   83CHL1  H22B 8606   2.059   1.221   7.821 -1.0049 -0.0696  0.0873
   83CHL1   C23 8607   1.974   1.364   7.944 -0.5432 -0.4099 -0.1513
   83CHL1  H23A 8608   2.074   1.393   7.984 -0.8465  0.2171  0.1755
   83CHL1  H23B 8609   1.907   1.453   7.939  1.0465  0.7468 -3.3219
   83CHL1   C24 8610   1.903   1.279   8.049 -0.2917 -0.4770 -0.0858
   83CHL1  H24A 8611   1.797   1.277   8.016 -0.2052 -0.1935 -0.3854
   83CHL1  H24B 8612   1.945   1.176   8.057  2.9080  0.8287  1.2309
   83CHL1   C25 8613   1.923   1.329   8.191  0.5534 -0.1022 -0.7381
   83CHL1   H25 8614   2.026   1.302   8.221 -0.5917 -0.3372  3.6477
   83CHL1   C26 8615   1.880   1.476   8.199  0.0627 -0.5292 -0.0358
   83CHL1  H26A 8616   1.778   1.477   8.155 -0.5446 -0.7535  1.3322
   83CHL1  H26B 8617   1.873   1.509   8.305 -0.0713  1.5939 -0.6553
   83CHL1  H26C 8618   1.951   1.541   8.144  2.5480 -1.5080  1.8638
   83CHL1   C27 8619   1.826   1.258   8.285 -0.1472  0.1084 -0.1081
   83CHL1  H27A 8620   1.814   1.153   8.250 -1.8612  0.6127 -1.1716
   83CHL1  H27B 8621   1.848   1.278   8.392 -0.2686  1.1839 -0.2724
   83CHL1  H27C 8622   1.729   1.308   8.264  0.9452  2.5411  0.2462
   84CHL1    C3 8623   6.810   4.221   6.571 -0.0383 -0.5497  0.3599
   84CHL1    H3 8624   6.886   4.302   6.572 -0.8468  0.2192  0.7341
   84CHL1    O3 8625   6.766   4.186   6.438 -0.1102  0.1486 -0.1051
   84CHL1   H3' 8626   6.672   4.167   6.444  0.3285 -2.9614 -1.0650
   84CHL1    C4 8627   6.859   4.095   6.637 -0.7853  0.3046 -0.1837
   84CHL1   H4A 8628   6.781   4.016   6.624  0.0942 -0.7066  0.5027
   84CHL1   H4B 8629   6.950   4.061   6.583 -0.4645 -0.9372  1.0748
   84CHL1    C5 8630   6.874   4.117   6.786  0.2436 -0.5031 -0.5589
   84CHL1    C6 8631   6.994   4.090   6.834 -0.4308  0.3133 -0.8836
   84CHL1    H6 8632   7.065   4.036   6.769  1.8411  0.5226  1.2920
   84CHL1    C7 8633   7.028   4.105   6.982  0.2434 -0.4596  0.5338
   84CHL1   H7A 8634   7.081   4.014   7.017 -1.9446 -2.2828 -0.6686
   84CHL1   H7B 8635   7.105   4.186   6.987 -0.4289  0.1669  0.9223
   84CHL1    C8 8636   6.910   4.138   7.077  0.4002  0.3951  0.3462
   84CHL1    H8 8637   6.856   4.043   7.095  0.8374 -0.0129 -0.4422
   84CHL1   C14 8638   6.969   4.194   7.205  0.4056  0.1348  0.1168
   84CHL1   H14 8639   7.020   4.290   7.180  2.5142 -0.9968 -0.1606
   84CHL1   C15 8640   7.079   4.111   7.266  0.2913 -0.1178 -0.2592
   84CHL1  H15A 8641   7.060   4.003   7.281  0.5378 -0.5983 -2.8641
   84CHL1  H15B 8642   7.171   4.124   7.205  0.1445  1.8764 -0.1292
   84CHL1   C16 8643   7.079   4.172   7.409 -0.7128 -0.1455 -1.1184
   84CHL1  H16A 8644   7.081   4.096   7.490  0.9086 -0.6427 -1.5994
   84CHL1  H16B 8645   7.168   4.236   7.418 -0.3717 -0.6269 -1.0172
   84CHL1   C17 8646   6.955   4.268   7.425  0.3054 -0.2610  0.5003
   84CHL1   H17 8647   6.985   4.369   7.389 -0.7370 -0.4580 -1.0243
   84CHL1   C13 8648   6.862   4.221   7.310 -0.8529 -0.3902 -0.4159
   84CHL1   C18 8649   6.794   4.091   7.351  0.3179 -0.4770  0.2448
   84CHL1  H18A 8650   6.741   4.045   7.265 -1.5471 -2.6472  2.4393
   84CHL1  H18B 8651   6.859   4.020   7.407  1.0933  0.2402  0.2868
   84CHL1  H18C 8652   6.706   4.116   7.414 -0.2136  0.2395 -0.7562
   84CHL1   C12 8653   6.768   4.330   7.252  0.7067 -0.1259 -0.1582
   84CHL1  H12A 8654   6.684   4.352   7.321  0.7763  1.5188 -0.5629
   84CHL1  H12B 8655   6.816   4.426   7.223  0.2229 -0.4200 -2.0841
   84CHL1   C11 8656   6.714   4.288   7.109  0.4593  0.4204 -0.5489
   84CHL1  H11A 8657   6.646   4.203   7.129 -0.3449  1.8038  3.5443
   84CHL1  H11B 8658   6.654   4.371   7.066 -2.7380 -2.2971 -1.8071
   84CHL1    C9 8659   6.826   4.237   7.012 -0.2007 -1.0240 -0.1032
   84CHL1    H9 8660   6.897   4.322   7.002  2.8356 -3.1912  1.4594
   84CHL1   C10 8661   6.768   4.194   6.868 -0.4959  0.2540 -0.3952
   84CHL1   C19 8662   6.654   4.090   6.899  0.5523 -0.5358  0.6858
   84CHL1  H19A 8663   6.686   4.001   6.958  2.3694  0.9183  1.9957
   84CHL1  H19B 8664   6.565   4.128   6.952  0.9220 -1.5030  2.0468
   84CHL1  H19C 8665   6.613   4.060   6.800  0.3742  2.7707 -0.3402
   84CHL1    C1 8666   6.706   4.307   6.795 -0.0382  0.1626  0.0059
   84CHL1   H1A 8667   6.615   4.347   6.845  0.4020  1.3099 -0.0787
   84CHL1   H1B 8668   6.775   4.392   6.810  1.6650 -1.4395  1.8534
   84CHL1    C2 8669   6.679   4.267   6.651 -0.2623 -0.3911  0.4005
   84CHL1   H2A 8670   6.649   4.355   6.590  2.5592  0.8369  0.6205
   84CHL1   H2B 8671   6.603   4.187   6.647 -1.8659  1.1221 -1.2214
   84CHL1   C20 8672   6.896   4.270   7.563 -0.9641 -0.6890 -0.2485
   84CHL1   H20 8673   6.875   4.164   7.586 -1.6287 -0.2967  1.0100
   84CHL1   C21 8674   6.774   4.370   7.574  0.1672 -0.5177  0.3908
   84CHL1  H21A 8675   6.690   4.328   7.514 -0.1144 -0.2534  0.5987
   84CHL1  H21B 8676   6.807   4.469   7.536 -2.0981 -0.0305 -0.4591
   84CHL1  H21C 8677   6.734   4.381   7.677 -0.8008 -3.1565  0.3783
   84CHL1   C22 8678   7.003   4.318   7.671 -0.2129  0.1600  0.4386
   84CHL1  H22A 8679   7.104   4.285   7.640 -1.1694 -1.2927 -1.2876
   84CHL1  H22B 8680   7.002   4.429   7.670  0.8067  0.2296  2.3457
   84CHL1   C23 8681   6.975   4.300   7.817 -0.6180  0.0461  0.4240
   84CHL1  H23A 8682   6.865   4.311   7.833 -0.4988  1.1268  0.5645
   84CHL1  H23B 8683   6.996   4.194   7.842 -1.1122 -0.1242  0.1242
   84CHL1   C24 8684   7.065   4.384   7.904  0.2251 -0.0375  0.3779
   84CHL1  H24A 8685   7.166   4.386   7.857  0.6555 -2.4416  1.0726
   84CHL1  H24B 8686   7.022   4.486   7.894  1.2570  0.4903  1.1902
   84CHL1   C25 8687   7.076   4.346   8.054 -0.5024  0.0191 -0.3190
   84CHL1   H25 8688   7.112   4.241   8.058  1.8330  0.7509 -0.8423
   84CHL1   C26 8689   7.179   4.427   8.126  0.2653  0.7480  0.0625
   84CHL1  H26A 8690   7.155   4.535   8.115  0.3486  0.5536 -2.8653
   84CHL1  H26B 8691   7.179   4.396   8.233  0.0600  0.6078  0.0219
   84CHL1  H26C 8692   7.276   4.410   8.074  0.8829  0.2562  1.3388
   84CHL1   C27 8693   6.943   4.357   8.132  0.1665  0.6222  0.3669
   84CHL1  H27A 8694   6.974   4.352   8.238  1.2348 -1.0415  0.0130
   84CHL1  H27B 8695   6.882   4.446   8.107 -0.1499  0.1485 -0.6058
   84CHL1  H27C 8696   6.872   4.272   8.129  0.1811  0.5919  0.8290
   85CHL1    C3 8697   2.708   6.759   6.493 -0.1174 -0.3500  0.6094
   85CHL1    H3 8698   2.803   6.712   6.525 -1.1874  0.3516  5.5246
   85CHL1    O3 8699   2.705   6.738   6.355  0.1360  0.6028 -0.0721
   85CHL1   H3' 8700   2.624   6.779   6.325 -1.2886 -1.9890 -0.0379
   85CHL1    C4 8701   2.595   6.680   6.565 -0.5971 -0.5569  0.3884
   85CHL1   H4A 8702   2.495   6.696   6.519 -0.7432 -2.1782  0.0951
   85CHL1   H4B 8703   2.615   6.571   6.559 -0.9011 -0.5735 -0.5249
   85CHL1    C5 8704   2.577   6.719   6.711  0.3525 -0.0524  0.2782
   85CHL1    C6 8705   2.570   6.625   6.813  0.1141 -0.0990  0.1949
   85CHL1    H6 8706   2.552   6.522   6.778  0.1008  0.3252 -1.1360
   85CHL1    C7 8707   2.559   6.666   6.956  0.2130 -0.5252  0.5114
   85CHL1   H7A 8708   2.486   6.608   7.016 -0.7585  0.4530  0.3003
   85CHL1   H7B 8709   2.655   6.653   7.009  0.0910 -2.0812  0.3944
   85CHL1    C8 8710   2.510   6.806   6.982 -0.8900 -0.3168  0.3477
   85CHL1    H8 8711   2.403   6.805   6.950 -1.0101  0.0027  0.7260
   85CHL1   C14 8712   2.515   6.840   7.133  0.0341  0.3954  0.3507
   85CHL1   H14 8713   2.623   6.838   7.156  0.1326  0.4332 -0.0912
   85CHL1   C15 8714   2.449   6.753   7.236  0.0921  0.0187  0.3100
   85CHL1  H15A 8715   2.343   6.733   7.209 -0.0085  0.3108  0.4927
   85CHL1  H15B 8716   2.499   6.655   7.252 -0.2926 -0.5393 -1.5871
   85CHL1   C16 8717   2.447   6.841   7.365  0.2847 -0.9811  0.7472
   85CHL1  H16A 8718   2.345   6.849   7.408  1.3905  2.2268  3.1647
   85CHL1  H16B 8719   2.510   6.798   7.446  2.5586 -0.0433 -0.4349
   85CHL1   C17 8720   2.495   6.981   7.323 -0.2205  0.1927 -0.1894
   85CHL1   H17 8721   2.605   6.981   7.336 -0.3543 -4.3593  3.3187
   85CHL1   C13 8722   2.470   6.981   7.170 -0.5963 -0.3469 -0.0194
   85CHL1   C18 8723   2.325   6.995   7.138 -0.4417  0.0390 -0.4656
   85CHL1  H18A 8724   2.313   6.992   7.028  0.4601  0.6490 -0.5861
   85CHL1  H18B 8725   2.268   6.916   7.192  3.7114 -2.6143  0.5900
   85CHL1  H18C 8726   2.286   7.093   7.172 -1.0584 -0.0951 -0.7665
   85CHL1   C12 8727   2.546   7.082   7.088  0.4487  0.2534 -0.0401
   85CHL1  H12A 8728   2.509   7.186   7.105 -0.4554 -0.2369  1.1028
   85CHL1  H12B 8729   2.655   7.091   7.107  0.3804 -1.5414  1.4667
   85CHL1   C11 8730   2.540   7.056   6.939 -0.1282  0.1555  0.9183
   85CHL1  H11A 8731   2.435   7.076   6.907 -0.3321 -0.0321  1.4603
   85CHL1  H11B 8732   2.592   7.133   6.879 -0.1465  0.3690  1.1771
   85CHL1    C9 8733   2.581   6.912   6.897  0.5480 -0.4930 -0.1294
   85CHL1    H9 8734   2.687   6.902   6.930  0.5053  2.2036  1.1018
   85CHL1   C10 8735   2.574   6.871   6.744 -0.5249  0.3051  0.0464
   85CHL1   C19 8736   2.441   6.929   6.695 -0.6364 -0.9585 -0.4323
   85CHL1  H19A 8737   2.358   6.904   6.764 -1.3105 -0.3909 -1.0370
   85CHL1  H19B 8738   2.453   7.039   6.702 -1.2427 -0.9189  0.0559
   85CHL1  H19C 8739   2.404   6.913   6.592 -1.5373 -0.3961 -0.2069
   85CHL1    C1 8740   2.700   6.935   6.675 -0.5256  0.5176 -0.1381
   85CHL1   H1A 8741   2.713   7.044   6.689 -0.7796  0.6902 -1.2020
   85CHL1   H1B 8742   2.789   6.891   6.726 -0.2536  2.2282  0.9248
   85CHL1    C2 8743   2.715   6.908   6.519 -0.3458  0.2752  0.1906
   85CHL1   H2A 8744   2.813   6.949   6.485 -0.2939 -0.2243 -0.2907
   85CHL1   H2B 8745   2.629   6.959   6.472 -0.4507 -0.8751 -0.9357
   85CHL1   C20 8746   2.433   7.086   7.421 -0.9306 -0.2219 -0.0666
   85CHL1   H20 8747   2.323   7.094   7.407 -0.9170 -0.8992 -0.6036
   85CHL1   C21 8748   2.488   7.231   7.387  0.5598  0.3694  0.0190
   85CHL1  H21A 8749   2.592   7.244   7.425  0.0766 -1.3623  2.1480
   85CHL1  H21B 8750   2.441   7.310   7.449 -0.2680  0.5068 -0.7736
   85CHL1  H21C 8751   2.476   7.247   7.278  0.4459 -0.2069 -0.0557
   85CHL1   C22 8752   2.451   7.047   7.573 -0.0002 -0.1459  0.0332
   85CHL1  H22A 8753   2.408   6.947   7.593 -3.7702  1.0126 -1.4733
   85CHL1  H22B 8754   2.561   7.042   7.588 -0.0278  0.2950  0.3901
   85CHL1   C23 8755   2.392   7.148   7.668 -0.4299  0.4323 -0.5437
   85CHL1  H23A 8756   2.428   7.250   7.640  2.3777 -0.4744 -0.4839
   85CHL1  H23B 8757   2.281   7.144   7.669 -0.4425  0.6751  1.0865
   85CHL1   C24 8758   2.435   7.129   7.814 -0.8978 -0.1665  0.2321
   85CHL1  H24A 8759   2.405   7.024   7.834 -1.7944 -0.4409 -2.2577
   85CHL1  H24B 8760   2.546   7.128   7.814 -0.7728  2.1257  2.0946
   85CHL1   C25 8761   2.376   7.241   7.915 -0.1023  0.5320 -0.9982
   85CHL1   H25 8762   2.431   7.336   7.896  0.1595  0.3733 -1.0310
   85CHL1   C26 8763   2.229   7.264   7.897 -0.2112  0.1578 -0.1649
   85CHL1  H26A 8764   2.214   7.305   7.795 -0.2854 -1.6897 -0.9459
   85CHL1  H26B 8765   2.176   7.167   7.908 -0.0626  0.1727  0.7455
   85CHL1  H26C 8766   2.193   7.334   7.975  2.8847  0.6993  0.9018
   85CHL1   C27 8767   2.416   7.186   8.058  0.2588  0.1722 -0.2342
   85CHL1  H27A 8768   2.360   7.090   8.062 -1.0551  0.8252 -2.0895
   85CHL1  H27B 8769   2.522   7.153   8.067  0.1916 -0.0400 -0.1968
   85CHL1  H27C 8770   2.388   7.258   8.137  1.9270 -0.6793  1.2230
   86CHL1    C3 8771   5.214   6.348   6.494  0.1420 -0.3654 -0.0965
   86CHL1    H3 8772   5.107   6.375   6.498 -0.2451 -1.9166  2.3902
   86CHL1    O3 8773   5.253   6.305   6.363 -0.1877 -0.1148 -0.1638
   86CHL1   H3' 8774   5.322   6.363   6.331  0.0185 -0.9980 -1.3894
   86CHL1    C4 8775   5.311   6.472   6.526 -0.2598 -0.1966  0.2769
   86CHL1   H4A 8776   5.418   6.445   6.514  0.1797  1.0618  1.1789
   86CHL1   H4B 8777   5.278   6.538   6.443 -0.0778  1.6818  1.6575
   86CHL1    C5 8778   5.293   6.520   6.665  0.0225 -0.5360 -0.2001
   86CHL1    C6 8779   5.268   6.652   6.693  0.2160 -0.0660  0.1498
   86CHL1    H6 8780   5.262   6.723   6.610  1.1627  2.4419  2.1007
   86CHL1    C7 8781   5.273   6.702   6.835 -0.1795  0.1042 -0.0883
   86CHL1   H7A 8782   5.331   6.796   6.825 -2.4114  1.5252 -0.5603
   86CHL1   H7B 8783   5.170   6.720   6.872 -1.1278 -2.2138 -1.3925
   86CHL1    C8 8784   5.339   6.613   6.939  0.4543 -0.3097  0.7812
   86CHL1    H8 8785   5.449   6.615   6.921  0.3175  2.3128 -0.1411
   86CHL1   C14 8786   5.310   6.660   7.081 -0.3354 -0.6468  0.3427
   86CHL1   H14 8787   5.202   6.641   7.102  0.1793 -2.9190  1.2445
   86CHL1   C15 8788   5.340   6.805   7.121  0.6820 -0.2198  0.4741
   86CHL1  H15A 8789   5.447   6.812   7.093  0.6609 -2.7214 -0.5496
   86CHL1  H15B 8790   5.269   6.870   7.065  0.6934 -2.1367 -1.9588
   86CHL1   C16 8791   5.333   6.814   7.273 -0.2146  0.2878 -0.4892
   86CHL1  H16A 8792   5.427   6.859   7.310  1.5899 -1.6158 -2.4559
   86CHL1  H16B 8793   5.242   6.858   7.318  0.4795  3.4216 -1.8991
   86CHL1   C17 8794   5.323   6.666   7.317 -0.0808  0.3463  0.2552
   86CHL1   H17 8795   5.217   6.636   7.333  0.6755 -2.5170  0.4185
   86CHL1   C13 8796   5.370   6.579   7.193 -0.3683 -0.2796 -0.0775
   86CHL1   C18 8797   5.527   6.580   7.198 -1.3510 -0.0653  0.2663
   86CHL1  H18A 8798   5.568   6.683   7.212 -1.4581 -0.3795  4.0087
   86CHL1  H18B 8799   5.558   6.529   7.292  0.3090  0.1944 -0.1100
   86CHL1  H18C 8800   5.564   6.529   7.107  0.7821  1.6707  0.0473
   86CHL1   C12 8801   5.310   6.437   7.173  0.4103 -0.3586  0.5531
   86CHL1  H12A 8802   5.346   6.366   7.250  1.3764  0.4551  0.8640
   86CHL1  H12B 8803   5.199   6.432   7.183  0.4123 -2.0419  0.0834
   86CHL1   C11 8804   5.332   6.384   7.034 -0.1612  0.1060 -0.3748
   86CHL1  H11A 8805   5.440   6.360   7.024 -0.2209  0.0407 -0.8938
   86CHL1  H11B 8806   5.271   6.292   7.025  0.4520 -0.3460 -0.0291
   86CHL1    C9 8807   5.289   6.469   6.912 -0.0889  0.4330 -0.1118
   86CHL1    H9 8808   5.178   6.473   6.917 -0.3132 -2.1208 -1.4534
   86CHL1   C10 8809   5.315   6.412   6.770  0.2606  0.6578  0.3369
   86CHL1   C19 8810   5.464   6.372   6.765  0.1880 -0.5200 -0.3936
   86CHL1  H19A 8811   5.489   6.339   6.662  0.6547 -1.7644  0.0898
   86CHL1  H19B 8812   5.534   6.455   6.786  1.3689 -1.7333  0.6915
   86CHL1  H19C 8813   5.486   6.292   6.840 -1.5326 -0.3801  0.3148
   86CHL1    C1 8814   5.227   6.288   6.738 -0.1489  0.5328 -0.3107
   86CHL1   H1A 8815   5.266   6.210   6.806 -1.7392 -0.4942 -0.5536
   86CHL1   H1B 8816   5.119   6.310   6.750 -0.0769  1.7702 -1.6045
   86CHL1    C2 8817   5.248   6.234   6.591  0.3174 -0.1721 -0.6883
   86CHL1   H2A 8818   5.174   6.152   6.578 -0.9981  1.0531 -1.1863
   86CHL1   H2B 8819   5.353   6.203   6.574  0.8233  0.0158  1.7043
   86CHL1   C20 8820   5.388   6.633   7.461 -0.5410  0.2070  0.7021
   86CHL1   H20 8821   5.497   6.654   7.463 -0.4850  0.0876  3.7943
   86CHL1   C21 8822   5.369   6.477   7.490  0.6008 -0.4562 -0.3918
   86CHL1  H21A 8823   5.390   6.461   7.598  2.4496 -0.0904 -0.6604
   86CHL1  H21B 8824   5.443   6.413   7.438  0.8455  0.8047 -1.6441
   86CHL1  H21C 8825   5.268   6.439   7.463 -0.0479  1.3810 -0.7149
   86CHL1   C22 8826   5.340   6.722   7.573 -0.3938 -0.3292 -0.2208
   86CHL1  H22A 8827   5.326   6.828   7.544  2.2860 -0.7407 -3.7895
   86CHL1  H22B 8828   5.252   6.681   7.627 -0.1903 -4.2016 -2.4527
   86CHL1   C23 8829   5.449   6.730   7.687  0.2142 -0.0569 -0.2808
   86CHL1  H23A 8830   5.472   6.626   7.716 -2.3577 -0.2097  1.6044
   86CHL1  H23B 8831   5.535   6.791   7.654  0.2502  1.1989  1.9254
   86CHL1   C24 8832   5.397   6.801   7.816  0.1935 -0.5194 -0.2468
   86CHL1  H24A 8833   5.345   6.893   7.784 -2.9565 -2.1549 -0.2841
   86CHL1  H24B 8834   5.306   6.741   7.842  0.5812 -0.7316  0.6407
   86CHL1   C25 8835   5.489   6.816   7.927 -0.7590 -0.3704  0.1854
   86CHL1   H25 8836   5.530   6.716   7.955  0.6209 -0.0764 -0.7049
   86CHL1   C26 8837   5.609   6.915   7.905  0.0816  0.1943  0.2578
   86CHL1  H26A 8838   5.681   6.869   7.834 -0.1986 -0.5516  0.4391
   86CHL1  H26B 8839   5.550   6.998   7.860 -0.7072 -0.8232 -0.6617
   86CHL1  H26C 8840   5.661   6.934   8.001  0.7630 -0.6569  0.0738
   86CHL1   C27 8841   5.401   6.859   8.044 -0.2606 -0.2611 -0.1569
   86CHL1  H27A 8842   5.341   6.776   8.088  0.5275  0.0026  1.4923
   86CHL1  H27B 8843   5.459   6.891   8.133 -1.9110 -2.6550  1.9225
   86CHL1  H27C 8844   5.342   6.946   8.010 -0.6589 -0.4927 -0.0584
   87CHL1    C3 8845   6.263   4.299   6.565  0.1896 -0.1409 -0.1143
   87CHL1    H3 8846   6.369   4.267   6.574 -0.5354 -2.3891  1.1926
   87CHL1    O3 8847   6.253   4.293   6.424  0.5741  0.3783  0.3425
   87CHL1   H3' 8848   6.161   4.317   6.407 -0.2759 -2.9953 -0.6360
   87CHL1    C4 8849   6.176   4.196   6.635 -0.1466 -0.6680 -0.2337
   87CHL1   H4A 8850   6.071   4.215   6.604  0.4607  1.5599 -1.1798
   87CHL1   H4B 8851   6.198   4.101   6.581  0.1066  0.3901 -2.1007
   87CHL1    C5 8852   6.203   4.194   6.779  0.8346 -0.3051  0.2411
   87CHL1    C6 8853   6.237   4.080   6.831  0.1133  0.3765  0.0416
   87CHL1    H6 8854   6.242   3.987   6.773 -0.9831  1.2152 -1.4621
   87CHL1    C7 8855   6.258   4.062   6.978  0.9051 -0.9167  0.1665
   87CHL1   H7A 8856   6.198   3.974   7.008 -0.1097 -0.0207  0.8567
   87CHL1   H7B 8857   6.363   4.031   6.999  1.2622  0.0314 -0.1211
   87CHL1    C8 8858   6.224   4.182   7.071 -0.4121 -0.5037  0.8002
   87CHL1    H8 8859   6.115   4.177   7.090 -0.7168 -0.1674 -0.7122
   87CHL1   C14 8860   6.306   4.185   7.199  0.2274 -0.0435 -0.1107
   87CHL1   H14 8861   6.412   4.195   7.168 -0.0405 -1.3671 -1.5971
   87CHL1   C15 8862   6.303   4.050   7.293 -0.5372 -1.0264 -0.5055
   87CHL1  H15A 8863   6.195   4.023   7.299 -1.3774  1.8543 -1.3901
   87CHL1  H15B 8864   6.351   3.961   7.247  0.3752  0.0176 -1.6339
   87CHL1   C16 8865   6.361   4.102   7.425  0.3758 -0.5239 -0.0743
   87CHL1  H16A 8866   6.293   4.054   7.499  0.1538  0.2706  0.2494
   87CHL1  H16B 8867   6.463   4.059   7.421  0.7300  0.3134 -0.2120
   87CHL1   C17 8868   6.361   4.254   7.416  0.6327  0.1333 -0.6592
   87CHL1   H17 8869   6.465   4.288   7.397  1.9045 -2.2275  1.4477
   87CHL1   C13 8870   6.273   4.300   7.296  0.4459 -0.5266 -0.1428
   87CHL1   C18 8871   6.119   4.291   7.331 -0.1946 -0.0466 -0.3866
   87CHL1  H18A 8872   6.056   4.292   7.239 -0.5529 -1.0031 -0.1684
   87CHL1  H18B 8873   6.085   4.193   7.370 -0.0092 -0.2668 -0.7681
   87CHL1  H18C 8874   6.080   4.376   7.390  0.0040  0.4819 -1.0061
   87CHL1   C12 8875   6.302   4.433   7.224 -0.6366 -0.3145 -0.1877
   87CHL1  H12A 8876   6.266   4.524   7.276 -0.7860 -0.3917 -0.1544
   87CHL1  H12B 8877   6.409   4.448   7.201  0.1692 -2.5352  1.7540
   87CHL1   C11 8878   6.236   4.436   7.087  0.1105 -0.8813  0.7961
   87CHL1  H11A 8879   6.126   4.442   7.102  0.0674 -0.9389  0.5138
   87CHL1  H11B 8880   6.264   4.522   7.022  3.1735 -1.7494  0.7858
   87CHL1    C9 8881   6.257   4.311   7.000 -0.8313  0.6639 -0.0359
   87CHL1    H9 8882   6.366   4.314   6.978 -0.8554  2.0898 -0.0653
   87CHL1   C10 8883   6.188   4.320   6.858  0.1963  0.3825  0.4630
   87CHL1   C19 8884   6.046   4.359   6.875 -0.5285 -0.3057 -0.0982
   87CHL1  H19A 8885   6.031   4.451   6.935 -1.7793 -0.9750  0.6640
   87CHL1  H19B 8886   5.999   4.391   6.779 -0.6269  1.3095  0.4698
   87CHL1  H19C 8887   5.982   4.283   6.926 -0.4009 -0.7108 -0.5307
   87CHL1    C1 8888   6.256   4.432   6.780 -1.0470  0.9584 -0.2031
   87CHL1   H1A 8889   6.227   4.530   6.825 -2.0920  0.6242 -0.1236
   87CHL1   H1B 8890   6.367   4.431   6.792 -1.3548  0.3663  4.3129
   87CHL1    C2 8891   6.235   4.436   6.625 -0.3896  0.0121 -0.0321
   87CHL1   H2A 8892   6.295   4.513   6.572  2.8531 -1.3407  1.4219
   87CHL1   H2B 8893   6.130   4.472   6.614 -0.0018  1.3557  0.4828
   87CHL1   C20 8894   6.328   4.315   7.553  0.6301 -0.0670  0.1448
   87CHL1   H20 8895   6.226   4.281   7.580  0.4531  0.6481  0.3913
   87CHL1   C21 8896   6.330   4.468   7.544  0.1359 -0.2209  0.1653
   87CHL1  H21A 8897   6.316   4.519   7.642  0.4093  1.4673 -0.6417
   87CHL1  H21B 8898   6.247   4.513   7.485 -0.3281 -0.9725  0.2202
   87CHL1  H21C 8899   6.421   4.514   7.501 -0.1791 -0.3184 -0.6317
   87CHL1   C22 8900   6.422   4.254   7.662  0.0844  0.1629  0.3394
   87CHL1  H22A 8901   6.404   4.147   7.684 -0.0785 -0.0724 -0.8755
   87CHL1  H22B 8902   6.527   4.267   7.629  0.3257  1.1373  1.3873
   87CHL1   C23 8903   6.413   4.314   7.803  0.6218 -0.3986  0.4240
   87CHL1  H23A 8904   6.471   4.408   7.795 -1.6353  1.0834  0.3221
   87CHL1  H23B 8905   6.307   4.342   7.822  1.4743  0.8893  3.8634
   87CHL1   C24 8906   6.470   4.229   7.915 -0.2716 -0.6998 -0.1502
   87CHL1  H24A 8907   6.402   4.143   7.932 -2.4945  1.0579  0.3512
   87CHL1  H24B 8908   6.567   4.189   7.878 -0.7926 -0.0930 -2.2931
   87CHL1   C25 8909   6.489   4.310   8.041  0.0116  0.4347  0.4574
   87CHL1   H25 8910   6.548   4.401   8.017  0.1645 -0.2556 -2.0929
   87CHL1   C26 8911   6.347   4.360   8.086 -0.8109 -0.4667  0.2529
   87CHL1  H26A 8912   6.277   4.276   8.103  0.8476 -2.5652 -2.4958
   87CHL1  H26B 8913   6.358   4.410   8.185  2.8046 -1.6871  0.6209
   87CHL1  H26C 8914   6.293   4.417   8.007 -1.2183  0.2896  1.0573
   87CHL1   C27 8915   6.558   4.235   8.153 -0.2084 -0.0940  1.1931
   87CHL1  H27A 8916   6.651   4.183   8.121 -0.6460 -1.3116  1.8298
   87CHL1  H27B 8917   6.578   4.305   8.237  0.7236  0.0039  0.8995
   87CHL1  H27C 8918   6.500   4.151   8.197 -0.1482 -0.7217  0.1132
   88CHL1    C3 8919   4.365   2.309   6.883  0.3253  0.0878  0.1395
   88CHL1    H3 8920   4.445   2.238   6.914  2.1330  3.1260  3.0901
   88CHL1    O3 8921   4.332   2.282   6.747  0.3702  0.2096  0.5269
   88CHL1   H3' 8922   4.258   2.220   6.751  0.7111 -0.3511 -1.0283
   88CHL1    C4 8923   4.239   2.291   6.967 -0.3083 -0.4139  0.3652
   88CHL1   H4A 8924   4.158   2.357   6.930  1.1756  0.1920 -2.0110
   88CHL1   H4B 8925   4.208   2.185   6.954  1.4496 -0.9326  0.1239
   88CHL1    C5 8926   4.262   2.330   7.110  0.3626  0.0399 -0.1510
   88CHL1    C6 8927   4.240   2.231   7.206  0.0549 -0.2356  0.0127
   88CHL1    H6 8928   4.201   2.131   7.182  0.2282 -0.6479  1.3853
   88CHL1    C7 8929   4.267   2.248   7.351  0.1501 -0.1078  0.1365
   88CHL1   H7A 8930   4.173   2.219   7.403 -0.3650 -0.0145 -0.7253
   88CHL1   H7B 8931   4.344   2.178   7.390 -1.4888 -0.8958  2.1452
   88CHL1    C8 8932   4.314   2.395   7.381 -0.0787 -0.6898  0.2630
   88CHL1    H8 8933   4.213   2.439   7.390 -0.0941 -0.5153 -0.6392
   88CHL1   C14 8934   4.389   2.400   7.510  0.2034 -0.1063  0.4412
   88CHL1   H14 8935   4.487   2.357   7.483  0.1110 -1.5194  2.1562
   88CHL1   C15 8936   4.335   2.325   7.624 -0.0779 -0.0759 -0.8358
   88CHL1  H15A 8937   4.224   2.329   7.628 -0.1147 -0.9566 -0.7713
   88CHL1  H15B 8938   4.369   2.220   7.613  1.7942  0.3768  0.2762
   88CHL1   C16 8939   4.389   2.391   7.754  0.5393  0.7839  0.3476
   88CHL1  H16A 8940   4.297   2.430   7.804 -0.7963 -0.0826 -1.2961
   88CHL1  H16B 8941   4.440   2.321   7.823  1.8825  0.7223 -0.6681
   88CHL1   C17 8942   4.477   2.508   7.705 -0.4133 -0.0692 -0.0522
   88CHL1   H17 8943   4.570   2.455   7.675 -0.9552 -2.1937  1.7927
   88CHL1   C13 8944   4.414   2.549   7.563  0.5045  1.1082  0.0782
   88CHL1   C18 8945   4.277   2.618   7.582  0.5164 -0.3733 -0.1256
   88CHL1  H18A 8946   4.294   2.717   7.629 -1.2658 -0.5379  0.9564
   88CHL1  H18B 8947   4.222   2.627   7.486 -0.5093  1.3976  0.5916
   88CHL1  H18C 8948   4.210   2.566   7.653 -1.9823  2.5321 -0.1576
   88CHL1   C12 8949   4.499   2.626   7.459  0.3980  0.3918 -0.2076
   88CHL1  H12A 8950   4.519   2.731   7.489 -0.0482  0.7977 -1.2997
   88CHL1  H12B 8951   4.598   2.579   7.476 -0.4562 -0.8745  1.6078
   88CHL1   C11 8952   4.435   2.620   7.319 -0.1850  0.4253 -0.9914
   88CHL1  H11A 8953   4.353   2.695   7.327 -0.9282 -0.4248 -0.4555
   88CHL1  H11B 8954   4.516   2.655   7.251  0.7820 -0.7547 -0.5023
   88CHL1    C9 8955   4.394   2.474   7.277  0.1266 -0.0492 -0.2568
   88CHL1    H9 8956   4.493   2.424   7.270 -0.2981 -1.0945  0.8167
   88CHL1   C10 8957   4.322   2.467   7.139  0.1707 -0.0532  0.9708
   88CHL1   C19 8958   4.210   2.575   7.140  0.8097 -0.0620  0.0707
   88CHL1  H19A 8959   4.248   2.675   7.173  0.9096 -0.3180  0.7608
   88CHL1  H19B 8960   4.178   2.597   7.036  2.3423 -1.5845 -0.7769
   88CHL1  H19C 8961   4.121   2.535   7.193 -0.2786  0.5462 -1.2450
   88CHL1    C1 8962   4.432   2.507   7.033 -0.3418 -0.1342 -0.4959
   88CHL1   H1A 8963   4.444   2.617   7.034 -0.1028 -0.1630 -0.0292
   88CHL1   H1B 8964   4.534   2.472   7.062 -0.7734 -0.1811  1.0366
   88CHL1    C2 8965   4.406   2.455   6.891  0.1888  0.0279 -0.2997
   88CHL1   H2A 8966   4.499   2.468   6.832  0.4441 -1.5625 -0.2988
   88CHL1   H2B 8967   4.327   2.526   6.860 -1.0178  0.3069  2.9809
   88CHL1   C20 8968   4.496   2.613   7.807 -0.6728  0.7844 -0.1817
   88CHL1   H20 8969   4.393   2.646   7.833 -0.1597 -0.1726  3.7097
   88CHL1   C21 8970   4.582   2.726   7.759  0.0144  0.1758  0.1356
   88CHL1  H21A 8971   4.621   2.787   7.843  0.7999 -0.6383  0.3827
   88CHL1  H21B 8972   4.536   2.796   7.685  0.8578 -1.7481 -2.3518
   88CHL1  H21C 8973   4.677   2.693   7.712  1.4544  1.8372  1.7457
   88CHL1   C22 8974   4.553   2.550   7.941 -0.1443 -0.3062 -0.6422
   88CHL1  H22A 8975   4.523   2.445   7.962  0.1695 -0.1073  0.9373
   88CHL1  H22B 8976   4.663   2.551   7.930 -0.0445  0.0079  0.2761
   88CHL1   C23 8977   4.523   2.642   8.059  0.3879  0.4313 -0.3011
   88CHL1  H23A 8978   4.554   2.745   8.035  1.9198  0.1472  0.3434
   88CHL1  H23B 8979   4.413   2.650   8.070  0.3588  0.1719 -0.3752
   88CHL1   C24 8980   4.614   2.607   8.182  0.1299  0.0332 -0.0562
   88CHL1  H24A 8981   4.606   2.502   8.216 -0.4419  0.6566  1.8761
   88CHL1  H24B 8982   4.721   2.627   8.162  0.0063  0.2942 -0.4833
   88CHL1   C25 8983   4.576   2.681   8.318  0.1268 -0.4092 -0.4436
   88CHL1   H25 8984   4.660   2.661   8.388 -1.2860 -1.1750  1.1093
   88CHL1   C26 8985   4.581   2.832   8.297 -0.2913  0.3559  0.0051
   88CHL1  H26A 8986   4.674   2.861   8.244  0.4112  1.7147  1.8904
   88CHL1  H26B 8987   4.500   2.858   8.225 -0.6570  0.0105  0.2905
   88CHL1  H26C 8988   4.576   2.894   8.389  1.0577 -0.1581  0.4435
   88CHL1   C27 8989   4.435   2.639   8.370  0.1532  0.0491 -0.1011
   88CHL1  H27A 8990   4.394   2.712   8.443 -1.7370 -0.7441 -0.3182
   88CHL1  H27B 8991   4.353   2.625   8.297  0.0488 -1.7547  0.3130
   88CHL1  H27C 8992   4.457   2.539   8.412  2.0275 -0.3659 -1.9071
   89CHL1    C3 8993   6.279   0.045   6.435  0.1285 -0.3227 -0.0929
   89CHL1    H3 8994   6.386   0.074   6.431  0.6025 -2.0705 -1.0313
   89CHL1    O3 8995   6.217   0.081   6.316 -0.1991 -0.3819  0.6581
   89CHL1   H3' 8996   6.124   0.069   6.338  0.4442 -1.5507  3.1592
   89CHL1    C4 8997   6.282  -0.105   6.450 -0.2514  0.0246 -0.0601
   89CHL1   H4A 8998   6.178  -0.143   6.434 -0.2873  0.0199  0.1788
   89CHL1   H4B 8999   6.340  -0.153   6.368  1.3703  2.0037 -0.1230
   89CHL1    C5 9000   6.332  -0.156   6.584  0.1602 -0.3392  0.1821
   89CHL1    C6 9001   6.438  -0.236   6.592 -0.1283  0.7414 -0.3843
   89CHL1    H6 9002   6.468  -0.281   6.496 -1.2442  0.4342 -0.6070
   89CHL1    C7 9003   6.493  -0.274   6.724 -0.3268  0.6392  0.0660
   89CHL1   H7A 9004   6.518  -0.382   6.717  1.2843  1.0724 -1.7983
   89CHL1   H7B 9005   6.594  -0.230   6.735  1.1194 -2.3828  0.0566
   89CHL1    C8 9006   6.405  -0.245   6.848  0.5778 -0.0652  0.4265
   89CHL1    H8 9007   6.321  -0.318   6.845  1.2565 -0.8300 -0.7113
   89CHL1   C14 9008   6.481  -0.246   6.971  0.1120 -0.7965 -0.4132
   89CHL1   H14 9009   6.553  -0.162   6.965 -0.6215  0.1448  2.3679
   89CHL1   C15 9010   6.577  -0.362   6.991  0.1630 -0.4371  0.1271
   89CHL1  H15A 9011   6.529  -0.459   6.967  0.7353 -0.9214  0.8977
   89CHL1  H15B 9012   6.674  -0.357   6.936  1.8797 -0.8326  2.9184
   89CHL1   C16 9013   6.603  -0.371   7.137  0.2786  0.1059 -0.8424
   89CHL1  H16A 9014   6.577  -0.472   7.175 -0.0696  0.6877  0.5233
   89CHL1  H16B 9015   6.709  -0.350   7.161 -0.1358  0.3845  0.9032
   89CHL1   C17 9016   6.509  -0.258   7.207 -0.8081 -0.1545 -0.1842
   89CHL1   H17 9017   6.581  -0.173   7.208  2.2592 -2.6013 -1.0513
   89CHL1   C13 9018   6.397  -0.229   7.106  0.1730 -0.3821 -0.4206
   89CHL1   C18 9019   6.284  -0.334   7.119 -0.0396 -0.2090  0.1079
   89CHL1  H18A 9020   6.215  -0.309   7.203  0.0596 -1.8457  0.7136
   89CHL1  H18B 9021   6.223  -0.337   7.026  1.4242  2.1824 -1.0113
   89CHL1  H18C 9022   6.332  -0.430   7.148 -3.5636 -1.5452  2.2824
   89CHL1   C12 9023   6.344  -0.078   7.102  0.3970  0.1473 -0.4213
   89CHL1  H12A 9024   6.268  -0.064   7.183 -0.8369 -4.6429 -0.4564
   89CHL1  H12B 9025   6.431  -0.012   7.121  0.9239 -0.4412 -0.7897
   89CHL1   C11 9026   6.264  -0.059   6.970  0.4662 -0.8600 -0.0871
   89CHL1  H11A 9027   6.169  -0.116   6.979 -0.2686  0.2020 -0.8845
   89CHL1  H11B 9028   6.251   0.051   6.975  3.4853 -0.4305  0.3573
   89CHL1    C9 9029   6.342  -0.101   6.846 -0.3337  0.1143  0.4218
   89CHL1    H9 9030   6.425  -0.029   6.827  0.6863 -0.6775  1.6908
   89CHL1   C10 9031   6.266  -0.087   6.713  0.0600  0.1203  0.4719
   89CHL1   C19 9032   6.129  -0.147   6.723  0.0242  0.3227  0.1079
   89CHL1  H19A 9033   6.071  -0.121   6.814 -0.8120  1.8432 -0.8163
   89CHL1  H19B 9034   6.055  -0.125   6.644 -0.3006 -3.9017 -1.0098
   89CHL1  H19C 9035   6.135  -0.258   6.721  0.7232  0.3439  0.6198
   89CHL1    C1 9036   6.249   0.069   6.692 -0.1208 -0.7963  0.3621
   89CHL1   H1A 9037   6.175   0.103   6.768  0.4470  0.0097  0.5733
   89CHL1   H1B 9038   6.346   0.123   6.702 -0.9672  1.6326 -2.7974
   89CHL1    C2 9039   6.201   0.113   6.551 -0.2197  0.4495  0.4476
   89CHL1   H2A 9040   6.210   0.221   6.530  0.4911 -0.0175 -1.8629
   89CHL1   H2B 9041   6.093   0.089   6.538  0.2388 -1.4520 -0.2568
   89CHL1   C20 9042   6.480  -0.283   7.360  0.1644 -0.0963 -0.3210
   89CHL1   H20 9043   6.425  -0.379   7.366  0.2048 -0.1691 -1.0426
   89CHL1   C21 9044   6.395  -0.178   7.419  0.0485 -0.3077  0.0702
   89CHL1  H21A 9045   6.419  -0.074   7.388  2.6312 -0.1379  2.2330
   89CHL1  H21B 9046   6.404  -0.163   7.529  0.8148 -0.6454  0.0610
   89CHL1  H21C 9047   6.291  -0.203   7.390 -1.0579  3.7075 -0.0392
   89CHL1   C22 9048   6.604  -0.319   7.443  0.4375  0.1033 -0.5179
   89CHL1  H22A 9049   6.663  -0.387   7.378  1.3680  0.4068  0.0005
   89CHL1  H22B 9050   6.657  -0.222   7.456 -0.6546  0.3258  3.5607
   89CHL1   C23 9051   6.581  -0.379   7.586 -1.4580  0.5696 -0.1280
   89CHL1  H23A 9052   6.674  -0.353   7.641 -1.1461 -4.5033  2.3533
   89CHL1  H23B 9053   6.495  -0.329   7.636 -1.3044  2.0757 -1.3123
   89CHL1   C24 9054   6.558  -0.527   7.586  0.7740  0.1176  0.5530
   89CHL1  H24A 9055   6.459  -0.536   7.536  1.9448  0.4590 -1.9705
   89CHL1  H24B 9056   6.628  -0.576   7.515 -0.4369 -1.2329  0.2471
   89CHL1   C25 9057   6.559  -0.603   7.725  0.6119  0.1588 -0.0105
   89CHL1   H25 9058   6.496  -0.540   7.790 -0.2179 -1.6609  1.0409
   89CHL1   C26 9059   6.476  -0.736   7.713 -0.3848  0.1344  0.2068
   89CHL1  H26A 9060   6.460  -0.774   7.816  0.9088 -2.1624 -0.3678
   89CHL1  H26B 9061   6.379  -0.711   7.667 -0.1011 -0.9355 -1.0099
   89CHL1  H26C 9062   6.523  -0.820   7.658  0.3760 -1.3419  2.8972
   89CHL1   C27 9063   6.694  -0.635   7.785  0.2596  0.1398  0.1920
   89CHL1  H27A 9064   6.698  -0.690   7.882  0.3534 -2.6817 -1.3079
   89CHL1  H27B 9065   6.749  -0.693   7.708  1.4016 -0.3525  1.3287
   89CHL1  H27C 9066   6.764  -0.550   7.798  0.3071  0.0823  0.3269
   90CHL1    C3 9067   0.147   2.184   6.591  0.5977  0.6586 -0.0968
   90CHL1    H3 9068   0.213   2.274   6.584  2.7817 -0.8555  0.0019
   90CHL1    O3 9069   0.148   2.126   6.460  0.4311  0.0614 -0.5573
   90CHL1   H3' 9070   0.056   2.100   6.451  0.0732  1.6620 -1.9510
   90CHL1    C4 9071   0.201   2.082   6.691 -0.6014 -0.9522  0.4209
   90CHL1   H4A 9072   0.151   1.984   6.679 -0.3356 -1.0566  0.1370
   90CHL1   H4B 9073   0.306   2.060   6.660  0.0223  2.3576 -0.2005
   90CHL1    C5 9074   0.195   2.141   6.826 -0.6018  0.5323 -0.6309
   90CHL1    C6 9075   0.300   2.142   6.906 -0.0241 -0.8089 -0.3668
   90CHL1    H6 9076   0.393   2.103   6.861 -0.5386 -3.5046  0.7279
   90CHL1    C7 9077   0.292   2.182   7.050 -0.2834 -0.0247 -0.5646
   90CHL1   H7A 9078   0.356   2.117   7.114 -0.5880 -0.6285 -0.8612
   90CHL1   H7B 9079   0.330   2.286   7.062  1.0719 -0.6295  0.8425
   90CHL1    C8 9080   0.144   2.183   7.109  0.1425 -0.2703 -0.1422
   90CHL1    H8 9081   0.110   2.078   7.122  0.4917 -0.6558 -2.0760
   90CHL1   C14 9082   0.128   2.249   7.245  0.0327 -0.3399  0.5693
   90CHL1   H14 9083   0.143   2.358   7.228 -2.6435  0.0627  0.4082
   90CHL1   C15 9084   0.218   2.197   7.363  0.7770 -0.4464  0.5412
   90CHL1  H15A 9085   0.216   2.089   7.342 -0.3818  0.0319 -2.1381
   90CHL1  H15B 9086   0.321   2.239   7.361  0.1729  1.1782 -3.0189
   90CHL1   C16 9087   0.146   2.249   7.484 -0.1008  0.3802  0.0245
   90CHL1  H16A 9088   0.115   2.165   7.548 -1.5411  0.4693 -0.5321
   90CHL1  H16B 9089   0.214   2.316   7.541  0.4384  0.9552 -1.2543
   90CHL1   C17 9090   0.010   2.323   7.433 -0.5127  0.7037  0.3616
   90CHL1   H17 9091   0.030   2.429   7.409  1.3156  0.4066  0.4432
   90CHL1   C13 9092  -0.017   2.246   7.303 -0.0468 -0.5289  0.2943
   90CHL1   C18 9093  -0.060   2.101   7.329 -0.2137 -0.3502 -0.0948
   90CHL1  H18A 9094  -0.160   2.091   7.375  0.6720  0.3438  2.0899
   90CHL1  H18B 9095  -0.057   2.051   7.229 -0.7315 -0.9605  0.1887
   90CHL1  H18C 9096   0.016   2.052   7.393 -0.0579 -0.9572 -0.7224
   90CHL1   C12 9097  -0.108   2.316   7.199  0.6969 -0.4576 -0.1658
   90CHL1  H12A 9098  -0.215   2.309   7.229  0.6991 -0.4430 -0.1546
   90CHL1  H12B 9099  -0.077   2.422   7.210  0.6677 -0.5527  0.9393
   90CHL1   C11 9100  -0.084   2.284   7.056  0.4971 -0.1418  0.2523
   90CHL1  H11A 9101  -0.158   2.207   7.026 -0.3148  0.3988  0.8129
   90CHL1  H11B 9102  -0.120   2.378   7.008 -0.1378 -0.6457 -0.2758
   90CHL1    C9 9103   0.060   2.256   7.013 -0.3791  0.1550  0.5020
   90CHL1    H9 9104   0.105   2.355   6.989  0.3396 -0.1674  0.4839
   90CHL1   C10 9105   0.060   2.183   6.868  0.4927  0.0089 -0.4723
   90CHL1   C19 9106  -0.012   2.042   6.882 -0.5687 -0.8084  0.1022
   90CHL1  H19A 9107  -0.111   2.058   6.928 -0.9401 -0.2491 -0.8596
   90CHL1  H19B 9108  -0.040   2.009   6.780  0.1069  1.1639 -0.7712
   90CHL1  H19C 9109   0.034   1.963   6.946  0.0572 -0.0610  0.5910
   90CHL1    C1 9110  -0.018   2.269   6.769 -0.7943  0.6414 -0.0366
   90CHL1   H1A 9111  -0.124   2.289   6.795 -0.5416 -0.1286  1.7854
   90CHL1   H1B 9112   0.027   2.370   6.778 -0.0980  0.2703  0.8322
   90CHL1    C2 9113   0.006   2.224   6.630  0.2458  0.1596  0.0135
   90CHL1   H2A 9114  -0.023   2.309   6.564  0.2651  1.4511  1.6049
   90CHL1   H2B 9115  -0.071   2.149   6.604  0.8911 -1.3853  2.2446
   90CHL1   C20 9116  -0.091   2.313   7.551  0.2443  0.3436  0.8824
   90CHL1   H20 9117  -0.092   2.212   7.595 -1.8587  0.4217  1.1050
   90CHL1   C21 9118  -0.236   2.350   7.500 -0.4033  0.7903  0.1191
   90CHL1  H21A 9119  -0.269   2.280   7.420  0.6999 -0.2881  0.5723
   90CHL1  H21B 9120  -0.241   2.457   7.471 -0.2036  1.0305  0.9481
   90CHL1  H21C 9121  -0.307   2.327   7.582  0.6236 -1.2919  0.4942
   90CHL1   C22 9122  -0.053   2.417   7.653 -0.2442 -0.6518  0.4077
   90CHL1  H22A 9123   0.058   2.424   7.665 -0.2673  0.1518  0.2123
   90CHL1  H22B 9124  -0.091   2.514   7.615  1.1899 -0.1696  0.1265
   90CHL1   C23 9125  -0.095   2.384   7.799  0.3172 -0.0358  0.3618
   90CHL1  H23A 9126  -0.205   2.369   7.803 -0.4098  3.4714 -1.6003
   90CHL1  H23B 9127  -0.051   2.286   7.824  0.5191  0.3608  1.6491
   90CHL1   C24 9128  -0.062   2.500   7.897 -0.3288  0.8919 -0.9008
   90CHL1  H24A 9129   0.045   2.526   7.884  0.0328 -0.0264  0.0827
   90CHL1  H24B 9130  -0.118   2.588   7.859 -0.4991 -0.2577 -3.5135
   90CHL1   C25 9131  -0.084   2.475   8.049 -0.2345 -0.0100 -0.0013
   90CHL1   H25 9132  -0.046   2.377   8.084  1.2027  1.9014  4.4769
   90CHL1   C26 9133  -0.009   2.579   8.143 -0.3283  0.7804  0.1857
   90CHL1  H26A 9134  -0.041   2.567   8.249  1.6176  2.6415  1.0627
   90CHL1  H26B 9135   0.102   2.572   8.153 -0.3699  1.3510  1.1329
   90CHL1  H26C 9136  -0.036   2.684   8.119 -0.5282  0.8668  0.7583
   90CHL1   C27 9137  -0.233   2.500   8.074 -0.3311  0.1453  0.3212
   90CHL1  H27A 9138  -0.256   2.605   8.047 -4.1770 -1.2552 -2.8955
   90CHL1  H27B 9139  -0.288   2.431   8.007  1.6042  0.4311 -1.6559
   90CHL1  H27C 9140  -0.262   2.492   8.181  2.8353  1.4830  1.4021
   91CHL1    C3 9141   2.907   2.676   6.708  0.4873 -0.6336 -1.1241
   91CHL1    H3 9142   2.800   2.649   6.722  0.4235  0.2712  0.2906
   91CHL1    O3 9143   2.938   2.669   6.572 -0.4720  0.7047  0.2973
   91CHL1   H3' 9144   3.017   2.614   6.577 -0.6971  0.3854  0.4377
   91CHL1    C4 9145   2.944   2.823   6.759 -0.9256  0.2863 -0.1576
   91CHL1   H4A 9146   3.051   2.847   6.743 -1.3620  0.5170 -3.1925
   91CHL1   H4B 9147   2.891   2.888   6.688 -1.0203 -1.7097 -2.0244
   91CHL1    C5 9148   2.918   2.834   6.909  0.0808 -0.7106  1.0327
   91CHL1    C6 9149   2.849   2.934   6.964  0.1238  0.4085  0.3699
   91CHL1    H6 9150   2.814   3.020   6.906 -1.2194 -0.2157  0.2179
   91CHL1    C7 9151   2.824   2.953   7.110 -0.0157  0.1720 -0.6631
   91CHL1   H7A 9152   2.865   3.050   7.145  0.7344 -1.1473  2.5435
   91CHL1   H7B 9153   2.715   2.946   7.130  0.1198  2.6420  1.3960
   91CHL1    C8 9154   2.920   2.863   7.202  0.3171  0.2221 -0.1496
   91CHL1    H8 9155   3.019   2.915   7.205 -1.3939  3.7402  0.7578
   91CHL1   C14 9156   2.858   2.856   7.339  0.7060 -0.2397 -0.1931
   91CHL1   H14 9157   2.764   2.797   7.340  0.8266 -0.4413  0.6840
   91CHL1   C15 9158   2.839   2.991   7.411 -0.2140  0.3976 -0.4240
   91CHL1  H15A 9159   2.922   3.060   7.386 -0.9517  1.3303 -0.3387
   91CHL1  H15B 9160   2.745   3.043   7.381 -0.1663  0.9777  0.4068
   91CHL1   C16 9161   2.824   2.961   7.556  0.6518 -0.1765  1.0018
   91CHL1  H16A 9162   2.901   3.021   7.611  1.5314 -2.0069  1.8405
   91CHL1  H16B 9163   2.726   2.989   7.599 -0.8594 -1.6441 -1.2466
   91CHL1   C17 9164   2.851   2.810   7.575  0.2541 -0.3198  0.1885
   91CHL1   H17 9165   2.758   2.751   7.557  0.7265 -0.5674 -1.6407
   91CHL1   C13 9166   2.935   2.775   7.442  0.0580 -0.1902  0.0575
   91CHL1   C18 9167   3.077   2.831   7.460  0.0394 -0.0695  0.0373
   91CHL1  H18A 9168   3.124   2.761   7.533  0.2249  1.6523  1.6218
   91CHL1  H18B 9169   3.131   2.831   7.363 -0.5279 -1.3339 -0.3060
   91CHL1  H18C 9170   3.087   2.932   7.504  1.2346  0.3171 -1.0489
   91CHL1   C12 9171   2.937   2.634   7.386 -0.3336 -0.4178  0.5621
   91CHL1  H12A 9172   3.007   2.584   7.456  0.9166 -0.7250 -0.8837
   91CHL1  H12B 9173   2.838   2.584   7.400  0.2841 -1.4519  1.3987
   91CHL1   C11 9174   2.990   2.622   7.245  0.2269 -0.6517 -0.5056
   91CHL1  H11A 9175   3.098   2.642   7.257  0.2259 -0.7264 -0.3760
   91CHL1  H11B 9176   2.978   2.516   7.216  2.6946 -0.9794 -0.5229
   91CHL1    C9 9177   2.923   2.718   7.145 -0.4961 -0.1505  0.4697
   91CHL1    H9 9178   2.815   2.694   7.155 -0.6985  0.8871  0.9427
   91CHL1   C10 9179   2.972   2.718   6.988 -0.7365 -0.3825  0.0965
   91CHL1   C19 9180   3.126   2.725   7.000 -0.3453  0.8313  0.8494
   91CHL1  H19A 9181   3.158   2.811   7.064  1.8069  0.5790  0.2009
   91CHL1  H19B 9182   3.168   2.633   7.044  4.5223  1.9515 -0.7881
   91CHL1  H19C 9183   3.166   2.740   6.897 -2.2187  0.0999 -0.0284
   91CHL1    C1 9184   2.945   2.582   6.925  0.1274  0.1706 -0.4168
   91CHL1   H1A 9185   3.004   2.507   6.982  0.8940  0.4136 -0.8810
   91CHL1   H1B 9186   2.839   2.548   6.931  0.3514 -0.7332 -1.3576
   91CHL1    C2 9187   2.988   2.574   6.780  0.7931 -0.2270  0.6757
   91CHL1   H2A 9188   2.959   2.474   6.743 -1.2208  0.3276  0.6295
   91CHL1   H2B 9189   3.097   2.591   6.764  0.4320  1.0950 -0.6169
   91CHL1   C20 9190   2.911   2.776   7.710 -0.9682  0.5207 -0.4866
   91CHL1   H20 9191   3.016   2.813   7.709 -1.7279  2.8712 -1.4330
   91CHL1   C21 9192   2.915   2.622   7.732  0.1084  0.0485  0.1177
   91CHL1  H21A 9193   2.935   2.593   7.838  2.8150  1.9987  0.2517
   91CHL1  H21B 9194   2.999   2.584   7.670 -0.5515 -1.6836  0.2370
   91CHL1  H21C 9195   2.819   2.579   7.697 -0.1547 -0.5332  1.4867
   91CHL1   C22 9196   2.836   2.843   7.828 -0.1216 -0.0174  0.7455
   91CHL1  H22A 9197   2.817   2.950   7.804  3.0314  0.9435  1.9644
   91CHL1  H22B 9198   2.745   2.791   7.864 -0.0474  0.3167  1.4325
   91CHL1   C23 9199   2.903   2.863   7.961  0.0948 -1.2875 -0.9240
   91CHL1  H23A 9200   2.924   2.763   8.005  0.1011 -0.2039  1.7282
   91CHL1  H23B 9201   2.992   2.929   7.961 -0.3150 -0.7051  0.0321
   91CHL1   C24 9202   2.789   2.923   8.057  0.5414  0.5873 -0.1751
   91CHL1  H24A 9203   2.720   2.988   7.999 -0.6683  0.6625  1.2832
   91CHL1  H24B 9204   2.726   2.837   8.089 -0.5602  0.9326 -1.3419
   91CHL1   C25 9205   2.849   2.996   8.181 -0.3059  0.4705  0.0574
   91CHL1   H25 9206   2.924   3.065   8.137  0.8436 -0.8178 -0.0880
   91CHL1   C26 9207   2.753   3.088   8.254 -0.0191 -0.0984 -0.4658
   91CHL1  H26A 9208   2.823   3.132   8.329  1.2039  1.5834 -2.4708
   91CHL1  H26B 9209   2.723   3.169   8.185 -0.1600 -0.1834 -0.5041
   91CHL1  H26C 9210   2.667   3.031   8.296 -2.2789  1.1175 -3.1357
   91CHL1   C27 9211   2.931   2.916   8.277 -0.0054 -0.1721 -0.2323
   91CHL1  H27A 9212   3.001   2.850   8.221  0.1176  0.3975 -0.7629
   91CHL1  H27B 9213   2.995   2.975   8.346 -0.9077 -0.5386  0.9401
   91CHL1  H27C 9214   2.871   2.850   8.343  1.7166 -1.5100  0.0785
   92CHL1    C3 9215   5.871   3.801   6.828  0.7543 -0.2026 -0.3119
   92CHL1    H3 9216   5.953   3.767   6.896 -0.4784  0.0988  1.4026
   92CHL1    O3 9217   5.876   3.745   6.693 -0.0958 -0.2790  0.0807
   92CHL1   H3' 9218   5.820   3.811   6.651 -3.0918 -0.0084  3.9439
   92CHL1    C4 9219   5.738   3.755   6.899 -0.1976  0.2728 -0.3235
   92CHL1   H4A 9220   5.657   3.781   6.826  0.1389  0.1276 -0.7536
   92CHL1   H4B 9221   5.739   3.645   6.910 -2.5780  0.2555  0.2708
   92CHL1    C5 9222   5.723   3.820   7.036 -0.2378 -0.4487  0.1216
   92CHL1    C6 9223   5.701   3.750   7.144  0.3441  0.7733 -0.2594
   92CHL1    H6 9224   5.695   3.642   7.129 -3.5270  0.9248 -0.7611
   92CHL1    C7 9225   5.665   3.811   7.277  0.7035  0.0311  0.7243
   92CHL1   H7A 9226   5.574   3.761   7.317  1.3883  0.5735  3.1555
   92CHL1   H7B 9227   5.746   3.783   7.348  0.4378  0.6320  1.2719
   92CHL1    C8 9228   5.635   3.961   7.278 -0.0031 -0.2175  0.0180
   92CHL1    H8 9229   5.533   3.987   7.245 -1.0966 -3.7879  0.2492
   92CHL1   C14 9230   5.656   4.016   7.418  0.3371  0.4705 -0.4627
   92CHL1   H14 9231   5.760   3.987   7.443  0.9895  0.4953 -2.8854
   92CHL1   C15 9232   5.566   3.954   7.531 -0.4280 -0.5003 -0.3326
   92CHL1  H15A 9233   5.464   3.938   7.491 -0.6689 -3.6768  1.2231
   92CHL1  H15B 9234   5.603   3.850   7.548  2.4463  0.2030 -1.7152
   92CHL1   C16 9235   5.593   4.055   7.648 -0.3806  1.2565 -1.4141
   92CHL1  H16A 9236   5.508   4.084   7.714 -0.5791  0.0799 -1.1296
   92CHL1  H16B 9237   5.663   4.011   7.722 -1.5732  0.1504 -0.9054
   92CHL1   C17 9238   5.645   4.184   7.584 -0.7834 -0.7233  0.5296
   92CHL1   H17 9239   5.755   4.189   7.604 -0.8048 -0.2573  0.5334
   92CHL1   C13 9240   5.632   4.165   7.430 -0.2033  0.4242  0.8571
   92CHL1   C18 9241   5.487   4.203   7.402 -0.3644  0.4793  0.2575
   92CHL1  H18A 9242   5.410   4.160   7.470 -0.7638 -1.2244 -1.1936
   92CHL1  H18B 9243   5.478   4.314   7.401  0.5758  0.5697 -1.1936
   92CHL1  H18C 9244   5.451   4.177   7.300  0.3411 -0.1382  0.1562
   92CHL1   C12 9245   5.731   4.244   7.338 -0.1294  0.3398  0.2148
   92CHL1  H12A 9246   5.705   4.351   7.342  0.3734  0.4927 -0.4564
   92CHL1  H12B 9247   5.830   4.241   7.388  0.6515 -0.0085 -1.2778
   92CHL1   C11 9248   5.724   4.183   7.195 -0.2617 -0.6298 -0.1104
   92CHL1  H11A 9249   5.625   4.211   7.154 -0.5297  0.3621  1.1515
   92CHL1  H11B 9250   5.806   4.228   7.135  1.5660 -2.4135  0.9202
   92CHL1    C9 9251   5.737   4.030   7.184 -0.1209 -0.2166  0.1566
   92CHL1    H9 9252   5.840   4.007   7.220  0.1744  0.0393 -0.5121
   92CHL1   C10 9253   5.728   3.974   7.037 -0.4417 -0.1167  0.3183
   92CHL1   C19 9254   5.603   4.040   6.959  0.5535  0.6726 -0.2243
   92CHL1  H19A 9255   5.594   3.986   6.862 -0.1120 -0.1386  0.2854
   92CHL1  H19B 9256   5.508   4.020   7.011  0.6486  1.6354  0.3353
   92CHL1  H19C 9257   5.611   4.149   6.940 -1.2897  0.4441 -2.8289
   92CHL1    C1 9258   5.861   4.016   6.963  0.0807  0.0166  0.1729
   92CHL1   H1A 9259   5.879   4.125   6.966  0.7459  0.0071 -1.8869
   92CHL1   H1B 9260   5.947   3.976   7.022 -0.0602 -1.1109 -0.3527
   92CHL1    C2 9261   5.875   3.960   6.822 -0.5656  0.5587  0.5450
   92CHL1   H2A 9262   5.968   3.987   6.767 -1.6776  2.0570 -0.7139
   92CHL1   H2B 9263   5.799   4.004   6.754 -1.7416  1.6602  2.5067
   92CHL1   C20 9264   5.599   4.314   7.658  0.6100  0.8786 -0.6351
   92CHL1   H20 9265   5.488   4.318   7.657  0.5596  2.8631  2.2309
   92CHL1   C21 9266   5.661   4.438   7.598 -0.6328  0.5956  0.4617
   92CHL1  H21A 9267   5.772   4.433   7.587 -0.6160 -0.3185  0.9895
   92CHL1  H21B 9268   5.633   4.530   7.653 -1.2735  0.5395  0.2335
   92CHL1  H21C 9269   5.631   4.466   7.494  3.2855  0.7275 -0.7954
   92CHL1   C22 9270   5.624   4.314   7.810  0.2436  0.2107 -0.2161
   92CHL1  H22A 9271   5.598   4.418   7.841 -1.1576  0.1711 -1.1891
   92CHL1  H22B 9272   5.548   4.253   7.864  0.0920  0.1846 -0.4557
   92CHL1   C23 9273   5.773   4.280   7.852 -0.2058  0.8260 -0.2313
   92CHL1  H23A 9274   5.790   4.171   7.837 -0.0751  0.5877  1.4809
   92CHL1  H23B 9275   5.847   4.329   7.785 -0.2209  1.7351  0.3922
   92CHL1   C24 9276   5.790   4.316   8.000 -0.2678  0.1309  0.6255
   92CHL1  H24A 9277   5.780   4.427   8.000 -0.2618  0.1614  2.4743
   92CHL1  H24B 9278   5.718   4.269   8.070 -3.2534  1.8159 -1.0983
   92CHL1   C25 9279   5.936   4.283   8.046 -0.3767 -0.0685  0.5964
   92CHL1   H25 9280   6.008   4.321   7.970  0.6184 -2.5782  0.1937
   92CHL1   C26 9281   5.981   4.345   8.178  0.3233  0.4354 -0.4303
   92CHL1  H26A 9282   6.079   4.308   8.215  1.0748  1.5293 -1.2728
   92CHL1  H26B 9283   5.961   4.455   8.181  0.0896  0.3904 -0.2834
   92CHL1  H26C 9284   5.911   4.311   8.257 -0.9597  1.2858 -1.1633
   92CHL1   C27 9285   5.953   4.130   8.041  0.2365 -0.1856  0.1399
   92CHL1  H27A 9286   6.054   4.104   8.080  1.8482  1.1973 -2.8354
   92CHL1  H27B 9287   5.876   4.080   8.104  0.0872 -0.7931 -0.5289
   92CHL1  H27C 9288   5.963   4.095   7.937  2.4051  0.4220  0.0948
   93CHL1    C3 9289   1.795   1.021   6.519  0.1326  0.5404  0.1891
   93CHL1    H3 9290   1.863   1.092   6.571  2.4996 -1.9209  0.6671
   93CHL1    O3 9291   1.832   1.037   6.384 -0.4913 -0.0887  0.3450
   93CHL1   H3' 9292   1.758   0.999   6.335  0.3653 -0.5304 -0.6226
   93CHL1    C4 9293   1.821   0.879   6.579 -0.0656 -0.3208  0.3419
   93CHL1   H4A 9294   1.748   0.812   6.530 -1.4574 -0.2954  2.2641
   93CHL1   H4B 9295   1.928   0.854   6.561  0.4671  1.8211  0.2553
   93CHL1    C5 9296   1.794   0.890   6.730 -0.4510 -0.5252 -0.0540
   93CHL1    C6 9297   1.894   0.868   6.816  0.2471 -0.6562 -0.3930
   93CHL1    H6 9298   1.994   0.835   6.783  0.4485  1.1298 -1.6854
   93CHL1    C7 9299   1.884   0.860   6.966 -0.0084  0.2702 -0.7497
   93CHL1   H7A 9300   1.925   0.763   7.002  1.6681  0.5675 -1.7451
   93CHL1   H7B 9301   1.941   0.943   7.013  0.4508 -0.5292  0.1271
   93CHL1    C8 9302   1.729   0.871   7.002 -0.6451 -0.2409 -0.5599
   93CHL1    H8 9303   1.676   0.774   6.996 -2.3184  0.6121 -0.1675
   93CHL1   C14 9304   1.714   0.898   7.148 -0.8470  0.0737 -0.4562
   93CHL1   H14 9305   1.740   1.006   7.158 -2.1016  0.3810 -0.3540
   93CHL1   C15 9306   1.803   0.829   7.254 -0.2834  0.1200 -0.4253
   93CHL1  H15A 9307   1.813   0.720   7.238 -1.2968  0.1797 -1.5530
   93CHL1  H15B 9308   1.908   0.866   7.254  0.4170 -1.6236  1.8117
   93CHL1   C16 9309   1.736   0.849   7.389  0.0231 -0.6059  0.9470
   93CHL1  H16A 9310   1.699   0.749   7.421 -2.2851 -1.0752 -2.6137
   93CHL1  H16B 9311   1.804   0.889   7.467 -0.6968 -0.5240  1.5425
   93CHL1   C17 9312   1.605   0.923   7.351 -0.7429  0.0792  0.2677
   93CHL1   H17 9313   1.642   1.028   7.354  2.0206 -0.8299  2.3305
   93CHL1   C13 9314   1.574   0.904   7.201  0.2575 -0.0385 -0.5403
   93CHL1   C18 9315   1.506   0.770   7.184 -0.0717  0.4837 -0.1987
   93CHL1  H18A 9316   1.424   0.758   7.257 -0.5209 -0.5186 -0.8468
   93CHL1  H18B 9317   1.474   0.746   7.080 -0.6653  2.7105 -0.5870
   93CHL1  H18C 9318   1.585   0.701   7.220 -2.2226 -1.4023  1.1835
   93CHL1   C12 9319   1.493   1.013   7.125 -0.2644  0.2235 -0.2290
   93CHL1  H12A 9320   1.392   1.030   7.168 -0.2883  0.7022 -0.4626
   93CHL1  H12B 9321   1.551   1.103   7.154 -0.7814  1.0576 -1.6577
   93CHL1   C11 9322   1.509   1.000   6.973  0.3022 -0.6501  0.3745
   93CHL1  H11A 9323   1.442   0.914   6.951 -0.3955  0.1729 -0.7863
   93CHL1  H11B 9324   1.458   1.091   6.936 -0.0299 -1.4771 -1.2653
   93CHL1    C9 9325   1.657   0.975   6.919  1.1630  0.2039 -0.5402
   93CHL1    H9 9326   1.705   1.075   6.928 -0.6513  1.1115 -0.2972
   93CHL1   C10 9327   1.658   0.946   6.770 -0.7754  0.3992  0.0021
   93CHL1   C19 9328   1.563   0.828   6.741 -0.0141  0.5415  0.0811
   93CHL1  H19A 9329   1.457   0.856   6.759 -0.2163 -0.5756  0.7305
   93CHL1  H19B 9330   1.565   0.797   6.634 -1.7654 -0.5809  0.3185
   93CHL1  H19C 9331   1.592   0.736   6.796  1.1786  0.0985 -1.2268
   93CHL1    C1 9332   1.619   1.071   6.686  0.5372  0.5916 -0.0072
   93CHL1   H1A 9333   1.511   1.087   6.705  0.2408 -1.3107  0.1465
   93CHL1   H1B 9334   1.675   1.158   6.725 -1.2208  0.5467  2.8216
   93CHL1    C2 9335   1.649   1.062   6.539 -0.4627  0.4460 -0.3805
   93CHL1   H2A 9336   1.628   1.165   6.502 -1.3183  0.1134 -0.8502
   93CHL1   H2B 9337   1.576   1.003   6.480  2.4614 -0.7957 -3.0449
   93CHL1   C20 9338   1.489   0.904   7.455 -0.7343  0.1321  0.0303
   93CHL1   H20 9339   1.482   0.795   7.471  1.1705  0.4046  3.5033
   93CHL1   C21 9340   1.353   0.972   7.433 -0.5535 -0.4540  0.1001
   93CHL1  H21A 9341   1.368   1.077   7.399  2.2907 -0.9336 -0.3281
   93CHL1  H21B 9342   1.303   0.966   7.532  2.2733  1.7802  1.8398
   93CHL1  H21C 9343   1.290   0.911   7.365  1.7661 -3.8549  0.7376
   93CHL1   C22 9344   1.536   0.942   7.596  0.0313  0.0532 -0.0936
   93CHL1  H22A 9345   1.473   0.886   7.668 -2.0384 -0.0346 -1.8945
   93CHL1  H22B 9346   1.638   0.899   7.607  0.0881  0.5494  1.7094
   93CHL1   C23 9347   1.559   1.086   7.634  0.9306  0.2289  0.9917
   93CHL1  H23A 9348   1.632   1.137   7.568  0.8529 -0.4218  0.3979
   93CHL1  H23B 9349   1.457   1.129   7.642  0.7706  0.5914 -2.0235
   93CHL1   C24 9350   1.614   1.100   7.781  0.3888 -0.4954  0.9796
   93CHL1  H24A 9351   1.713   1.051   7.790  1.0373  0.8290  1.3355
   93CHL1  H24B 9352   1.618   1.209   7.803 -2.6712 -0.2549  0.7425
   93CHL1   C25 9353   1.543   1.036   7.902 -0.7550  0.0925  0.1562
   93CHL1   H25 9354   1.548   0.927   7.880 -0.3657  0.0511  0.4316
   93CHL1   C26 9355   1.635   1.077   8.017 -0.2664  0.0806  0.4778
   93CHL1  H26A 9356   1.589   1.047   8.113  0.8425  0.5090  1.1644
   93CHL1  H26B 9357   1.736   1.031   8.002 -1.0004 -1.2609 -0.6745
   93CHL1  H26C 9358   1.626   1.188   8.019 -1.3884  0.0920 -1.8568
   93CHL1   C27 9359   1.397   1.063   7.919 -0.7886 -0.8047 -0.3137
   93CHL1  H27A 9360   1.330   1.016   7.843 -2.0556  2.5379 -1.4344
   93CHL1  H27B 9361   1.368   1.017   8.015 -0.7584  0.2119  0.1927
   93CHL1  H27C 9362   1.367   1.169   7.933 -1.5584 -1.0983  0.3078
   94CHL1    C3 9363   5.656   5.043   6.071  1.0076 -0.5468 -0.7207
   94CHL1    H3 9364   5.616   5.145   6.054 -1.2141 -0.7351  2.5859
   94CHL1    O3 9365   5.704   4.992   5.948  0.0758  0.0645 -0.0138
   94CHL1   H3' 9366   5.743   4.911   5.982 -1.0500 -0.0847  0.9959
   94CHL1    C4 9367   5.765   5.026   6.173 -0.4694  1.1013 -0.8958
   94CHL1   H4A 9368   5.816   4.928   6.161 -0.1873  1.1048  0.1248
   94CHL1   H4B 9369   5.838   5.105   6.143  0.5252 -0.1412 -1.8730
   94CHL1    C5 9370   5.714   5.040   6.319  0.3336 -0.2668 -0.1044
   94CHL1    C6 9371   5.771   5.124   6.403 -0.6933  0.0998 -0.0575
   94CHL1    H6 9372   5.863   5.179   6.376  1.2201 -1.5424  2.5870
   94CHL1    C7 9373   5.734   5.151   6.550 -0.2529  0.2870  0.0970
   94CHL1   H7A 9374   5.828   5.151   6.609  0.1920  0.1821 -0.5999
   94CHL1   H7B 9375   5.683   5.249   6.555 -1.4316 -0.1950 -1.5745
   94CHL1    C8 9376   5.651   5.032   6.612 -0.1854  1.0144 -0.2698
   94CHL1    H8 9377   5.722   4.947   6.618 -1.7738 -0.2518  1.8893
   94CHL1   C14 9378   5.586   5.072   6.742  0.4482 -0.7021 -0.3826
   94CHL1   H14 9379   5.525   5.161   6.715  2.5370  0.8766 -0.1706
   94CHL1   C15 9380   5.680   5.122   6.851 -0.4846  0.0599  0.1145
   94CHL1  H15A 9381   5.759   5.045   6.860 -3.0307 -2.7428  0.2533
   94CHL1  H15B 9382   5.727   5.223   6.852 -0.9349  0.2710  1.3362
   94CHL1   C16 9383   5.579   5.125   6.967  0.2304  0.5734 -0.2726
   94CHL1  H16A 9384   5.634   5.074   7.048  1.0832  0.4386 -0.9317
   94CHL1  H16B 9385   5.546   5.229   6.990 -0.0064  0.0800  1.8481
   94CHL1   C17 9386   5.453   5.038   6.937 -0.0120  0.0663  0.1590
   94CHL1   H17 9387   5.376   5.110   6.902 -0.3232 -0.4291 -0.2046
   94CHL1   C13 9388   5.493   4.964   6.802 -0.2185 -0.5866  0.4260
   94CHL1   C18 9389   5.561   4.837   6.849  0.0526 -0.0124 -0.2383
   94CHL1  H18A 9390   5.618   4.800   6.761  1.8495  0.7236  0.5694
   94CHL1  H18B 9391   5.621   4.850   6.941 -0.4257 -1.8669  0.3709
   94CHL1  H18C 9392   5.486   4.759   6.873 -0.5268  0.5310 -0.2296
   94CHL1   C12 9393   5.387   4.946   6.694  0.4983  0.1513 -0.4236
   94CHL1  H12A 9394   5.296   4.892   6.727 -0.1776  1.9898  0.8655
   94CHL1  H12B 9395   5.345   5.048   6.682 -2.2242 -0.2870  3.3961
   94CHL1   C11 9396   5.441   4.892   6.555  0.8650 -0.9658 -0.1223
   94CHL1  H11A 9397   5.480   4.792   6.583 -0.1035 -1.3184 -0.0026
   94CHL1  H11B 9398   5.358   4.885   6.481 -0.2694  0.6369  0.9353
   94CHL1    C9 9399   5.547   4.990   6.501 -0.0976 -0.4419 -0.3929
   94CHL1    H9 9400   5.500   5.089   6.482  0.7063  0.9379  3.6719
   94CHL1   C10 9401   5.608   4.947   6.361 -0.1753 -0.7151  0.3091
   94CHL1   C19 9402   5.656   4.804   6.377  0.3143  0.2968  0.3836
   94CHL1  H19A 9403   5.723   4.783   6.463  0.8427 -0.6914 -0.2440
   94CHL1  H19B 9404   5.577   4.728   6.390  3.4003 -3.4329 -0.8594
   94CHL1  H19C 9405   5.721   4.770   6.293  3.1056  2.5584  1.4714
   94CHL1    C1 9406   5.496   4.961   6.254 -0.3390  0.4065  0.2426
   94CHL1   H1A 9407   5.412   4.891   6.275 -0.9294  0.4052 -1.9315
   94CHL1   H1B 9408   5.445   5.060   6.260  0.3263  0.9010 -1.6827
   94CHL1    C2 9409   5.542   4.943   6.108  0.2592  0.2825 -0.0350
   94CHL1   H2A 9410   5.464   4.949   6.029  1.9558 -0.0405 -1.8058
   94CHL1   H2B 9411   5.571   4.835   6.108 -0.1132  0.1066 -2.5665
   94CHL1   C20 9412   5.391   4.965   7.054  0.2850 -0.3185 -0.8468
   94CHL1   H20 9413   5.466   4.892   7.091  1.4427  0.9180 -0.6714
   94CHL1   C21 9414   5.264   4.895   7.002  0.6559  0.0808 -0.4808
   94CHL1  H21A 9415   5.305   4.828   6.924 -0.8059 -1.9040  0.3954
   94CHL1  H21B 9416   5.207   4.967   6.939 -0.3644  1.1519  1.5801
   94CHL1  H21C 9417   5.202   4.841   7.076 -0.6395  1.5009 -0.4741
   94CHL1   C22 9418   5.349   5.077   7.160 -0.0079  0.0041  0.2551
   94CHL1  H22A 9419   5.430   5.151   7.181  0.4069  0.0128 -1.2069
   94CHL1  H22B 9420   5.276   5.130   7.095  0.3733 -0.3188 -0.4482
   94CHL1   C23 9421   5.281   5.026   7.287  0.6169  0.0075 -0.1728
   94CHL1  H23A 9422   5.201   4.956   7.254 -0.6010  1.3071 -0.0348
   94CHL1  H23B 9423   5.352   4.955   7.336  2.0087 -0.7974 -3.0839
   94CHL1   C24 9424   5.228   5.142   7.378 -0.1536 -0.0578 -0.7161
   94CHL1  H24A 9425   5.319   5.199   7.408  0.3125 -0.5382 -1.1917
   94CHL1  H24B 9426   5.163   5.209   7.319  1.3713  2.7646  0.5998
   94CHL1   C25 9427   5.140   5.090   7.502  0.0570 -0.1353  0.0724
   94CHL1   H25 9428   5.061   5.030   7.453 -1.7938  0.9509  1.6014
   94CHL1   C26 9429   5.207   4.985   7.591  0.0048  0.6631  0.2722
   94CHL1  H26A 9430   5.137   4.958   7.673 -1.4305 -0.9971 -1.3897
   94CHL1  H26B 9431   5.235   4.890   7.541 -0.0944 -0.1083  1.6223
   94CHL1  H26C 9432   5.303   5.029   7.624 -0.9101  2.6947  0.3911
   94CHL1   C27 9433   5.080   5.207   7.583  0.0266 -0.3349 -0.0644
   94CHL1  H27A 9434   5.021   5.166   7.668 -0.7510  0.4056 -0.2390
   94CHL1  H27B 9435   5.164   5.264   7.630 -0.6441 -0.6473  1.5667
   94CHL1  H27C 9436   5.018   5.278   7.524 -0.6110 -1.0054 -0.1973
   95CHL1    C3 9437   5.406   3.575   6.897  0.9512 -0.0144  0.4512
   95CHL1    H3 9438   5.492   3.642   6.920 -1.4339  2.5010  2.6769
   95CHL1    O3 9439   5.377   3.602   6.758  0.1659 -0.1985  0.5953
   95CHL1   H3' 9440   5.414   3.529   6.709  0.8366  1.0146 -0.7843
   95CHL1    C4 9441   5.437   3.429   6.914  0.1738  0.0390  0.5082
   95CHL1   H4A 9442   5.349   3.363   6.895  1.3493 -1.1099 -1.1681
   95CHL1   H4B 9443   5.512   3.393   6.840 -1.4720 -0.6471 -0.9153
   95CHL1    C5 9444   5.472   3.406   7.056 -0.7478 -0.4170 -0.5668
   95CHL1    C6 9445   5.587   3.338   7.094  0.3237  0.2624 -0.3776
   95CHL1    H6 9446   5.644   3.289   7.014  0.2351  2.3232 -1.7794
   95CHL1    C7 9447   5.638   3.308   7.231 -1.0507  0.5227 -0.0295
   95CHL1   H7A 9448   5.652   3.198   7.240 -0.0068  0.8000  3.6279
   95CHL1   H7B 9449   5.738   3.355   7.245 -0.6930  0.4846 -2.2031
   95CHL1    C8 9450   5.535   3.353   7.336  0.0973 -0.2224  0.0520
   95CHL1    H8 9451   5.460   3.273   7.354  0.6087 -0.7502 -0.1504
   95CHL1   C14 9452   5.611   3.372   7.468 -0.3668  0.4475  0.2498
   95CHL1   H14 9453   5.669   3.465   7.454 -2.2075  1.6128  0.0096
   95CHL1   C15 9454   5.706   3.266   7.526  0.5766 -0.0278 -0.2983
   95CHL1  H15A 9455   5.669   3.163   7.509  1.0413 -0.4502  1.0988
   95CHL1  H15B 9456   5.808   3.276   7.482  1.5089 -2.5206  1.0910
   95CHL1   C16 9457   5.708   3.291   7.678  0.2314  0.0167  0.4406
   95CHL1  H16A 9458   5.674   3.199   7.730 -3.2990 -0.6946 -2.6762
   95CHL1  H16B 9459   5.808   3.322   7.716 -0.1130  0.0020  1.3883
   95CHL1   C17 9460   5.608   3.409   7.699 -0.2930 -0.3353 -0.2027
   95CHL1   H17 9461   5.662   3.505   7.685 -0.5803 -0.2472 -0.7224
   95CHL1   C13 9462   5.510   3.401   7.587  0.4872  0.6153  0.2977
   95CHL1   C18 9463   5.412   3.285   7.597 -0.7216 -0.9380 -0.4433
   95CHL1  H18A 9464   5.347   3.286   7.507 -3.2914  1.4136  1.2726
   95CHL1  H18B 9465   5.459   3.186   7.614 -0.0125 -0.5460 -0.0732
   95CHL1  H18C 9466   5.336   3.299   7.676 -0.0485  2.1846 -0.2128
   95CHL1   C12 9467   5.433   3.534   7.558 -0.0685  0.1163 -0.5704
   95CHL1  H12A 9468   5.362   3.548   7.642 -0.9411  2.2149 -1.5802
   95CHL1  H12B 9469   5.505   3.619   7.555  1.2536 -1.0127 -2.5486
   95CHL1   C11 9470   5.358   3.524   7.422 -0.3674  0.4200  0.1414
   95CHL1  H11A 9471   5.273   3.453   7.420 -0.7972  0.9236 -1.8323
   95CHL1  H11B 9472   5.327   3.628   7.400 -1.8204  0.3382  1.6418
   95CHL1    C9 9473   5.452   3.481   7.302 -0.4355 -0.0223 -0.4588
   95CHL1    H9 9474   5.525   3.564   7.294 -1.6955  1.2776  0.7486
   95CHL1   C10 9475   5.381   3.466   7.168 -0.7051  0.4049  0.4935
   95CHL1   C19 9476   5.266   3.353   7.171  0.3853 -0.1360 -0.9855
   95CHL1  H19A 9477   5.185   3.387   7.239 -0.7697 -2.0150 -1.3734
   95CHL1  H19B 9478   5.222   3.337   7.070 -0.5003  0.8049 -0.7726
   95CHL1  H19C 9479   5.307   3.254   7.198 -0.4568 -1.1120 -3.0221
   95CHL1    C1 9480   5.327   3.610   7.132  0.6228  0.2691  0.1192
   95CHL1   H1A 9481   5.229   3.614   7.183 -0.1305 -0.8642 -1.1902
   95CHL1   H1B 9482   5.393   3.687   7.177  2.3042 -0.5611 -0.8019
   95CHL1    C2 9483   5.287   3.620   6.978 -0.5068  0.3953 -0.3201
   95CHL1   H2A 9484   5.256   3.725   6.963 -0.7582  0.6542  1.6513
   95CHL1   H2B 9485   5.204   3.550   6.956 -1.2847  1.3199 -0.3640
   95CHL1   C20 9486   5.541   3.430   7.835 -0.9740  0.5892 -0.2814
   95CHL1   H20 9487   5.431   3.445   7.826 -1.3466 -0.2441  2.2163
   95CHL1   C21 9488   5.599   3.557   7.906 -0.8596 -0.6994 -0.4541
   95CHL1  H21A 9489   5.691   3.529   7.962  0.8925 -0.6874 -3.1266
   95CHL1  H21B 9490   5.521   3.608   7.966  1.8546  1.8825  1.1532
   95CHL1  H21C 9491   5.641   3.640   7.846 -2.1394  1.2940  1.3071
   95CHL1   C22 9492   5.541   3.309   7.921 -0.2842  0.0994 -0.6619
   95CHL1  H22A 9493   5.511   3.215   7.870  1.6609 -0.6769 -0.4762
   95CHL1  H22B 9494   5.645   3.300   7.959 -0.7835 -1.1896  0.4934
   95CHL1   C23 9495   5.447   3.331   8.042 -0.0744  0.0211  0.1013
   95CHL1  H23A 9496   5.476   3.427   8.089 -1.1725  0.1564  0.5357
   95CHL1  H23B 9497   5.340   3.335   8.012 -0.1882  0.6110  0.5610
   95CHL1   C24 9498   5.473   3.212   8.141 -0.3071 -0.4692 -1.1557
   95CHL1  H24A 9499   5.419   3.122   8.108 -1.2203 -0.9341  1.3626
   95CHL1  H24B 9500   5.580   3.181   8.150  0.2092  1.3352 -0.6436
   95CHL1   C25 9501   5.416   3.234   8.277 -0.0334 -0.1502 -0.4318
   95CHL1   H25 9502   5.314   3.277   8.268 -0.3414 -0.8611 -0.4412
   95CHL1   C26 9503   5.387   3.097   8.343  1.4056 -0.9956  0.5445
   95CHL1  H26A 9504   5.342   3.109   8.444  0.2699 -0.0638 -0.0404
   95CHL1  H26B 9505   5.317   3.038   8.280  0.2016  1.5499 -0.6837
   95CHL1  H26C 9506   5.481   3.040   8.355  1.7628 -0.2848  1.2055
   95CHL1   C27 9507   5.506   3.319   8.368 -0.2532  0.4162  0.5734
   95CHL1  H27A 9508   5.452   3.332   8.464 -0.0050 -0.6495  0.8707
   95CHL1  H27B 9509   5.602   3.265   8.384 -0.1720 -0.0303 -1.1889
   95CHL1  H27C 9510   5.523   3.419   8.322 -0.8180  0.8676  1.3117
   96CHL1    C3 9511   5.554   2.441   6.797 -0.5677 -0.5950  0.2293
   96CHL1    H3 9512   5.656   2.439   6.840 -0.7842  0.1850  0.7883
   96CHL1    O3 9513   5.563   2.461   6.658  0.2465 -0.0280 -0.0188
   96CHL1   H3' 9514   5.571   2.379   6.610 -2.8925  1.1639 -2.9761
   96CHL1    C4 9515   5.480   2.307   6.827 -0.8862 -0.0475 -0.4927
   96CHL1   H4A 9516   5.381   2.314   6.777  0.0702 -1.4387 -2.7481
   96CHL1   H4B 9517   5.538   2.227   6.776 -1.6810 -1.2357  0.3948
   96CHL1    C5 9518   5.482   2.295   6.977 -0.3150  0.5485  0.1175
   96CHL1    C6 9519   5.538   2.193   7.036  0.6082 -0.0835  0.1941
   96CHL1    H6 9520   5.582   2.114   6.974  0.5146  0.2669 -0.3270
   96CHL1    C7 9521   5.535   2.174   7.187  0.0039  0.0760 -0.1175
   96CHL1   H7A 9522   5.513   2.068   7.212  0.2049  0.2047  0.6431
   96CHL1   H7B 9523   5.638   2.187   7.227  0.3297  0.7459 -1.1414
   96CHL1    C8 9524   5.433   2.260   7.264  0.5167  0.4890 -0.3132
   96CHL1    H8 9525   5.328   2.230   7.241  0.3652  2.2443 -2.1203
   96CHL1   C14 9526   5.464   2.253   7.410 -0.7131 -0.0931 -0.1853
   96CHL1   H14 9527   5.565   2.295   7.428 -0.4314 -1.1534  0.7534
   96CHL1   C15 9528   5.468   2.118   7.479  0.2678  0.3362 -0.4193
   96CHL1  H15A 9529   5.384   2.058   7.437  0.5966  0.0803 -0.7177
   96CHL1  H15B 9530   5.562   2.063   7.459  1.1212  1.5446  0.1581
   96CHL1   C16 9531   5.453   2.148   7.629  0.1187 -0.3325 -0.2698
   96CHL1  H16A 9532   5.373   2.084   7.673 -0.3103 -0.5344 -1.3111
   96CHL1  H16B 9533   5.547   2.113   7.677 -0.8669 -1.5472  0.8886
   96CHL1   C17 9534   5.432   2.305   7.635 -0.1391  0.6312  0.3061
   96CHL1   H17 9535   5.531   2.354   7.635 -0.9272  2.3797  2.4337
   96CHL1   C13 9536   5.376   2.344   7.495  0.0944  0.2024 -0.5855
   96CHL1   C18 9537   5.222   2.294   7.475 -0.3296  0.0426 -1.1914
   96CHL1  H18A 9538   5.150   2.365   7.522  0.5251 -0.6978  1.4196
   96CHL1  H18B 9539   5.190   2.277   7.370 -1.7388 -2.4141 -0.4442
   96CHL1  H18C 9540   5.201   2.206   7.540 -1.8980 -0.4327 -2.2807
   96CHL1   C12 9541   5.393   2.487   7.450  0.1067  0.4396  0.3862
   96CHL1  H12A 9542   5.316   2.551   7.498 -0.4864  0.9183 -1.1675
   96CHL1  H12B 9543   5.488   2.526   7.493  0.3259 -1.7956  2.1772
   96CHL1   C11 9544   5.372   2.507   7.295  0.2498  0.2281 -0.6627
   96CHL1  H11A 9545   5.264   2.484   7.278  0.1731 -0.7830  0.9623
   96CHL1  H11B 9546   5.402   2.609   7.264 -0.0760 -0.1552 -2.3526
   96CHL1    C9 9547   5.445   2.408   7.211 -0.0382 -0.3296 -0.2661
   96CHL1    H9 9548   5.553   2.433   7.216  0.0418 -0.2609 -1.8416
   96CHL1   C10 9549   5.417   2.415   7.059 -0.4919 -0.1106 -0.0534
   96CHL1   C19 9550   5.265   2.406   7.025 -0.5905  0.4588 -0.6834
   96CHL1  H19A 9551   5.227   2.308   7.063  0.5393  0.4136  0.3879
   96CHL1  H19B 9552   5.204   2.489   7.066 -2.3944 -0.9401 -0.3765
   96CHL1  H19C 9553   5.246   2.399   6.916 -2.3827  0.5766 -0.4165
   96CHL1    C1 9554   5.472   2.546   7.001 -0.3472  0.1414  0.2788
   96CHL1   H1A 9555   5.415   2.637   7.030 -0.9327  0.3767 -1.4895
   96CHL1   H1B 9556   5.572   2.558   7.047 -0.3973  0.7868  0.2252
   96CHL1    C2 9557   5.485   2.560   6.851 -0.3662 -0.7161 -0.1609
   96CHL1   H2A 9558   5.539   2.655   6.828 -1.8677 -0.0146 -0.9504
   96CHL1   H2B 9559   5.387   2.557   6.798  0.2275 -2.7578 -1.2429
   96CHL1   C20 9560   5.348   2.360   7.750  0.5907  0.4731 -0.6119
   96CHL1   H20 9561   5.244   2.384   7.717  1.1067  0.6918 -2.1399
   96CHL1   C21 9562   5.410   2.491   7.802  0.0030  0.3298 -0.4813
   96CHL1  H21A 9563   5.335   2.548   7.861 -1.7843  2.0920 -4.1235
   96CHL1  H21B 9564   5.439   2.561   7.721  2.1005  0.0181 -0.0417
   96CHL1  H21C 9565   5.503   2.466   7.857  0.7051 -0.0018 -1.7895
   96CHL1   C22 9566   5.321   2.263   7.867 -0.3458 -0.5257 -0.7334
   96CHL1  H22A 9567   5.244   2.188   7.838  0.3053 -0.7963 -1.8316
   96CHL1  H22B 9568   5.416   2.218   7.901  2.0316  3.6148 -1.2067
   96CHL1   C23 9569   5.256   2.325   7.990 -0.2625  0.0075 -0.0429
   96CHL1  H23A 9570   5.329   2.389   8.044  0.3497 -0.3439 -0.4406
   96CHL1  H23B 9571   5.176   2.393   7.953  0.0003  0.7337  0.6911
   96CHL1   C24 9572   5.187   2.227   8.077  0.1153 -0.4715  0.0719
   96CHL1  H24A 9573   5.084   2.211   8.040  0.0668 -1.1113  0.4735
   96CHL1  H24B 9574   5.239   2.129   8.080  0.4880 -0.2517  1.1796
   96CHL1   C25 9575   5.161   2.271   8.226 -0.1411 -1.0522  0.4383
   96CHL1   H25 9576   5.263   2.286   8.267 -0.8671  0.2731  1.8884
   96CHL1   C26 9577   5.075   2.406   8.221  0.7110 -0.1253 -0.5871
   96CHL1  H26A 9578   5.046   2.432   8.325 -0.1657 -2.9871 -0.0163
   96CHL1  H26B 9579   5.124   2.489   8.166 -1.1958  2.3307  1.1681
   96CHL1  H26C 9580   4.977   2.388   8.171  0.5831 -1.7788  0.2008
   96CHL1   C27 9581   5.093   2.159   8.305 -0.1804 -0.2364  0.0817
   96CHL1  H27A 9582   5.121   2.059   8.263  0.1911 -0.4490  0.8145
   96CHL1  H27B 9583   5.097   2.179   8.414 -0.7163 -0.0783  0.0731
   96CHL1  H27C 9584   4.986   2.163   8.278  0.1501  1.3744 -1.0873
   97OSM      N 9585   1.188   5.041  10.497  0.5944 -0.3211  0.4258
   97OSM    C15 9586   1.231   5.173  10.486 -0.4114  0.2462  0.4817
   97OSM   H15A 9587   1.241   5.219  10.583 -0.5184 -0.2952  0.7562
   97OSM   H15B 9588   1.163   5.235  10.431 -1.0466  0.7204  1.7473
   97OSM   H15C 9589   1.325   5.182  10.433 -0.4727  0.8746  0.4705
   97OSM    C14 9590   1.299   4.955  10.566  0.4626 -0.5688 -0.4109
   97OSM   H14A 9591   1.387   4.954  10.504  0.5209  1.7088 -0.4481
   97OSM   H14B 9592   1.259   4.856  10.580 -2.6123  0.6296  0.0273
   97OSM   H14C 9593   1.325   4.988  10.666  0.3716 -1.5514 -0.0548
   97OSM    C13 9594   1.065   5.039  10.581  0.0011 -0.6499  0.0175
   97OSM   H13A 9595   1.040   4.942  10.620  1.0128 -0.7543  0.4445
   97OSM   H13B 9596   0.981   5.085  10.532  0.5350  0.2678 -0.0657
   97OSM   H13C 9597   1.083   5.099  10.670  0.2993 -0.4476 -0.1770
   97OSM    C12 9598   1.154   4.984  10.364 -0.6351  0.4655 -0.1094
   97OSM   H12A 9599   1.122   4.881  10.373 -0.7528  0.4904 -0.2439
   97OSM   H12B 9600   1.241   4.991  10.300 -2.3703  0.7473 -2.6045
   97OSM    C11 9601   1.044   5.044  10.269 -1.3004 -0.5677 -0.4250
   97OSM   H11A 9602   1.054   4.999  10.168  0.6873  0.6957 -0.8444
   97OSM   H11B 9603   1.064   5.153  10.282  0.8536 -1.1788  2.4567
   97OSM      P 9604   0.852   4.871  10.270 -0.1337 -0.4346 -0.4597
   97OSM    O13 9605   0.957   4.766  10.271 -0.1718  1.0234 -0.5624
   97OSM    O14 9606   0.727   4.843  10.347 -0.5469  0.0177 -0.2863
   97OSM    O11 9607   0.802   4.880  10.116  0.2862 -0.1775 -0.7728
   97OSM    O12 9608   0.914   5.011  10.313  0.1791  0.5987  0.3677
   97OSM    C1S 9609   0.748   5.003  10.077 -0.2855 -0.2868  0.9954
   97OSM    H1S 9610   0.817   5.089  10.096 -0.2075 -0.1142  0.0023
   97OSM    H1T 9611   0.653   5.028  10.127 -1.6710  0.5170 -1.8017
   97OSM     NF 9612   0.701   5.158   9.890  0.2019  0.3026 -0.9766
   97OSM    HNF 9613   0.608   5.192   9.889  0.4010  0.8703 -0.6612
   97OSM    C2S 9614   0.727   5.017   9.920  0.5883  0.7089  0.6504
   97OSM    H2S 9615   0.823   4.985   9.872  1.4578  3.3434  0.4911
   97OSM    C3S 9616   0.610   4.922   9.876 -0.1974 -0.1286  0.0949
   97OSM    H3S 9617   0.522   4.962   9.931  0.5748  1.6244  0.1234
   97OSM     O3 9618   0.631   4.791   9.920  0.5561 -0.1434 -0.1940
   97OSM    HO3 9619   0.710   4.810   9.970  0.1529 -0.5019  0.5978
   97OSM    C4S 9620   0.586   4.934   9.727 -0.5661 -0.1573 -0.1509
   97OSM    H4S 9621   0.533   5.023   9.692  0.2548  0.3807 -0.0661
   97OSM    C5S 9622   0.623   4.850   9.631  0.4384  0.4214 -0.2202
   97OSM    H5S 9623   0.668   4.755   9.663 -2.6070 -0.3781  2.2551
   97OSM    C6S 9624   0.602   4.857   9.482 -0.8074 -0.3952  0.5160
   97OSM    H6S 9625   0.653   4.945   9.438 -1.0445 -0.1029  0.8253
   97OSM    H6T 9626   0.492   4.861   9.464 -0.5031  4.2788 -1.6945
   97OSM    C7S 9627   0.676   4.737   9.411  0.0327 -0.2982 -0.1497
   97OSM    H7S 9628   0.622   4.646   9.444  1.3304 -0.1536  2.7723
   97OSM    H7T 9629   0.786   4.728   9.424  0.3728  1.5839 -1.4144
   97OSM    C8S 9630   0.665   4.731   9.260  0.2731 -0.2768  0.0534
   97OSM    H8S 9631   0.721   4.818   9.220  1.2682 -2.2082 -3.1168
   97OSM    H8T 9632   0.560   4.737   9.226 -0.0265 -0.6207  0.8926
   97OSM    C9S 9633   0.739   4.610   9.197  0.1454 -0.0461  0.1445
   97OSM    H9S 9634   0.714   4.509   9.235 -0.2029  0.4372  1.2607
   97OSM    H9T 9635   0.840   4.625   9.241  0.6134 -1.9620 -0.2149
   97OSM   C10S 9636   0.750   4.626   9.054 -0.5424 -0.1459 -0.2989
   97OSM   H10S 9637   0.775   4.734   9.045  0.5179 -0.4778 -1.6674
   97OSM   H10T 9638   0.656   4.601   9.000 -0.7228  2.6499 -1.4609
   97OSM   C11S 9639   0.875   4.559   8.995 -0.0645 -0.7530  0.6781
   97OSM   H11S 9640   0.865   4.448   8.998 -0.4980 -0.7115  0.8248
   97OSM   H11T 9641   0.968   4.576   9.052  0.0974 -1.7700  0.7453
   97OSM   C12S 9642   0.894   4.598   8.850 -0.1839 -0.1909  0.2913
   97OSM   H12S 9643   0.998   4.574   8.818 -0.1421 -0.9398  0.9687
   97OSM   H12T 9644   0.876   4.706   8.831 -2.7899 -0.0923  2.6430
   97OSM   C13S 9645   0.801   4.527   8.753 -0.1985  0.6044  0.8141
   97OSM   H13S 9646   0.697   4.556   8.781 -1.2619 -0.4961 -1.6249
   97OSM   H13T 9647   0.815   4.418   8.766  1.0517  0.5050 -1.0058
   97OSM   C14S 9648   0.817   4.583   8.605  0.7957 -0.7991 -0.1518
   97OSM   H14S 9649   0.925   4.589   8.583  1.4082  0.9879  2.7786
   97OSM   H14T 9650   0.787   4.690   8.599  0.5687 -0.6468  2.5141
   97OSM   C15S 9651   0.741   4.491   8.509 -0.8864 -0.3743  0.0321
   97OSM   H15S 9652   0.639   4.470   8.548 -1.0063 -1.2646 -0.7274
   97OSM   H15T 9653   0.805   4.400   8.510  0.9541  0.8471  2.3297
   97OSM   C16S 9654   0.735   4.553   8.362 -0.0284 -0.0520 -0.5712
   97OSM   H16S 9655   0.836   4.596   8.344  1.4984 -2.8253  0.6147
   97OSM   H16T 9656   0.653   4.626   8.348  0.1548  0.2924  0.1143
   97OSM   C17S 9657   0.728   4.449   8.250 -0.2962 -0.2632 -0.0884
   97OSM   H17S 9658   0.626   4.405   8.260 -0.8367  1.3036  2.3466
   97OSM   H17T 9659   0.789   4.358   8.266 -0.1015 -0.0577  0.3729
   97OSM   C18S 9660   0.739   4.492   8.108  0.0528 -0.3040  0.2093
   97OSM   H18S 9661   0.847   4.506   8.085 -0.1889  1.2542 -0.0473
   97OSM   H18T 9662   0.694   4.593   8.101  0.8393  0.0120 -0.3294
   97OSM   H18U 9663   0.687   4.428   8.034  0.2357  0.4034 -0.5347
   97OSM    C1F 9664   0.796   5.249   9.888 -0.0410 -0.6963 -0.8460
   97OSM     OF 9665   0.904   5.232   9.941  0.0338  0.3091  0.0857
   97OSM    C2F 9666   0.753   5.387   9.839  0.3561 -0.3088  0.6359
   97OSM    H2F 9667   0.745   5.461   9.922 -1.2814  0.1471  0.1123
   97OSM    H2G 9668   0.657   5.376   9.785 -0.0390 -0.2013  1.3026
   97OSM    C3F 9669   0.850   5.456   9.744 -0.1090  0.1822  0.2806
   97OSM    H3F 9670   0.938   5.483   9.805  0.4599  1.5574 -1.0616
   97OSM    H3G 9671   0.821   5.556   9.705  0.6059  0.7154  1.0802
   97OSM    C4F 9672   0.887   5.370   9.624 -0.1536 -0.1844 -0.7292
   97OSM    H4F 9673   0.928   5.271   9.653 -2.9544 -0.6468  2.2393
   97OSM    H4G 9674   0.965   5.422   9.564  0.0906 -1.9380 -2.0025
   97OSM    C5F 9675   0.768   5.350   9.530  0.1413  0.3216 -0.1243
   97OSM    H5F 9676   0.716   5.446   9.508 -0.0800 -0.0263 -1.1775
   97OSM    H5G 9677   0.695   5.281   9.577  1.2248  0.3805  1.7265
   97OSM    C6F 9678   0.802   5.280   9.399  0.0434 -0.5840  0.1586
   97OSM    H6F 9679   0.850   5.183   9.424  1.3895 -0.3475 -1.3242
   97OSM    H6G 9680   0.893   5.329   9.357 -1.0381  0.8998 -0.5267
   97OSM    C7F 9681   0.690   5.269   9.293 -0.1239 -0.4698  1.2541
   97OSM    H7F 9682   0.651   5.365   9.252 -0.7725 -1.2470 -0.0022
   97OSM    H7G 9683   0.600   5.228   9.343 -1.5720  0.5570 -0.3731
   97OSM    C8F 9684   0.734   5.182   9.172  0.3997  0.3769  0.3941
   97OSM    H8F 9685   0.768   5.089   9.222  2.4118  1.2667  0.7515
   97OSM    H8G 9686   0.831   5.222   9.135  0.8879  1.0931  2.3320
   97OSM    C9F 9687   0.623   5.162   9.070 -0.1193 -0.2716  0.7644
   97OSM    H9F 9688   0.522   5.172   9.113 -0.9597  1.6833 -1.4444
   97OSM   C10F 9689   0.641   5.157   8.933 -0.4913 -0.1852 -0.1129
   97OSM   H10F 9690   0.555   5.155   8.863 -0.8777  2.7347  0.1613
   97OSM   C11F 9691   0.775   5.136   8.867  0.0413  0.2073 -0.6658
   97OSM   H11F 9692   0.850   5.088   8.933  0.1916 -1.7310 -2.1760
   97OSM   H11G 9693   0.816   5.236   8.839 -0.3376  0.3951 -0.5616
   97OSM   C12F 9694   0.773   5.051   8.739 -0.2903 -0.0906  0.2107
   97OSM   H12F 9695   0.768   4.943   8.762  0.4491 -0.4598 -1.3026
   97OSM   H12G 9696   0.870   5.059   8.686 -0.3064  0.7310  0.2817
   97OSM   C13F 9697   0.661   5.084   8.627 -0.8093  0.8147 -0.0900
   97OSM   H13F 9698   0.688   5.189   8.604  0.1408  0.8506  1.0736
   97OSM   H13G 9699   0.559   5.089   8.670 -1.1531 -2.5667 -0.2053
   97OSM   C14F 9700   0.674   4.996   8.507  0.4850 -0.1039 -0.9275
   97OSM   H14F 9701   0.588   4.927   8.518 -0.0722  0.8661  1.2716
   97OSM   H14G 9702   0.767   4.935   8.515  2.2649  2.5515  0.1765
   97OSM   C15F 9703   0.667   5.086   8.381  0.1469  0.7262  0.6678
   97OSM   H15F 9704   0.771   5.094   8.343 -0.6964  1.3136 -1.6649
   97OSM   H15G 9705   0.618   5.184   8.399  1.6789  1.8351 -0.9367
   97OSM   C16F 9706   0.584   5.028   8.261 -0.1091  0.0260  0.4713
   97OSM   H16F 9707   0.546   5.108   8.194 -2.7627 -0.6689  1.0515
   97OSM   H16G 9708   0.501   4.966   8.301 -0.7050  0.5653  0.0715
   97OSM   C17F 9709   0.674   4.934   8.175 -0.5113 -0.5211 -0.5884
   97OSM   H17F 9710   0.719   4.862   8.247  0.5180  1.0855  0.4401
   97OSM   H17G 9711   0.753   4.994   8.127 -1.5393  0.2991 -1.2951
   97OSM   C18F 9712   0.601   4.850   8.073  0.0676  0.6063 -0.0832
   97OSM   H18F 9713   0.676   4.782   8.027  0.5003  1.0517 -0.0359
   97OSM   H18G 9714   0.563   4.908   7.987  2.0145  0.8397 -0.8462
   97OSM   H18H 9715   0.522   4.792   8.126  0.0785  2.0662  1.6413
   98OSM      N 9716   0.273   5.004  10.820  0.1482 -0.4013 -0.2037
   98OSM    C15 9717   0.386   4.904  10.859  0.5805 -0.1516  0.0381
   98OSM   H15A 9718   0.343   4.811  10.893  1.9126 -1.4180 -1.5359
   98OSM   H15B 9719   0.444   4.954  10.934  2.6526 -1.4553 -0.6198
   98OSM   H15C 9720   0.445   4.886  10.770  0.2530 -2.1000  0.1772
   98OSM    C14 9721   0.197   4.956  10.705  0.5676  0.0864 -0.2058
   98OSM   H14A 9722   0.137   4.867  10.724  0.8257  0.0006  0.2184
   98OSM   H14B 9723   0.254   4.952  10.613  1.7074  2.2578  0.3505
   98OSM   H14C 9724   0.127   5.034  10.676  0.7787 -0.0684 -1.1765
   98OSM    C13 9725   0.188   5.009  10.945  0.6822 -0.2606  0.4539
   98OSM   H13A 9726   0.117   4.928  10.945 -0.0702  0.3776 -0.7750
   98OSM   H13B 9727   0.128   5.099  10.944 -0.7472 -1.1922  0.2766
   98OSM   H13C 9728   0.241   5.002  11.039  0.5930  1.9328  0.7338
   98OSM    C12 9729   0.331   5.142  10.807 -0.9023 -0.0343 -0.4619
   98OSM   H12A 9730   0.373   5.160  10.906 -1.7489  0.0210 -0.1097
   98OSM   H12B 9731   0.255   5.215  10.784 -0.1835  1.2117  0.8980
   98OSM    C11 9732   0.442   5.173  10.710  0.1279 -0.0801 -0.2548
   98OSM   H11A 9733   0.536   5.116  10.728  1.2875  1.6305 -0.5917
   98OSM   H11B 9734   0.466   5.282  10.710 -2.1612  0.5367 -2.7906
   98OSM      P 9735   0.363   5.241  10.458 -0.0221 -0.0433 -0.9765
   98OSM    O13 9736   0.239   5.316  10.493  0.0146 -0.0317  0.2909
   98OSM    O14 9737   0.483   5.320  10.431  0.3241 -0.4227 -0.7462
   98OSM    O11 9738   0.345   5.140  10.341  0.2382 -0.2392 -0.2648
   98OSM    O12 9739   0.396   5.134  10.575 -0.0488 -0.5346 -0.2684
   98OSM    C1S 9740   0.264   5.178  10.231  0.1373  0.1335 -0.2358
   98OSM    H1S 9741   0.300   5.277  10.197 -0.3635  2.1346  4.3455
   98OSM    H1T 9742   0.158   5.197  10.256 -0.1076  0.9022 -1.7509
   98OSM     NF 9743   0.250   5.119   9.987  0.1212 -0.7609 -0.0316
   98OSM    HNF 9744   0.157   5.097   9.957  0.6028 -0.3033 -2.0606
   98OSM    C2S 9745   0.282   5.069  10.118 -0.0051 -0.2543 -0.6244
   98OSM    H2S 9746   0.389   5.039  10.125  0.5622  1.7968  0.0962
   98OSM    C3S 9747   0.198   4.942  10.170 -0.4505  0.2011 -0.1085
   98OSM    H3S 9748   0.096   4.971  10.136  0.3754  1.1860 -1.9417
   98OSM     O3 9749   0.204   4.908  10.310  0.6030 -0.0393  0.1396
   98OSM    HO3 9750   0.248   4.984  10.349 -0.1569  1.1322 -1.2201
   98OSM    C4S 9751   0.252   4.819  10.090  0.4243  0.6750  0.1269
   98OSM    H4S 9752   0.362   4.814  10.088  0.4290  0.3238  0.8886
   98OSM    C5S 9753   0.183   4.743  10.003 -0.0563  0.3744  0.2715
   98OSM    H5S 9754   0.076   4.767   9.989 -0.5314 -2.1786 -1.0208
   98OSM    C6S 9755   0.225   4.637   9.911  0.1125 -0.6781 -0.1942
   98OSM    H6S 9756   0.161   4.546   9.915  2.3077 -2.3556 -1.0763
   98OSM    H6T 9757   0.333   4.615   9.926  0.5713  2.3592  1.7467
   98OSM    C7S 9758   0.233   4.671   9.760  0.2449  0.6850 -0.4849
   98OSM    H7S 9759   0.283   4.769   9.745  0.0253  0.6461 -1.5246
   98OSM    H7T 9760   0.131   4.681   9.717  0.7712  0.1150 -1.9428
   98OSM    C8S 9761   0.303   4.569   9.665  0.2699  0.5912  0.3108
   98OSM    H8S 9762   0.279   4.464   9.694  0.3218  0.1468 -1.1658
   98OSM    H8T 9763   0.413   4.588   9.672  0.4320 -0.7363  3.0730
   98OSM    C9S 9764   0.257   4.586   9.521 -0.1770  0.3677 -0.2927
   98OSM    H9S 9765   0.265   4.695   9.500 -0.7511  0.6095  0.6621
   98OSM    H9T 9766   0.146   4.581   9.519 -0.2402  0.4303  1.4048
   98OSM   C10S 9767   0.330   4.494   9.424  0.4137  0.6765 -0.1151
   98OSM   H10S 9768   0.297   4.391   9.449 -0.5155  1.2446  1.1620
   98OSM   H10T 9769   0.435   4.499   9.460 -0.1202  1.2426  1.4654
   98OSM   C11S 9770   0.313   4.532   9.277 -0.3346  0.9163  0.0164
   98OSM   H11S 9771   0.351   4.633   9.254  0.4627  1.4302  3.0837
   98OSM   H11T 9772   0.204   4.538   9.257 -0.6313  0.1578  1.2838
   98OSM   C12S 9773   0.370   4.433   9.174 -0.1942  0.4183 -0.5120
   98OSM   H12S 9774   0.343   4.333   9.214  0.3670  0.2208 -0.6129
   98OSM   H12T 9775   0.481   4.443   9.172 -0.1278 -0.3287 -1.5806
   98OSM   C13S 9776   0.310   4.445   9.037  0.7307  0.3891  0.5275
   98OSM   H13S 9777   0.317   4.551   9.002 -1.4144  0.6386  0.7270
   98OSM   H13T 9778   0.204   4.414   9.041  0.5131  0.8773 -0.7487
   98OSM   C14S 9779   0.382   4.359   8.930 -0.2492  0.0602 -0.4338
   98OSM   H14S 9780   0.393   4.257   8.975 -1.4608  0.5306  1.0197
   98OSM   H14T 9781   0.487   4.391   8.916  0.0941 -0.6767  0.3435
   98OSM   C15S 9782   0.306   4.353   8.799  0.7362  0.2010  0.3573
   98OSM   H15S 9783   0.269   4.451   8.764 -1.9064 -0.7703  0.1912
   98OSM   H15T 9784   0.211   4.300   8.823 -0.1921  1.4652 -0.4180
   98OSM   C16S 9785   0.385   4.299   8.684 -0.5837 -0.3751 -0.9683
   98OSM   H16S 9786   0.446   4.211   8.714  1.2532  1.1506 -0.0731
   98OSM   H16T 9787   0.468   4.367   8.655 -0.2911 -1.0664 -1.7928
   98OSM   C17S 9788   0.299   4.261   8.563  0.1811 -0.0690 -0.9434
   98OSM   H17S 9789   0.244   4.353   8.533  0.4146  1.0091  1.6453
   98OSM   H17T 9790   0.234   4.176   8.594 -0.3241  0.3198 -0.9206
   98OSM   C18S 9791   0.384   4.210   8.443  0.4888  0.2835  0.4830
   98OSM   H18S 9792   0.429   4.299   8.396  2.3872 -0.2587  1.1936
   98OSM   H18T 9793   0.341   4.156   8.357  2.5893  0.8902 -1.0149
   98OSM   H18U 9794   0.461   4.145   8.489  1.0825  1.2578  0.8882
   98OSM    C1F 9795   0.325   5.205   9.919 -0.0251 -0.3828 -0.0974
   98OSM     OF 9796   0.428   5.248   9.965 -0.2790 -0.2594 -0.2243
   98OSM    C2F 9797   0.277   5.243   9.784  0.0440 -0.6457  0.0470
   98OSM    H2F 9798   0.190   5.311   9.792 -0.3950 -0.9538 -1.6661
   98OSM    H2G 9799   0.236   5.151   9.737  0.6562 -1.2109  0.5853
   98OSM    C3F 9800   0.388   5.301   9.697 -0.6460  0.0559  0.8819
   98OSM    H3F 9801   0.474   5.231   9.697  0.5911  1.5252  1.6962
   98OSM    H3G 9802   0.432   5.392   9.742 -0.1532 -0.7565  2.0746
   98OSM    C4F 9803   0.351   5.336   9.548 -0.0948  0.1298 -0.2299
   98OSM    H4F 9804   0.428   5.386   9.485  0.4548 -0.3005  0.0903
   98OSM    H4G 9805   0.275   5.415   9.568 -1.4607 -1.5577  1.6150
   98OSM    C5F 9806   0.290   5.209   9.475  0.2067 -0.1213  0.2164
   98OSM    H5F 9807   0.193   5.184   9.523  0.3270 -0.0931  0.4772
   98OSM    H5G 9808   0.353   5.121   9.501  0.9688  0.4104  0.2231
   98OSM    C6F 9809   0.280   5.227   9.328  0.1545  0.4920 -0.4992
   98OSM    H6F 9810   0.382   5.240   9.284 -0.5933  0.7978 -2.2562
   98OSM    H6G 9811   0.223   5.320   9.306 -0.7646 -0.2966 -1.5618
   98OSM    C7F 9812   0.204   5.115   9.254  0.1751 -0.6232  0.3968
   98OSM    H7F 9813   0.102   5.105   9.294 -0.0071 -1.8244 -0.3385
   98OSM    H7G 9814   0.247   5.013   9.263  1.1226 -0.1860  1.0857
   98OSM    C8F 9815   0.187   5.127   9.098 -0.6312  0.2613 -0.2842
   98OSM    H8F 9816   0.286   5.161   9.059 -1.2676  1.0438 -1.2513
   98OSM    H8G 9817   0.117   5.214   9.093 -0.7232  0.1789 -0.4260
   98OSM    C9F 9818   0.123   5.000   9.044  0.2886 -0.0748  1.0135
   98OSM    H9F 9819   0.018   4.984   9.071  0.1386  0.1170  0.5529
   98OSM   C10F 9820   0.199   4.907   8.985  0.1759 -0.0169  0.8542
   98OSM   H10F 9821   0.153   4.810   8.963  1.1916 -0.2583 -0.2695
   98OSM   C11F 9822   0.345   4.930   8.953  0.4294 -0.4754 -0.0318
   98OSM   H11F 9823   0.408   4.933   9.044  0.2813  0.4528  0.0567
   98OSM   H11G 9824   0.362   5.027   8.901  5.7608 -0.9185  0.3993
   98OSM   C12F 9825   0.412   4.835   8.849 -0.1252  0.1784  0.0599
   98OSM   H12F 9826   0.413   4.732   8.891  0.4491 -0.4688 -1.4707
   98OSM   H12G 9827   0.517   4.871   8.837 -1.0249  2.6211 -1.2197
   98OSM   C13F 9828   0.344   4.838   8.713  0.0657  0.2534 -0.5260
   98OSM   H13F 9829   0.356   4.939   8.667 -0.5703  0.6182  0.0866
   98OSM   H13G 9830   0.235   4.839   8.733 -0.4350 -0.8031 -2.8188
   98OSM   C14F 9831   0.376   4.720   8.621  0.0704  0.4030  0.6116
   98OSM   H14F 9832   0.372   4.624   8.677 -0.6988  0.7371  1.1543
   98OSM   H14G 9833   0.483   4.727   8.592 -0.2887  2.3991 -0.4032
   98OSM   C15F 9834   0.285   4.699   8.494  0.3594 -0.0556 -0.0520
   98OSM   H15F 9835   0.328   4.621   8.427  1.0874  1.3102 -1.2366
   98OSM   H15G 9836   0.293   4.791   8.433 -0.6679 -1.4099 -2.3708
   98OSM   C16F 9837   0.136   4.667   8.526 -0.8044  0.7665 -0.5266
   98OSM   H16F 9838   0.084   4.740   8.592 -4.3897 -2.4681  0.6900
   98OSM   H16G 9839   0.145   4.567   8.574 -2.1428 -0.7360 -3.1551
   98OSM   C17F 9840   0.054   4.645   8.394 -0.7669 -0.0799  0.1920
   98OSM   H17F 9841  -0.023   4.568   8.413 -0.2584 -1.0839 -1.6363
   98OSM   H17G 9842   0.120   4.607   8.314 -2.2981 -0.1290 -1.0827
   98OSM   C18F 9843  -0.016   4.772   8.335  0.1739  0.0255 -0.3651
   98OSM   H18F 9844  -0.068   4.730   8.247  1.3881  0.7307 -1.4510
   98OSM   H18G 9845   0.056   4.849   8.300 -0.9696  1.1894 -0.2441
   98OSM   H18H 9846  -0.080   4.818   8.413  3.8266  1.4134  2.1334
   99OSM      N 9847   3.190   5.314  10.510  0.4165  0.0680 -0.1935
   99OSM    C15 9848   3.156   5.179  10.555 -0.0347  0.2488 -0.0685
   99OSM   H15A 9849   3.110   5.172  10.653 -1.4122 -0.5517 -0.7391
   99OSM   H15B 9850   3.251   5.129  10.568 -1.1236 -1.7147  0.7407
   99OSM   H15C 9851   3.090   5.119  10.494 -0.9848 -0.2210  1.3556
   99OSM    C14 9852   3.255   5.387  10.623  0.3441 -0.0251 -0.4114
   99OSM   H14A 9853   3.185   5.425  10.696 -0.7494  0.0664 -1.4885
   99OSM   H14B 9854   3.300   5.480  10.592  1.2913 -0.1426  0.5217
   99OSM   H14C 9855   3.340   5.336  10.667  0.7030  1.5834  0.8766
   99OSM    C13 9856   3.284   5.302  10.400  0.4827  0.2189 -1.0231
   99OSM   H13A 9857   3.344   5.392  10.400 -1.2673  1.4396  0.3717
   99OSM   H13B 9858   3.239   5.287  10.303 -0.9686 -1.6049 -0.1053
   99OSM   H13C 9859   3.339   5.210  10.414 -2.6810 -1.7414 -0.4789
   99OSM    C12 9860   3.058   5.388  10.467  0.7901  0.1643  0.3155
   99OSM   H12A 9861   2.982   5.388  10.544 -0.4074 -0.6412 -0.8209
   99OSM   H12B 9862   3.014   5.337  10.383  1.0688  1.9713 -0.9716
   99OSM    C11 9863   3.067   5.539  10.414  0.4446  0.1105  0.5468
   99OSM   H11A 9864   3.111   5.595  10.500  1.7219  0.8426 -0.5522
   99OSM   H11B 9865   2.959   5.567  10.406  0.6013  1.2176  1.9198
   99OSM      P 9866   3.087   5.667  10.197 -0.1989 -0.1044 -0.1287
   99OSM    O13 9867   2.938   5.648  10.172 -0.4483 -0.0514  0.3942
   99OSM    O14 9868   3.122   5.803  10.250 -0.2009 -0.2308 -0.1065
   99OSM    O11 9869   3.169   5.660  10.068 -0.1765 -0.0714 -0.0499
   99OSM    O12 9870   3.143   5.558  10.292  0.6595 -0.6196  0.4886
   99OSM    C1S 9871   3.269   5.565  10.054 -0.3015  0.0762  0.1497
   99OSM    H1S 9872   3.224   5.464  10.057 -1.6705  0.6920  2.3261
   99OSM    H1T 9873   3.339   5.578  10.139  0.0231 -1.6412  0.1780
   99OSM     NF 9874   3.429   5.472   9.879  0.3310  0.0454 -0.5060
   99OSM    HNF 9875   3.524   5.475   9.849 -0.4953 -0.2092 -3.4095
   99OSM    C2S 9876   3.348   5.584   9.922  0.0241 -0.6753 -0.4283
   99OSM    H2S 9877   3.267   5.587   9.845 -2.4439  2.0181  2.0205
   99OSM    C3S 9878   3.417   5.730   9.899  0.4906  0.3779  0.1332
   99OSM    H3S 9879   3.506   5.730   9.966 -0.1604 -0.8538  1.0469
   99OSM     O3 9880   3.343   5.842   9.939 -0.1657  0.6208  0.2341
   99OSM    HO3 9881   3.267   5.801   9.981  1.4426 -1.2854  1.4476
   99OSM    C4S 9882   3.466   5.749   9.747 -0.1319 -0.2360  0.0468
   99OSM    H4S 9883   3.570   5.720   9.728 -0.5061 -0.9214 -1.0337
   99OSM    C5S 9884   3.395   5.804   9.645  0.8980 -0.0964 -0.0499
   99OSM    H5S 9885   3.294   5.835   9.673  1.3464  0.0522  1.5025
   99OSM    C6S 9886   3.442   5.824   9.503 -0.2220  0.8192 -0.0408
   99OSM    H6S 9887   3.451   5.931   9.474  0.9150  0.7314 -0.0597
   99OSM    H6T 9888   3.388   5.764   9.427  3.4319 -4.1661  0.8275
   99OSM    C7S 9889   3.585   5.768   9.479  0.0030  0.3617 -0.4740
   99OSM    H7S 9890   3.591   5.658   9.496  0.6718  0.3387 -0.7997
   99OSM    H7T 9891   3.656   5.810   9.553  2.8727  0.1672 -2.9246
   99OSM    C8S 9892   3.657   5.805   9.345  0.5814 -0.6015  0.2010
   99OSM    H8S 9893   3.761   5.767   9.338  0.8294  0.3477 -2.8701
   99OSM    H8T 9894   3.661   5.916   9.335  0.8568 -0.7925 -2.7148
   99OSM    C9S 9895   3.578   5.770   9.218 -0.1701 -0.6829 -0.4399
   99OSM    H9S 9896   3.479   5.820   9.209  1.0598  1.7518 -1.2818
   99OSM    H9T 9897   3.569   5.659   9.213  0.8748 -0.7109 -2.7771
   99OSM   C10S 9898   3.656   5.791   9.089  0.3564  0.1053 -0.3132
   99OSM   H10S 9899   3.758   5.772   9.127 -0.1331 -1.6161  0.2701
   99OSM   H10T 9900   3.639   5.897   9.064 -1.4315  0.7779  3.1391
   99OSM   C11S 9901   3.620   5.696   8.976  0.2437 -0.4014  0.1967
   99OSM   H11S 9902   3.511   5.703   8.957  0.4890  0.4525 -0.9595
   99OSM   H11T 9903   3.649   5.596   9.015 -3.0220 -1.8624 -0.7800
   99OSM   C12S 9904   3.693   5.732   8.848 -0.4038 -0.3093  0.0049
   99OSM   H12S 9905   3.659   5.832   8.814 -1.7793 -1.5405 -2.6163
   99OSM   H12T 9906   3.801   5.726   8.873 -0.6961 -4.1286  0.9589
   99OSM   C13S 9907   3.661   5.631   8.743 -0.3071  0.2041 -0.6241
   99OSM   H13S 9908   3.551   5.614   8.736 -0.2557 -0.6406  0.3604
   99OSM   H13T 9909   3.703   5.538   8.787  0.5548  1.8679  2.4082
   99OSM   C14S 9910   3.721   5.657   8.608  0.5054  0.0075 -0.4996
   99OSM   H14S 9911   3.783   5.573   8.570 -0.5931 -1.5238  0.9654
   99OSM   H14T 9912   3.785   5.747   8.625 -0.4752  0.5727  0.3359
   99OSM   C15S 9913   3.621   5.693   8.503  0.6947  0.2311  0.3782
   99OSM   H15S 9914   3.657   5.773   8.435 -1.9617  1.8512  0.7436
   99OSM   H15T 9915   3.534   5.737   8.555  1.8542  1.8519  1.0526
   99OSM   C16S 9916   3.576   5.578   8.416  0.6050  0.4466  0.1757
   99OSM   H16S 9917   3.527   5.500   8.478 -2.2325 -0.7912 -3.3046
   99OSM   H16T 9918   3.668   5.530   8.376  1.0654 -0.2398  1.9611
   99OSM   C17S 9919   3.484   5.620   8.298  0.7148 -0.2957 -0.0223
   99OSM   H17S 9920   3.421   5.700   8.341  1.5774  0.4119 -0.0454
   99OSM   H17T 9921   3.417   5.535   8.270  1.4918 -0.3287 -1.9036
   99OSM   C18S 9922   3.557   5.671   8.176 -0.6074  0.2964 -0.1956
   99OSM   H18S 9923   3.626   5.754   8.201 -1.2006  0.3244  1.5033
   99OSM   H18T 9924   3.487   5.701   8.094  0.1642 -0.2191 -1.0574
   99OSM   H18U 9925   3.619   5.590   8.133  2.4253  3.3088 -1.9630
   99OSM    C1F 9926   3.380   5.355   9.865 -0.7536  0.9382 -0.2045
   99OSM     OF 9927   3.261   5.322   9.883 -0.1303 -0.0726  0.0449
   99OSM    C2F 9928   3.483   5.255   9.810 -0.8715 -0.3566  0.3766
   99OSM    H2F 9929   3.560   5.227   9.886  0.7028 -2.4279 -1.8206
   99OSM    H2G 9930   3.532   5.300   9.721  0.1454  0.2061  1.1947
   99OSM    C3F 9931   3.413   5.122   9.759 -0.3541 -0.4922 -0.4989
   99OSM    H3F 9932   3.351   5.081   9.842  0.3926  2.9042  1.9740
   99OSM    H3G 9933   3.353   5.151   9.671  1.0935  1.4951 -0.9030
   99OSM    C4F 9934   3.518   5.021   9.718  0.3164 -1.1932 -0.0082
   99OSM    H4F 9935   3.572   4.989   9.809  0.1381  0.8208  0.8659
   99OSM    H4G 9936   3.591   5.075   9.654  1.8076 -0.5684  2.1508
   99OSM    C5F 9937   3.454   4.899   9.643  0.1761 -0.4012  0.3725
   99OSM    H5F 9938   3.369   4.867   9.707 -1.0250  2.6910  0.4708
   99OSM    H5G 9939   3.531   4.819   9.635  1.4470  0.6416  1.6275
   99OSM    C6F 9940   3.405   4.921   9.492  0.2820  0.3091  0.2257
   99OSM    H6F 9941   3.318   4.989   9.488 -0.2338 -0.3506 -0.0628
   99OSM    H6G 9942   3.372   4.817   9.468  1.1650  0.5213 -2.1198
   99OSM    C7F 9943   3.520   4.941   9.393 -0.5368  0.3934 -0.1397
   99OSM    H7F 9944   3.604   4.873   9.414 -0.6807 -0.4354 -2.0665
   99OSM    H7G 9945   3.558   5.043   9.418  0.0976 -0.2480  1.6459
   99OSM    C8F 9946   3.482   4.916   9.248 -0.1486 -0.1207 -0.0112
   99OSM    H8F 9947   3.395   4.850   9.231  0.1900 -0.6232  0.1999
   99OSM    H8G 9948   3.566   4.864   9.198  0.0027 -3.6545  3.4915
   99OSM    C9F 9949   3.452   5.044   9.176 -0.7786 -0.6122  0.1904
   99OSM    H9F 9950   3.356   5.096   9.189 -1.5589 -1.8152 -0.6052
   99OSM   C10F 9951   3.547   5.105   9.098  0.5075 -0.1720 -0.1592
   99OSM   H10F 9952   3.522   5.200   9.047  1.0823 -0.1952 -0.4978
   99OSM   C11F 9953   3.686   5.066   9.063 -0.8596 -0.3869  0.3638
   99OSM   H11F 9954   3.718   4.975   9.118 -0.6642 -1.1285 -0.9325
   99OSM   H11G 9955   3.763   5.141   9.093  0.6950 -1.8179  0.1342
   99OSM   C12F 9956   3.709   5.027   8.915 -0.2691 -0.0894  0.7229
   99OSM   H12F 9957   3.816   5.000   8.912  0.2009  1.3950  2.3025
   99OSM   H12G 9958   3.694   5.118   8.853  1.5842 -0.4440 -0.3104
   99OSM   C13F 9959   3.617   4.921   8.859  0.5610  0.5671 -0.7544
   99OSM   H13F 9960   3.517   4.953   8.895  1.9908  1.1028  3.2000
   99OSM   H13G 9961   3.633   4.825   8.914 -1.2812  0.6912  0.0836
   99OSM   C14F 9962   3.620   4.892   8.712 -0.1806 -0.5891 -0.5598
   99OSM   H14F 9963   3.555   4.803   8.700 -2.8319  1.1013  0.2280
   99OSM   H14G 9964   3.725   4.865   8.688  1.2460  1.5544  2.5328
   99OSM   C15F 9965   3.585   5.012   8.631 -0.3912  0.0368  0.1840
   99OSM   H15F 9966   3.654   5.097   8.646 -0.7675 -0.0100  2.5283
   99OSM   H15G 9967   3.487   5.053   8.663 -0.0422  0.0549  1.2778
   99OSM   C16F 9968   3.568   4.964   8.486  0.1646 -0.1010 -1.1161
   99OSM   H16F 9969   3.490   4.884   8.489  0.7508 -0.6620  1.0682
   99OSM   H16G 9970   3.660   4.917   8.445  0.1178 -0.8480 -0.4098
   99OSM   C17F 9971   3.520   5.070   8.389 -0.0273  0.4309  0.5028
   99OSM   H17F 9972   3.412   5.092   8.406 -0.4295  0.6203 -1.9082
   99OSM   H17G 9973   3.519   5.024   8.288 -2.2097 -1.3303  1.2439
   99OSM   C18F 9974   3.585   5.203   8.399 -0.0282  0.5894  0.3142
   99OSM   H18F 9975   3.692   5.189   8.425  0.5165 -0.0249 -2.0482
   99OSM   H18G 9976   3.539   5.257   8.484 -1.9413  3.1702 -2.1613
   99OSM   H18H 9977   3.567   5.255   8.303 -0.8091 -1.3998 -0.6722
  100OSM      N 9978   4.768   6.464  10.166 -0.9033  1.0497 -0.5277
  100OSM    C15 9979   4.888   6.387  10.137  0.0024 -0.0976  0.6500
  100OSM   H15A 9980   4.935   6.335  10.219  1.8039 -1.2793 -1.0509
  100OSM   H15B 9981   4.955   6.461  10.095 -1.3413  0.7120 -0.1520
  100OSM   H15C 9982   4.876   6.322  10.052 -1.0436 -0.0096  0.7122
  100OSM    C14 9983   4.798   6.558  10.274  0.1791 -0.6035  0.1109
  100OSM   H14A 9984   4.821   6.511  10.368 -0.5827  0.9542  1.1207
  100OSM   H14B 9985   4.712   6.621  10.292 -0.8095 -1.9145  0.1144
  100OSM   H14C 9986   4.887   6.616  10.253  1.5986 -2.7977 -0.2273
  100OSM    C13 9987   4.737   6.537  10.044  0.9168 -0.4009  0.4039
  100OSM   H13A 9988   4.646   6.589  10.070  0.0816 -1.1810 -0.8650
  100OSM   H13B 9989   4.707   6.468   9.966  0.8135  0.2594 -0.1456
  100OSM   H13C 9990   4.806   6.609  10.003  1.7725 -0.9089  0.9092
  100OSM    C12 9991   4.657   6.359  10.196  0.0163  0.6659 -0.4036
  100OSM   H12A 9992   4.665   6.297  10.284 -2.4314 -1.4419 -1.5437
  100OSM   H12B 9993   4.677   6.288  10.117 -1.5648 -2.9348  2.1751
  100OSM    C11 9994   4.515   6.401  10.192  1.1080 -0.4366  0.6932
  100OSM   H11A 9995   4.448   6.333  10.248  1.3305 -0.1214  1.3626
  100OSM   H11B 9996   4.487   6.391  10.085 -1.8190  1.0604  1.2209
  100OSM      P 9997   4.467   6.584  10.384  0.0528  0.0871 -0.0829
  100OSM    O13 9998   4.518   6.488  10.485  0.3868 -0.1115  0.1391
  100OSM    O14 9999   4.523   6.723  10.392 -0.1144 -1.1209 -0.5485
  100OSM    O1110000   4.314   6.584  10.389  0.8761  0.3957  0.0162
  100OSM    O1210001   4.492   6.539  10.231 -0.3168 -0.4955  0.1323
  100OSM    C1S10002   4.238   6.687  10.322 -0.4218 -0.2179 -0.7502
  100OSM    H1S10003   4.286   6.787  10.326 -0.9890  0.0079  0.9285
  100OSM    H1T10004   4.147   6.703  10.384  0.2485  1.4337 -0.1580
  100OSM     NF10005   4.171   6.775  10.108 -0.4008 -0.4499 -0.6939
  100OSM    HNF10006   4.075   6.801  10.117 -0.5181 -0.7608 -1.0668
  100OSM    C2S10007   4.210   6.653  10.175  0.7742 -0.6865 -0.3124
  100OSM    H2S10008   4.306   6.618  10.132  1.5599 -0.9405  1.5334
  100OSM    C3S10009   4.099   6.535  10.175 -0.3039 -0.4813 -0.2135
  100OSM    H3S10010   4.003   6.591  10.181  0.7695  1.2596  3.1074
  100OSM     O310011   4.095   6.448  10.290 -0.0099  0.0243 -0.3376
  100OSM    HO310012   4.170   6.481  10.340 -0.3252  0.6357 -0.2515
  100OSM    C4S10013   4.095   6.453  10.045 -0.2863  0.0043 -0.3593
  100OSM    H4S10014   4.001   6.467   9.989 -0.3876  0.6637 -0.0301
  100OSM    C5S10015   4.180   6.347  10.007  0.1968  0.0253  1.2069
  100OSM    H5S10016   4.261   6.316  10.074  0.5761  1.1247  1.2826
  100OSM    C6S10017   4.162   6.263   9.885  0.6550 -0.2194 -0.4271
  100OSM    H6S10018   4.064   6.276   9.835 -0.5536 -1.1783  1.5928
  100OSM    H6T10019   4.149   6.162   9.928 -1.4545  0.3677  0.4031
  100OSM    C7S10020   4.290   6.252   9.797 -0.6379  0.1407 -0.2438
  100OSM    H7S10021   4.376   6.247   9.868 -0.2357  1.4698 -0.6054
  100OSM    H7T10022   4.300   6.344   9.736 -0.7377  0.7072  0.5816
  100OSM    C8S10023   4.293   6.127   9.708 -0.3850 -1.1940 -0.1077
  100OSM    H8S10024   4.214   6.127   9.630  1.9623 -1.4284 -2.6509
  100OSM    H8T10025   4.299   6.038   9.774 -0.6159 -1.3875 -0.3430
  100OSM    C9S10026   4.424   6.119   9.628 -0.0213  0.2212 -0.8995
  100OSM    H9S10027   4.511   6.091   9.692 -0.4419  1.1320  0.0939
  100OSM    H9T10028   4.460   6.217   9.589  2.3806 -0.7855 -1.4062
  100OSM   C10S10029   4.412   6.028   9.506 -0.1271  0.4787  0.0640
  100OSM   H10S10030   4.319   6.059   9.454  0.8409  0.0956 -1.9953
  100OSM   H10T10031   4.400   5.920   9.528 -1.0464  0.7686  1.0933
  100OSM   C11S10032   4.542   6.042   9.423  0.7952  0.0176 -0.3362
  100OSM   H11S10033   4.636   6.003   9.466  1.6401  3.1115  0.8714
  100OSM   H11T10034   4.564   6.148   9.401  0.8460 -0.0380 -0.5603
  100OSM   C12S10035   4.513   5.973   9.289 -0.8647  0.0494 -0.7055
  100OSM   H12S10036   4.459   5.876   9.301  0.7765 -1.2285 -2.8177
  100OSM   H12T10037   4.612   5.947   9.245  0.6597  2.0005  1.3252
  100OSM   C13S10038   4.416   6.054   9.197 -0.0016  0.6402  0.2556
  100OSM   H13S10039   4.445   6.161   9.208  0.3706  0.4046  1.8835
  100OSM   H13T10040   4.316   6.041   9.244  0.3094 -0.5595  0.6322
  100OSM   C14S10041   4.407   6.023   9.049 -0.4914  0.3361  0.1978
  100OSM   H14S10042   4.333   6.091   9.001 -1.0045 -1.0511 -1.0597
  100OSM   H14T10043   4.366   5.920   9.045  0.2886 -0.1104  2.3310
  100OSM   C15S10044   4.535   6.024   8.965  0.3381 -0.1159 -0.4866
  100OSM   H15S10045   4.614   5.969   9.021  0.7562  3.1180  2.4332
  100OSM   H15T10046   4.568   6.130   8.954  2.1826 -0.6909 -0.8642
  100OSM   C16S10047   4.513   5.960   8.822 -0.1099 -0.9459  0.9298
  100OSM   H16S10048   4.406   5.974   8.794  0.6473  1.1438 -1.2734
  100OSM   H16T10049   4.523   5.849   8.826 -2.1349 -1.1882  0.4964
  100OSM   C17S10050   4.603   6.024   8.717  0.3631  0.3193  0.2809
  100OSM   H17S10051   4.565   6.125   8.693 -2.2258 -0.2667  1.5797
  100OSM   H17T10052   4.582   5.976   8.619 -0.4203  0.6640  0.2713
  100OSM   C18S10053   4.755   6.015   8.742 -0.1602  0.6458 -0.0014
  100OSM   H18S10054   4.774   5.915   8.784 -0.9288  0.9639  1.1418
  100OSM   H18T10055   4.795   6.105   8.793  1.3646 -0.0511  0.0684
  100OSM   H18U10056   4.807   6.013   8.643 -2.0556 -1.3581 -1.0546
  100OSM    C1F10057   4.257   6.856  10.053  1.0123 -0.4089 -0.2693
  100OSM     OF10058   4.367   6.813  10.033  0.5269  0.4190 -0.3214
  100OSM    C2F10059   4.208   6.992  10.006 -0.6558  0.1596  0.0516
  100OSM    H2F10060   4.298   7.025   9.949  0.4838 -0.2367  1.5451
  100OSM    H2G10061   4.187   7.057  10.094  1.9244  1.0693  0.0921
  100OSM    C3F10062   4.080   7.004   9.916 -0.3230  0.0230 -0.0415
  100OSM    H3F10063   4.049   7.110   9.921 -1.1978 -0.2225 -0.0860
  100OSM    H3G10064   4.002   6.941   9.964  0.0719 -2.6032 -2.5608
  100OSM    C4F10065   4.094   6.964   9.773  0.0505 -0.2582  0.1706
  100OSM    H4F10066   4.182   7.013   9.726  0.1919  0.1936  0.9003
  100OSM    H4G10067   4.010   7.004   9.711 -0.1675  0.1715  0.7380
  100OSM    C5F10068   4.111   6.809   9.755 -0.0574 -0.7449  0.2528
  100OSM    H5F10069   4.033   6.767   9.822 -0.5087  1.0332  0.8992
  100OSM    H5G10070   4.208   6.767   9.789  0.7148 -0.3709 -1.3747
  100OSM    C6F10071   4.094   6.768   9.602  0.2263 -0.9833  0.4070
  100OSM    H6F10072   4.186   6.803   9.549  0.2739 -1.0141  0.4699
  100OSM    H6G10073   4.006   6.831   9.575  0.5902 -0.2133  0.9679
  100OSM    C7F10074   4.081   6.622   9.589  0.5409 -1.0833  0.4235
  100OSM    H7F10075   3.987   6.614   9.529 -1.1220  1.2296  2.5182
  100OSM    H7G10076   4.053   6.583   9.690 -2.2948 -1.4108 -0.3978
  100OSM    C8F10077   4.199   6.540   9.533 -0.0490 -0.6896  0.3846
  100OSM    H8F10078   4.279   6.537   9.610 -0.0137  0.9967  0.4411
  100OSM    H8G10079   4.244   6.611   9.461 -1.9803 -0.3123 -0.5136
  100OSM    C9F10080   4.158   6.406   9.494  0.3284  0.3803 -0.0156
  100OSM    H9F10081   4.107   6.351   9.574  1.2884  0.7923  0.8956
  100OSM   C10F10082   4.186   6.351   9.372 -1.3243 -0.2448 -0.0640
  100OSM   H10F10083   4.161   6.245   9.357  1.5774 -1.4519  2.5115
  100OSM   C11F10084   4.273   6.415   9.262 -0.4709  0.2398  0.3479
  100OSM   H11F10085   4.364   6.351   9.258 -0.4919  0.1925  0.6075
  100OSM   H11G10086   4.318   6.513   9.291 -0.0054 -0.1788  1.0913
  100OSM   C12F10087   4.207   6.440   9.127  0.3255 -0.5660 -0.0943
  100OSM   H12F10088   4.130   6.520   9.134  1.5555  1.1442 -3.6023
  100OSM   H12G10089   4.152   6.361   9.070 -1.3598  0.2283  0.3585
  100OSM   C13F10090   4.316   6.487   9.033 -0.3789  0.4690  0.9991
  100OSM   H13F10091   4.386   6.402   9.019  0.2474  1.1958 -0.5280
  100OSM   H13G10092   4.366   6.573   9.082 -2.5289  2.6543 -0.4163
  100OSM   C14F10093   4.261   6.547   8.900 -0.5854  1.2262 -0.4065
  100OSM   H14F10094   4.190   6.627   8.927  0.6917  2.7539 -1.4131
  100OSM   H14G10095   4.217   6.469   8.834  0.2264 -0.0035  0.4555
  100OSM   C15F10096   4.385   6.599   8.833  0.0292  0.6090  0.6414
  100OSM   H15F10097   4.453   6.513   8.816 -2.3986 -1.8489  2.5215
  100OSM   H15G10098   4.433   6.668   8.906 -1.5844  1.6053  0.8114
  100OSM   C16F10099   4.345   6.685   8.711 -0.3165  0.0065  0.2984
  100OSM   H16F10100   4.260   6.754   8.731  0.7048  1.3289  0.1591
  100OSM   H16G10101   4.307   6.612   8.636  0.5729  1.9435 -2.1884
  100OSM   C17F10102   4.454   6.764   8.641 -0.4589 -0.2219 -0.6387
  100OSM   H17F10103   4.555   6.718   8.648 -1.5270 -2.4604  2.2803
  100OSM   H17G10104   4.460   6.864   8.690  3.0588 -0.2400 -0.7268
  100OSM   C18F10105   4.413   6.797   8.498  0.3524 -0.9923 -0.1617
  100OSM   H18F10106   4.330   6.870   8.482  0.0356 -0.8274  1.9444
  100OSM   H18G10107   4.382   6.697   8.461  1.7132 -1.7266  0.6079
  100OSM   H18H10108   4.495   6.835   8.434 -1.3992  0.4510 -1.6471
  101OSM      N10109   1.297   6.629  10.352  0.2464 -0.1962  0.4859
  101OSM    C1510110   1.370   6.682  10.482  0.3380  0.1626  0.0163
  101OSM   H15A10111   1.450   6.614  10.507 -0.7782 -0.7753  1.1216
  101OSM   H15B10112   1.313   6.675  10.573  0.5843 -0.7269  0.1072
  101OSM   H15C10113   1.415   6.779  10.463  2.0896 -0.0965  2.4120
  101OSM    C1410114   1.234   6.500  10.389  0.5397 -0.4618  0.5600
  101OSM   H14A10115   1.318   6.441  10.419  1.3665  0.2145 -0.3624
  101OSM   H14B10116   1.186   6.453  10.305 -0.1746  2.2195 -0.6478
  101OSM   H14C10117   1.158   6.530  10.460  2.6274  2.9177  1.5971
  101OSM    C1310118   1.191   6.732  10.322 -0.1664  0.3716 -0.3712
  101OSM   H13A10119   1.141   6.709  10.229  0.5667 -0.4627 -0.5717
  101OSM   H13B10120   1.238   6.828  10.303  0.6650 -0.0545 -0.5043
  101OSM   H13C10121   1.122   6.723  10.405  0.6304 -2.0938  0.1045
  101OSM    C1210122   1.402   6.626  10.241 -0.0782  0.3760 -0.0307
  101OSM   H12A10123   1.481   6.559  10.271 -0.9783 -1.3432 -1.3027
  101OSM   H12B10124   1.431   6.727  10.218  0.7416  0.3968  1.0590
  101OSM    C1110125   1.367   6.560  10.103  0.1049 -0.2402 -0.6535
  101OSM   H11A10126   1.330   6.461  10.137  0.2599 -1.4923 -3.7634
  101OSM   H11B10127   1.465   6.555  10.052  0.9195  2.2574  0.5047
  101OSM      P10128   1.317   6.750   9.947 -0.4284  0.0892  0.1761
  101OSM    O1310129   1.203   6.817   9.884  0.3008 -0.0768  0.4055
  101OSM    O1410130   1.396   6.830  10.039 -0.0436 -0.0567  0.0991
  101OSM    O1110131   1.410   6.695   9.838 -0.3023 -0.3539  0.3353
  101OSM    O1210132   1.269   6.626  10.026 -0.1160 -0.0443 -1.1306
  101OSM    C1S10133   1.348   6.606   9.744 -0.1786 -0.1932  0.2979
  101OSM    H1S10134   1.247   6.569   9.773  0.9496 -1.6373  2.7010
  101OSM    H1T10135   1.424   6.529   9.720 -0.2058  0.4027 -1.8510
  101OSM     NF10136   1.274   6.584   9.508  0.7171  0.6200  0.6130
  101OSM    HNF10137   1.329   6.560   9.429  0.6634 -1.1749  1.0685
  101OSM    C2S10138   1.335   6.677   9.605 -0.3813  0.2722  0.6466
  101OSM    H2S10139   1.263   6.759   9.624 -0.5176  0.1757  0.5501
  101OSM    C3S10140   1.458   6.749   9.556 -0.2987 -0.1280  0.7501
  101OSM    H3S10141   1.531   6.669   9.534 -0.2581  0.8807 -3.5175
  101OSM     O310142   1.507   6.841   9.652 -0.1896 -0.2413  0.2980
  101OSM    HO310143   1.479   6.811   9.739 -0.7561 -0.4348  0.0506
  101OSM    C4S10144   1.426   6.817   9.421 -0.8366 -0.7945 -0.0371
  101OSM    H4S10145   1.458   6.755   9.335  0.1806 -0.4607  0.1014
  101OSM    C5S10146   1.376   6.943   9.415 -0.1498 -0.3652 -0.1030
  101OSM    H5S10147   1.349   6.991   9.510  1.1202  0.4663 -0.1323
  101OSM    C6S10148   1.343   7.018   9.287 -0.9188 -0.1047  0.6658
  101OSM    H6S10149   1.386   7.121   9.292  0.5899 -0.7392  1.2262
  101OSM    H6T10150   1.233   7.033   9.272 -0.3785  2.0522 -2.0484
  101OSM    C7S10151   1.391   6.954   9.154  0.2591 -0.3955  0.0952
  101OSM    H7S10152   1.342   6.854   9.148 -1.5159  0.1902  3.1114
  101OSM    H7T10153   1.502   6.959   9.153  0.2368  0.5227 -1.5723
  101OSM    C8S10154   1.343   7.037   9.023  0.6437  0.4997 -0.3788
  101OSM    H8S10155   1.379   7.141   9.044 -1.9792  1.0059  2.2435
  101OSM    H8T10156   1.233   7.034   9.034  0.3083 -0.8213 -3.1764
  101OSM    C9S10157   1.399   6.992   8.886 -1.0779  0.0624 -0.3168
  101OSM    H9S10158   1.508   6.974   8.893 -1.0648  0.2875  0.1125
  101OSM    H9T10159   1.377   7.066   8.806 -0.9137 -0.4211 -0.8073
  101OSM   C10S10160   1.346   6.859   8.828 -0.2511  0.2594 -0.2740
  101OSM   H10S10161   1.366   6.774   8.897  1.2006 -0.0982 -1.1005
  101OSM   H10T10162   1.415   6.839   8.743 -0.6483  0.9230 -0.7622
  101OSM   C11S10163   1.201   6.853   8.781  0.3362 -0.3296  0.0064
  101OSM   H11S10164   1.183   6.952   8.733  1.0255 -0.6426 -0.9324
  101OSM   H11T10165   1.131   6.856   8.867 -0.5828  0.2978 -0.7496
  101OSM   C12S10166   1.163   6.740   8.690 -0.2236  0.2083  0.4735
  101OSM   H12S10167   1.161   6.644   8.745 -0.5569  0.6863  1.3156
  101OSM   H12T10168   1.240   6.729   8.611  1.0396  0.3855  1.6501
  101OSM   C13S10169   1.022   6.757   8.635  0.1996 -0.2079 -1.0773
  101OSM   H13S10170   1.025   6.856   8.583  2.8913  0.6689  0.5404
  101OSM   H13T10171   0.957   6.776   8.723  1.2317  2.1740 -0.7342
  101OSM   C14S10172   0.983   6.647   8.523  0.3179  0.1549 -0.1804
  101OSM   H14S10173   0.991   6.557   8.588  1.5005  1.3897  1.4852
  101OSM   H14T10174   1.056   6.646   8.440 -0.9933 -0.6333 -1.3575
  101OSM   C15S10175   0.841   6.652   8.457 -0.0273  0.4842 -0.3385
  101OSM   H15S10176   0.840   6.575   8.377  1.7417 -0.8029  0.7899
  101OSM   H15T10177   0.823   6.750   8.408 -0.6378  1.1969  1.2418
  101OSM   C16S10178   0.722   6.630   8.561 -0.0743 -0.3191  0.1178
  101OSM   H16S10179   0.723   6.693   8.652  0.4973 -3.9599  2.8906
  101OSM   H16T10180   0.750   6.528   8.597  2.1203  0.1100 -0.2174
  101OSM   C17S10181   0.588   6.631   8.488  0.9380  0.4310 -0.2477
  101OSM   H17S10182   0.511   6.593   8.558  0.9522  0.6146 -0.1317
  101OSM   H17T10183   0.580   6.560   8.403 -0.7746 -0.9248  0.9602
  101OSM   C18S10184   0.546   6.766   8.433  0.3812  0.0997  0.6783
  101OSM   H18S10185   0.579   6.845   8.504  1.5827  0.6770 -0.4742
  101OSM   H18T10186   0.436   6.768   8.420  0.1832 -1.5578  1.7040
  101OSM   H18U10187   0.603   6.789   8.340 -1.6776 -0.9166 -0.9315
  101OSM    C1F10188   1.151   6.531   9.524 -0.1034 -0.1670 -0.3081
  101OSM     OF10189   1.068   6.575   9.604  0.5119  0.4072  0.2091
  101OSM    C2F10190   1.127   6.397   9.468  0.4855 -0.1149 -0.6981
  101OSM    H2F10191   1.108   6.325   9.550  1.9377 -1.2604 -1.3091
  101OSM    H2G10192   1.217   6.367   9.409  0.7334  1.6173 -1.2709
  101OSM    C3F10193   1.007   6.387   9.372  0.3832  0.1620  0.5778
  101OSM    H3F10194   1.017   6.479   9.312 -0.3709  0.5593  1.0424
  101OSM    H3G10195   0.921   6.393   9.443  1.0042 -0.2665  1.3837
  101OSM    C4F10196   1.002   6.262   9.291  0.0669 -0.4892 -0.4743
  101OSM    H4F10197   1.004   6.162   9.341 -0.8265  0.1275  0.8409
  101OSM    H4G10198   1.098   6.255   9.236  0.6899  0.7192  0.4187
  101OSM    C5F10199   0.878   6.259   9.200 -0.4976  0.3229 -0.4829
  101OSM    H5F10200   0.785   6.284   9.255  0.3968  0.4470  1.0147
  101OSM    H5G10201   0.856   6.156   9.165  0.3675 -1.8086  4.4404
  101OSM    C6F10202   0.899   6.368   9.085 -0.8644  0.1158 -0.1336
  101OSM    H6F10203   0.907   6.470   9.129  1.1817 -1.1807  2.8317
  101OSM    H6G10204   1.000   6.340   9.050 -0.7550  0.7975 -0.3826
  101OSM    C7F10205   0.802   6.343   8.974 -0.0758  0.3154 -0.1798
  101OSM    H7F10206   0.719   6.413   9.000  1.0901  1.0507  1.8540
  101OSM    H7G10207   0.775   6.236   8.986  0.9858  0.3416  3.8037
  101OSM    C8F10208   0.848   6.375   8.826  0.5104  0.2254  0.0078
  101OSM    H8F10209   0.905   6.470   8.826  1.7905 -0.5138 -0.5288
  101OSM    H8G10210   0.753   6.401   8.774  1.2209 -0.3632 -1.6552
  101OSM    C9F10211   0.937   6.260   8.788 -0.5166 -0.1737  0.2740
  101OSM    H9F10212   1.007   6.224   8.865 -0.1002 -0.6173 -0.3078
  101OSM   C10F10213   0.926   6.194   8.671  0.1161  0.4030  1.1300
  101OSM   H10F10214   1.007   6.123   8.649 -1.2757 -1.0112  0.3177
  101OSM   C11F10215   0.845   6.245   8.548 -0.1739 -0.2722  0.3725
  101OSM   H11F10216   0.899   6.296   8.465 -1.0156  0.9250  0.5403
  101OSM   H11G10217   0.771   6.318   8.588  0.2806  0.0940  0.5578
  101OSM   C12F10218   0.767   6.138   8.478 -0.0715  0.1767  0.3980
  101OSM   H12F10219   0.711   6.068   8.544 -3.8488  1.1799 -1.4366
  101OSM   H12G10220   0.838   6.075   8.421 -0.3286  0.2063  0.0467
  101OSM   C13F10221   0.678   6.203   8.379 -0.4644  0.2538  0.6354
  101OSM   H13F10222   0.726   6.264   8.300  1.3027  0.4277  1.7853
  101OSM   H13G10223   0.609   6.267   8.438 -0.0702 -0.2587  1.6967
  101OSM   C14F10224   0.587   6.095   8.303  0.0829  0.3491  0.1806
  101OSM   H14F10225   0.543   6.014   8.366  1.9296  0.2821  1.4701
  101OSM   H14G10226   0.649   6.048   8.224 -2.2044 -1.0280 -0.9013
  101OSM   C15F10227   0.466   6.165   8.233  0.1095 -0.0055 -0.6845
  101OSM   H15F10228   0.412   6.223   8.311  1.3713  1.6472 -0.9723
  101OSM   H15G10229   0.404   6.085   8.187  2.0378 -1.6070 -0.6220
  101OSM   C16F10230   0.510   6.260   8.123  0.0684  0.3110 -0.2409
  101OSM   H16F10231   0.574   6.197   8.059 -0.6705 -1.3170  0.5475
  101OSM   H16G10232   0.567   6.349   8.156  0.4083 -0.3000  0.8893
  101OSM   C17F10233   0.400   6.309   8.029 -1.0025  0.2145 -0.5273
  101OSM   H17F10234   0.316   6.344   8.092 -0.3694 -2.8928  2.2886
  101OSM   H17G10235   0.362   6.215   7.985  1.3024  0.3981 -3.1944
  101OSM   C18F10236   0.437   6.402   7.907 -0.5826  0.2326 -0.4444
  101OSM   H18F10237   0.465   6.508   7.926 -2.2003  0.8605 -1.3469
  101OSM   H18G10238   0.344   6.394   7.847 -0.7540  0.4120 -0.2055
  101OSM   H18H10239   0.519   6.347   7.856 -0.6617 -0.0077 -0.3108
  102OSM      N10240   4.172   1.798  10.799 -0.1767  0.3946 -0.1427
  102OSM    C1510241   4.023   1.783  10.813  0.0381 -0.1536  0.4310
  102OSM   H15A10242   3.968   1.841  10.740  1.7123  0.7753 -0.1403
  102OSM   H15B10243   3.991   1.828  10.906  0.2806  1.7529 -0.3482
  102OSM   H15C10244   3.991   1.680  10.808  3.3644 -1.2653 -0.5640
  102OSM    C1410245   4.196   1.944  10.776  0.0962  0.1640 -0.2821
  102OSM   H14A10246   4.160   2.004  10.858 -1.1891 -0.3851 -0.4220
  102OSM   H14B10247   4.150   1.972  10.683  1.0550  0.1539 -0.7721
  102OSM   H14C10248   4.301   1.964  10.758  0.5071 -1.2812  0.3049
  102OSM    C1310249   4.244   1.762  10.926  0.7994 -0.8159 -0.2875
  102OSM   H13A10250   4.237   1.846  10.994 -0.5319 -1.3975  0.3417
  102OSM   H13B10251   4.348   1.744  10.905  0.4797 -0.3327 -2.5108
  102OSM   H13C10252   4.204   1.668  10.963  1.3667 -1.2621 -0.7935
  102OSM    C1210253   4.215   1.724  10.679  0.6589  0.9566  0.5416
  102OSM   H12A10254   4.168   1.762  10.590 -0.6690  0.3757  0.9700
  102OSM   H12B10255   4.185   1.622  10.699  0.7737  1.3531  3.0488
  102OSM    C1110256   4.366   1.738  10.651 -1.0508 -0.3685  0.6245
  102OSM   H11A10257   4.392   1.846  10.658  1.0888 -0.8310  0.3336
  102OSM   H11B10258   4.378   1.712  10.544  0.2376 -1.4296  1.0024
  102OSM      P10259   4.433   1.494  10.736  0.2250 -0.4079 -0.1366
  102OSM    O1310260   4.545   1.439  10.807 -0.4437 -0.0860 -0.4009
  102OSM    O1410261   4.298   1.446  10.786 -0.3692 -0.3817  0.3365
  102OSM    O1110262   4.445   1.452  10.585 -0.1119 -0.0164 -0.1481
  102OSM    O1210263   4.439   1.654  10.734  0.2041  0.0032  0.5636
  102OSM    C1S10264   4.332   1.426  10.504 -0.0646  0.4914  0.4734
  102OSM    H1S10265   4.241   1.482  10.533  0.1094  0.3118  1.4157
  102OSM    H1T10266   4.314   1.316  10.508  1.0563  0.1978 -1.2892
  102OSM     NF10267   4.231   1.449  10.275  0.1256  0.1194 -0.1004
  102OSM    HNF10268   4.191   1.362  10.247 -1.2711  0.6705  0.1236
  102OSM    C2S10269   4.356   1.456  10.352 -0.3336  0.1142 -0.0478
  102OSM    H2S10270   4.400   1.558  10.350  2.3163 -0.9481 -1.4172
  102OSM    C3S10271   4.463   1.352  10.301  0.7902 -0.1853  0.3712
  102OSM    H3S10272   4.399   1.262  10.299 -0.2622  0.4342  2.7559
  102OSM     O310273   4.570   1.313  10.393 -0.2781 -0.2611 -0.1588
  102OSM    HO310274   4.555   1.357  10.477 -0.2519  0.8244 -0.7114
  102OSM    C4S10275   4.503   1.379  10.151  0.2495 -0.0172 -0.3548
  102OSM    H4S10276   4.431   1.346  10.075 -0.4285 -1.3676  0.8295
  102OSM    C5S10277   4.612   1.442  10.109 -0.1350  0.2336 -0.1634
  102OSM    H5S10278   4.689   1.480  10.177  2.2078 -0.4131 -2.3241
  102OSM    C6S10279   4.640   1.477   9.962 -0.0815 -0.3736 -0.6994
  102OSM    H6S10280   4.736   1.427   9.935 -1.2954 -2.2978 -1.6361
  102OSM    H6T10281   4.655   1.587   9.971 -0.1847 -0.5422  2.5994
  102OSM    C7S10282   4.537   1.436   9.865  0.3292 -0.5858  0.2253
  102OSM    H7S10283   4.443   1.489   9.890  0.3650  0.0663 -0.9768
  102OSM    H7T10284   4.516   1.327   9.870  0.7649 -0.6539  0.7146
  102OSM    C8S10285   4.567   1.476   9.717 -0.4560  0.1297  0.0249
  102OSM    H8S10286   4.676   1.461   9.696 -0.3433  1.9948 -1.0275
  102OSM    H8T10287   4.552   1.585   9.702  1.3877  0.4624  0.2788
  102OSM    C9S10288   4.485   1.408   9.607 -0.5808  0.4958 -0.0953
  102OSM    H9S10289   4.382   1.410   9.648 -0.7989  1.9881 -0.6724
  102OSM    H9T10290   4.519   1.304   9.586  1.2806  1.1400 -0.4772
  102OSM   C10S10291   4.485   1.478   9.468 -0.3854 -0.0324 -0.4098
  102OSM   H10S10292   4.589   1.487   9.432  0.2611  1.7099  1.6522
  102OSM   H10T10293   4.442   1.577   9.492  1.4044  0.2984  1.7862
  102OSM   C11S10294   4.396   1.411   9.364 -0.1077 -0.0548 -0.1360
  102OSM   H11S10295   4.295   1.409   9.412 -0.9340 -0.0663 -1.8050
  102OSM   H11T10296   4.424   1.304   9.352  1.5996  0.5671 -2.2197
  102OSM   C12S10297   4.371   1.480   9.231  0.1257  0.1577  0.1266
  102OSM   H12S10298   4.324   1.580   9.244 -0.7995 -0.2861  0.3527
  102OSM   H12T10299   4.300   1.422   9.168  0.4125  1.4607 -1.4479
  102OSM   C13S10300   4.502   1.491   9.148 -0.4012  0.0729 -0.0089
  102OSM   H13S10301   4.543   1.390   9.129 -0.4884  0.1315 -0.5075
  102OSM   H13T10302   4.572   1.563   9.195  0.1413  0.6477 -1.6199
  102OSM   C14S10303   4.483   1.570   9.011 -0.3354 -0.1369  0.2853
  102OSM   H14S10304   4.436   1.669   9.034  1.9832  1.4530 -1.3788
  102OSM   H14T10305   4.401   1.514   8.961 -0.6667 -1.3792  2.1104
  102OSM   C15S10306   4.611   1.577   8.922  0.0626 -0.5453 -0.8312
  102OSM   H15S10307   4.632   1.476   8.880 -1.0092 -0.2297 -2.1732
  102OSM   H15T10308   4.687   1.609   8.997 -3.1215 -0.5706  2.7196
  102OSM   C16S10309   4.603   1.682   8.812 -0.1879  0.5613  1.2283
  102OSM   H16S10310   4.611   1.786   8.850  1.4660  1.1892 -0.6288
  102OSM   H16T10311   4.503   1.660   8.769  1.3704 -1.9359 -1.4878
  102OSM   C17S10312   4.703   1.667   8.704  0.1337  0.0626 -0.2287
  102OSM   H17S10313   4.714   1.558   8.686  1.0160  0.4315 -2.1130
  102OSM   H17T10314   4.799   1.695   8.753 -0.3963  1.0650  0.2735
  102OSM   C18S10315   4.681   1.750   8.584  0.0136 -0.5028  0.0380
  102OSM   H18S10316   4.760   1.724   8.510  0.3698 -0.8340  0.5258
  102OSM   H18T10317   4.675   1.857   8.615 -0.1415 -0.5130  0.0424
  102OSM   H18U10318   4.585   1.718   8.540  1.2558 -1.5093 -2.1228
  102OSM    C1F10319   4.144   1.548  10.281 -0.2124 -0.8609  0.0578
  102OSM     OF10320   4.183   1.656  10.334 -0.0127 -0.2119 -0.0464
  102OSM    C2F10321   4.008   1.520  10.220  0.0939 -0.4955  0.0967
  102OSM    H2F10322   3.933   1.506  10.302 -0.2230  0.8804  0.0806
  102OSM    H2G10323   4.009   1.430  10.156 -0.4726  0.5143 -1.3843
  102OSM    C3F10324   3.956   1.651  10.158 -0.0618  0.1654  0.0504
  102OSM    H3F10325   3.936   1.730  10.233  0.5823 -0.2861  0.7083
  102OSM    H3G10326   3.854   1.635  10.117  0.3837 -0.1376 -0.9679
  102OSM    C4F10327   4.034   1.705  10.034 -0.4500  0.1450 -1.0287
  102OSM    H4F10328   4.140   1.719  10.064 -0.8127 -0.9722  0.9324
  102OSM    H4G10329   3.993   1.806  10.009  0.5331  0.7987 -0.0675
  102OSM    C5F10330   4.045   1.610   9.914  0.2904  0.1751 -0.1987
  102OSM    H5F10331   3.944   1.580   9.877  1.1814  0.1049 -2.7962
  102OSM    H5G10332   4.111   1.525   9.942 -2.1458 -1.2085  1.8355
  102OSM    C6F10333   4.105   1.677   9.792 -0.1360  0.3312 -0.1687
  102OSM    H6F10334   4.214   1.681   9.811 -0.1591 -0.7748  0.2701
  102OSM    H6G10335   4.067   1.782   9.793  0.6657  0.6462  2.6532
  102OSM    C7F10336   4.080   1.591   9.664 -0.9417 -0.0180 -0.3787
  102OSM    H7F10337   3.972   1.599   9.640 -0.5330  3.0779 -1.6549
  102OSM    H7G10338   4.111   1.485   9.668  1.0044  0.3548 -2.8813
  102OSM    C8F10339   4.139   1.651   9.531 -0.1505  0.1419  0.0836
  102OSM    H8F10340   4.121   1.574   9.452 -3.0434 -0.0411  0.8124
  102OSM    H8G10341   4.247   1.672   9.550 -0.2162 -1.0381  2.0573
  102OSM    C9F10342   4.072   1.777   9.494  0.1841  0.6163 -0.4621
  102OSM    H9F10343   4.066   1.852   9.574  1.0788  0.3306 -0.1217
  102OSM   C10F10344   3.989   1.803   9.384 -0.0578  0.5208 -0.1526
  102OSM   H10F10345   3.936   1.899   9.382 -3.1207 -1.0414  0.1223
  102OSM   C11F10346   3.971   1.710   9.267  0.3766  0.5155 -0.2890
  102OSM   H11F10347   3.869   1.721   9.222 -0.0729  2.2003  1.0194
  102OSM   H11G10348   3.985   1.601   9.278 -1.0230  0.0835 -2.2494
  102OSM   C12F10349   4.077   1.752   9.155  0.4266  0.5788 -0.0329
  102OSM   H12F10350   4.177   1.738   9.202  0.7861  1.8853 -0.3494
  102OSM   H12G10351   4.066   1.860   9.129 -1.7379  0.3602 -0.1683
  102OSM   C13F10352   4.068   1.680   9.022 -0.4279 -0.0176  0.0295
  102OSM   H13F10353   3.961   1.668   8.992  0.6613 -2.8745 -3.4776
  102OSM   H13G10354   4.105   1.577   9.035 -0.0194  0.1270  0.0153
  102OSM   C14F10355   4.155   1.745   8.915 -0.2914 -0.3148 -0.2998
  102OSM   H14F10356   4.257   1.763   8.956 -0.7279  1.8829 -0.0181
  102OSM   H14G10357   4.112   1.844   8.887 -2.0771 -1.1383 -0.5889
  102OSM   C15F10358   4.156   1.667   8.781  0.3681 -0.5992  0.0243
  102OSM   H15F10359   4.048   1.651   8.764 -0.5551 -0.1172  4.3396
  102OSM   H15G10360   4.209   1.570   8.793  2.6583  0.6285  0.4685
  102OSM   C16F10361   4.222   1.749   8.667  0.6047  0.5543  0.0580
  102OSM   H16F10362   4.325   1.785   8.688  0.7016  0.0740  0.4459
  102OSM   H16G10363   4.170   1.845   8.681  2.2422  1.4176  0.4449
  102OSM   C17F10364   4.200   1.679   8.534 -0.3327  0.1510 -0.3308
  102OSM   H17F10365   4.091   1.670   8.514 -0.7260 -0.5557  1.8257
  102OSM   H17G10366   4.247   1.581   8.554  0.8363  0.9066  0.8581
  102OSM   C18F10367   4.267   1.755   8.424  0.8307  0.4903  0.8622
  102OSM   H18F10368   4.376   1.771   8.436  0.7277  0.7134  1.5380
  102OSM   H18G10369   4.224   1.857   8.414 -0.3569 -0.0234  0.6066
  102OSM   H18H10370   4.265   1.703   8.326  0.6919  2.0803 -0.0190
  103OSM      N10371   2.341   3.325  10.654  0.3123 -0.4045  0.3629
  103OSM    C1510372   2.323   3.187  10.711  0.7932  0.3434 -1.0751
  103OSM   H15A10373   2.346   3.173  10.816 -1.9813 -1.8893 -0.6459
  103OSM   H15B10374   2.354   3.099  10.657  0.4142 -1.1492  1.0356
  103OSM   H15C10375   2.215   3.179  10.701  0.7677 -1.4832  0.2468
  103OSM    C1410376   2.265   3.419  10.737 -0.1218  0.1998 -1.5168
  103OSM   H14A10377   2.271   3.521  10.703 -0.4146  0.6347 -0.3069
  103OSM   H14B10378   2.299   3.415  10.839 -0.0839 -0.0553 -1.5377
  103OSM   H14C10379   2.161   3.392  10.726 -0.0101 -0.0739 -1.9044
  103OSM    C1310380   2.487   3.367  10.658  0.0040  0.1361  0.4771
  103OSM   H13A10381   2.531   3.367  10.757 -1.7860  2.6081  1.3591
  103OSM   H13B10382   2.488   3.471  10.628  3.0344  0.6655  1.9684
  103OSM   H13C10383   2.548   3.307  10.592 -1.4879 -0.7541 -0.1210
  103OSM    C1210384   2.290   3.337  10.508 -0.5549  0.6447 -0.2725
  103OSM   H12A10385   2.187   3.305  10.513 -0.0795 -1.1204 -0.9875
  103OSM   H12B10386   2.339   3.259  10.452 -0.6805  0.1947  0.2325
  103OSM    C1110387   2.320   3.469  10.433 -0.4573  0.2309 -0.0632
  103OSM   H11A10388   2.275   3.471  10.331  0.7913 -2.5406 -0.7469
  103OSM   H11B10389   2.429   3.475  10.411 -0.4462  0.4039  0.0319
  103OSM      P10390   2.178   3.679  10.449 -0.5594 -0.1916 -0.0269
  103OSM    O1310391   2.050   3.603  10.448 -0.4312 -0.2142  0.0798
  103OSM    O1410392   2.177   3.808  10.523  0.0737  0.2148  0.2124
  103OSM    O1110393   2.208   3.710  10.293  0.6777 -0.5685 -0.0185
  103OSM    O1210394   2.293   3.583  10.511  0.2280 -0.8897 -0.2803
  103OSM    C1S10395   2.328   3.764  10.249 -0.2750 -0.0392 -0.5904
  103OSM    H1S10396   2.410   3.738  10.319  0.8916  1.8558 -1.1854
  103OSM    H1T10397   2.326   3.874  10.237  0.5152 -0.2300 -3.3729
  103OSM     NF10398   2.504   3.741  10.080  0.0656  0.2819 -0.6285
  103OSM    HNF10399   2.528   3.810  10.012  1.7348  0.3744  0.0131
  103OSM    C2S10400   2.367   3.713  10.108 -0.0739 -0.2151  0.1242
  103OSM    H2S10401   2.357   3.602  10.103 -0.2941 -0.1752 -0.4843
  103OSM    C3S10402   2.262   3.774   9.999  0.2742 -0.4268  0.7082
  103OSM    H3S10403   2.278   3.883   9.991 -1.6277 -0.2067 -0.9085
  103OSM     O310404   2.128   3.763  10.046  0.0467  0.3199  0.1066
  103OSM    HO310405   2.120   3.706  10.122 -2.5240  0.9448  0.4178
  103OSM    C4S10406   2.281   3.728   9.856 -0.1682  0.4539 -0.8108
  103OSM    H4S10407   2.353   3.788   9.798  0.7602  1.1717  1.0003
  103OSM    C5S10408   2.213   3.634   9.790 -0.2159 -0.4661 -0.1632
  103OSM    H5S10409   2.127   3.577   9.829 -1.0191  2.2592  2.4188
  103OSM    C6S10410   2.229   3.611   9.638 -0.1787 -0.1069 -0.3248
  103OSM    H6S10411   2.129   3.615   9.591 -1.3061 -1.5958  1.8214
  103OSM    H6T10412   2.268   3.508   9.628 -1.2636 -0.3994 -1.7208
  103OSM    C7S10413   2.330   3.689   9.555  0.6656  0.0350 -0.2371
  103OSM    H7S10414   2.436   3.677   9.585  1.3607  0.5416 -2.2919
  103OSM    H7T10415   2.301   3.796   9.564  0.2762 -0.1862  1.3060
  103OSM    C8S10416   2.300   3.656   9.400 -0.6101  0.2328 -0.6569
  103OSM    H8S10417   2.200   3.684   9.362 -0.6183  2.1435  0.6803
  103OSM    H8T10418   2.310   3.545   9.400 -0.1959  0.2436  1.4178
  103OSM    C9S10419   2.405   3.713   9.305 -0.1166 -0.1853 -0.0721
  103OSM    H9S10420   2.501   3.659   9.320 -0.5151 -0.4876  1.7169
  103OSM    H9T10421   2.414   3.823   9.319  0.6983 -0.3859  1.1845
  103OSM   C10S10422   2.374   3.679   9.160  0.1020 -0.3222 -0.2567
  103OSM   H10S10423   2.280   3.719   9.116 -0.5038 -0.6241  0.7360
  103OSM   H10T10424   2.363   3.569   9.148 -2.0754 -0.2087  0.2357
  103OSM   C11S10425   2.492   3.715   9.074 -0.7290  0.5883 -0.4539
  103OSM   H11S10426   2.571   3.641   9.097 -0.0944  1.1717 -0.7538
  103OSM   H11T10427   2.536   3.816   9.091  0.9920 -0.2228  0.1353
  103OSM   C12S10428   2.454   3.706   8.928  0.1067  0.3558 -0.7724
  103OSM   H12S10429   2.423   3.806   8.892 -0.0960  0.9016  0.8650
  103OSM   H12T10430   2.375   3.629   8.909  0.8599 -0.4383 -0.7351
  103OSM   C13S10431   2.575   3.671   8.847  0.1712  0.1416 -0.1439
  103OSM   H13S10432   2.650   3.753   8.852 -0.3825  0.5850  2.1755
  103OSM   H13T10433   2.535   3.663   8.744 -0.8979  1.3353  0.1476
  103OSM   C14S10434   2.645   3.538   8.884 -0.0539  0.8931  0.1756
  103OSM   H14S10435   2.571   3.457   8.900 -0.0939  0.5788 -1.4464
  103OSM   H14T10436   2.702   3.537   8.980  1.8599  0.6454 -0.9073
  103OSM   C15S10437   2.728   3.493   8.762 -0.3137  0.1716 -0.3025
  103OSM   H15S10438   2.802   3.569   8.729  3.3282 -2.8555  0.3021
  103OSM   H15T10439   2.676   3.465   8.667  0.4783 -0.3363 -0.5941
  103OSM   C16S10440   2.819   3.377   8.801 -0.3011  0.0187 -0.1527
  103OSM   H16S10441   2.767   3.279   8.791 -2.5567  1.1672 -0.2688
  103OSM   H16T10442   2.866   3.397   8.900  4.6496  1.6634 -2.5243
  103OSM   C17S10443   2.943   3.376   8.706 -0.5877 -0.2172 -0.1656
  103OSM   H17S10444   3.018   3.298   8.729 -0.9350 -0.5868 -0.2653
  103OSM   H17T10445   2.997   3.472   8.717 -0.5130 -0.1184 -1.2963
  103OSM   C18S10446   2.914   3.357   8.554 -0.4340 -0.1910 -0.3750
  103OSM   H18S10447   2.971   3.436   8.502  0.7128 -0.1417  0.9091
  103OSM   H18T10448   2.811   3.379   8.521 -0.8747 -1.1383  0.3036
  103OSM   H18U10449   2.950   3.255   8.525  0.6783 -0.6916  2.4316
  103OSM    C1F10450   2.606   3.689  10.148 -0.3604 -0.1016 -0.0587
  103OSM     OF10451   2.588   3.605  10.238 -0.5882 -0.3243 -0.0103
  103OSM    C2F10452   2.744   3.731  10.111 -0.0143  0.1251 -0.6356
  103OSM    H2F10453   2.800   3.720  10.207 -1.0773 -0.8883 -0.1073
  103OSM    H2G10454   2.755   3.836  10.077  0.9460 -0.3551 -1.8570
  103OSM    C3F10455   2.810   3.638  10.006 -0.0226  0.4150  0.1833
  103OSM    H3F10456   2.796   3.528  10.011 -1.5104  0.6285  1.4975
  103OSM    H3G10457   2.920   3.642  10.024  0.3481  1.0191 -1.9969
  103OSM    C4F10458   2.781   3.677   9.863  0.5468  0.7770  0.6195
  103OSM    H4F10459   2.801   3.785   9.845  1.1321  0.9841  2.3422
  103OSM    H4G10460   2.674   3.658   9.841  0.8807 -0.4197 -0.0773
  103OSM    C5F10461   2.843   3.587   9.754 -0.5945 -0.4793  0.3473
  103OSM    H5F10462   2.850   3.482   9.789 -1.5199 -0.8651 -0.5651
  103OSM    H5G10463   2.951   3.611   9.739 -0.4385 -1.6951 -0.6366
  103OSM    C6F10464   2.771   3.594   9.622  0.1121 -0.4289  0.1978
  103OSM    H6F10465   2.732   3.694   9.591 -2.7861 -1.3463  0.6357
  103OSM    H6G10466   2.683   3.529   9.631  1.5361 -2.3957  0.5177
  103OSM    C7F10467   2.866   3.540   9.510 -0.1652 -0.0433 -0.3329
  103OSM    H7F10468   2.899   3.446   9.560 -1.2629  0.8059  2.1300
  103OSM    H7G10469   2.948   3.611   9.487 -2.1051  2.5998  0.5050
  103OSM    C8F10470   2.789   3.501   9.379 -0.1035  0.4666 -0.3329
  103OSM    H8F10471   2.786   3.593   9.316  0.3329  0.5959 -0.1708
  103OSM    H8G10472   2.685   3.470   9.401 -0.4726  1.2476 -0.9171
  103OSM    C9F10473   2.855   3.382   9.317 -0.1273 -0.5410  0.3619
  103OSM    H9F10474   2.951   3.404   9.268  1.1842 -1.5231  2.3635
  103OSM   C10F10475   2.817   3.255   9.306 -0.3240 -0.7414  0.2480
  103OSM   H10F10476   2.884   3.180   9.262 -1.5715 -2.6700  1.5210
  103OSM   C11F10477   2.688   3.204   9.373 -0.1924 -0.4152 -0.1271
  103OSM   H11F10478   2.671   3.269   9.462 -0.1890  0.5960 -0.8455
  103OSM   H11G10479   2.697   3.097   9.401  1.7345  0.2673  2.2816
  103OSM   C12F10480   2.564   3.217   9.291 -0.3877 -0.2713  0.0851
  103OSM   H12F10481   2.569   3.306   9.225 -3.1444 -0.2951 -0.2659
  103OSM   H12G10482   2.486   3.233   9.368 -0.9180  0.0765 -0.5171
  103OSM   C13F10483   2.520   3.097   9.205  0.4726  0.3591 -0.3175
  103OSM   H13F10484   2.603   3.049   9.149  0.2947 -4.1946  2.7802
  103OSM   H13G10485   2.442   3.126   9.131  0.4221 -0.4248 -0.5836
  103OSM   C14F10486   2.477   2.973   9.293  0.3769  0.0022  0.3423
  103OSM   H14F10487   2.398   3.004   9.365 -0.6508  2.1088 -1.5528
  103OSM   H14G10488   2.564   2.931   9.348 -0.5457 -1.4144  0.7781
  103OSM   C15F10489   2.412   2.870   9.201 -0.6138  0.8989 -0.0094
  103OSM   H15F10490   2.471   2.825   9.118  1.0754 -0.5157  1.8388
  103OSM   H15G10491   2.322   2.923   9.162  0.3332  2.2623 -0.4079
  103OSM   C16F10492   2.366   2.748   9.289 -0.7322  0.2853  0.8082
  103OSM   H16F10493   2.262   2.759   9.326 -1.0118  0.6164 -0.0430
  103OSM   H16G10494   2.416   2.743   9.388 -0.0870 -3.2768  0.4486
  103OSM   C17F10495   2.370   2.607   9.231 -0.2667 -0.3736  0.4977
  103OSM   H17F10496   2.326   2.524   9.291 -1.6501  1.0611  1.5374
  103OSM   H17G10497   2.478   2.584   9.219  0.3108  2.5264 -0.8285
  103OSM   C18F10498   2.309   2.596   9.089  0.1148  0.2838 -0.5786
  103OSM   H18F10499   2.200   2.613   9.102  0.2018 -0.0206  0.6847
  103OSM   H18G10500   2.318   2.488   9.062 -0.2375  0.4008 -1.1945
  103OSM   H18H10501   2.353   2.663   9.012 -0.3305  0.5863 -0.5747
  104OSM      N10502   2.671   4.006  10.656  0.4253 -0.9957 -0.0935
  104OSM    C1510503   2.622   3.982  10.798  0.1459 -1.0262  0.0146
  104OSM   H15A10504   2.582   3.884  10.816  2.4505 -1.7933  1.4036
  104OSM   H15B10505   2.547   4.054  10.827  0.7678 -0.1913 -0.3877
  104OSM   H15C10506   2.705   3.995  10.866 -0.6406  0.6256  0.7294
  104OSM    C1410507   2.753   4.134  10.647  0.6219  0.6568  0.0172
  104OSM   H14A10508   2.762   4.156  10.541  0.2294 -1.5205 -0.5251
  104OSM   H14B10509   2.845   4.119  10.701 -0.3353  1.5606  1.9885
  104OSM   H14C10510   2.712   4.221  10.695 -0.3345 -0.0297  0.4642
  104OSM    C1310511   2.751   3.880  10.633 -0.7988 -0.7971  0.0258
  104OSM   H13A10512   2.791   3.879  10.533 -1.6501 -0.5701 -0.3248
  104OSM   H13B10513   2.687   3.794  10.640 -1.5913 -0.1590  0.9078
  104OSM   H13C10514   2.832   3.869  10.704  0.0136  2.1579 -0.2905
  104OSM    C1210515   2.552   4.005  10.558 -0.4223  0.5782 -0.7334
  104OSM   H12A10516   2.508   4.104  10.556  1.3262  1.4051 -0.1924
  104OSM   H12B10517   2.482   3.930  10.593  0.8966 -0.1690  0.4422
  104OSM    C1110518   2.568   3.980  10.405 -0.1410  0.2959 -0.3457
  104OSM   H11A10519   2.464   3.976  10.367  0.0166 -0.0382 -0.7554
  104OSM   H11B10520   2.629   3.887  10.397  0.1560  0.3740  0.7911
  104OSM      P10521   2.597   4.231  10.333 -0.0743 -0.1560  0.3147
  104OSM    O1310522   2.519   4.272  10.453  0.3898 -0.0739 -0.0744
  104OSM    O1410523   2.713   4.318  10.301 -0.0156  0.9463  0.4988
  104OSM    O1110524   2.494   4.219  10.218 -0.2397  0.4289 -0.0456
  104OSM    O1210525   2.643   4.083  10.339 -0.1422  0.1279  0.0796
  104OSM    C1S10526   2.530   4.194  10.083  0.5758  0.2046  0.2802
  104OSM    H1S10527   2.606   4.113  10.073  0.8380  0.1801  2.0621
  104OSM    H1T10528   2.574   4.283  10.034  1.1671 -0.7279 -0.9590
  104OSM     NF10529   2.439   4.144   9.859  0.1303  0.4168  0.6996
  104OSM    HNF10530   2.431   4.222   9.797  1.1844 -1.4894 -2.0285
  104OSM    C2S10531   2.400   4.158  10.002  0.4489 -0.1319 -0.1500
  104OSM    H2S10532   2.363   4.060  10.039 -1.2935  0.0365 -1.2968
  104OSM    C3S10533   2.280   4.255  10.043  0.1322  0.1752 -0.2765
  104OSM    H3S10534   2.309   4.356  10.007  0.6080 -0.5707 -2.1469
  104OSM     O310535   2.244   4.262  10.184  0.1411 -0.5287 -0.4643
  104OSM    HO310536   2.323   4.233  10.230  1.2249 -0.4846 -2.2361
  104OSM    C4S10537   2.155   4.233   9.964 -0.6249  0.0752 -0.3880
  104OSM    H4S10538   2.140   4.293   9.873 -1.0353  0.3037 -0.1712
  104OSM    C5S10539   2.066   4.137   9.980  0.5300 -0.1070 -0.3431
  104OSM    H5S10540   2.088   4.050  10.044  1.2166 -1.7090 -2.6586
  104OSM    C6S10541   1.948   4.132   9.885  0.0993  0.4694 -0.2712
  104OSM    H6S10542   1.938   4.228   9.829  1.4456 -0.4673 -2.2560
  104OSM    H6T10543   1.847   4.112   9.927  0.6198 -0.7425  0.4201
  104OSM    C7S10544   1.969   4.023   9.776 -0.9717 -0.3180  0.4373
  104OSM    H7S10545   1.876   4.009   9.717 -2.4393  0.7959  2.3736
  104OSM    H7T10546   1.989   3.923   9.820  0.6915  0.9682  2.8130
  104OSM    C8S10547   2.080   4.060   9.673 -0.1952  0.0702  0.4140
  104OSM    H8S10548   2.173   4.009   9.706  1.4167  2.2854 -0.4160
  104OSM    H8T10549   2.097   4.170   9.679  1.9899 -0.2995  4.1765
  104OSM    C9S10550   2.042   4.024   9.531  0.3157 -0.1883 -0.1098
  104OSM    H9S10551   1.951   4.079   9.498  0.5218  0.2876  0.1202
  104OSM    H9T10552   2.015   3.916   9.526  1.9273 -0.6517  0.8543
  104OSM   C10S10553   2.151   4.049   9.424  0.0699  0.3506 -0.0484
  104OSM   H10S10554   2.228   3.970   9.437  0.6435  0.2849 -3.0223
  104OSM   H10T10555   2.194   4.148   9.451  0.8605 -0.3796  1.5094
  104OSM   C11S10556   2.103   4.044   9.284 -0.4088 -0.4895  0.0390
  104OSM   H11S10557   2.015   4.112   9.275  0.9351  1.3538  0.3052
  104OSM   H11T10558   2.063   3.943   9.261  0.3865 -0.5712 -1.0682
  104OSM   C12S10559   2.210   4.085   9.179  0.0673  0.0437  0.5565
  104OSM   H12S10560   2.295   4.017   9.199  0.3769 -0.0333 -0.8894
  104OSM   H12T10561   2.244   4.189   9.199  1.7679 -0.4822  0.5117
  104OSM   C13S10562   2.175   4.071   9.032 -0.6618  0.1936 -0.2514
  104OSM   H13S10563   2.080   4.127   9.018 -1.0899 -0.6125 -0.6111
  104OSM   H13T10564   2.153   3.964   9.014 -0.5715 -0.2102  1.7894
  104OSM   C14S10565   2.283   4.126   8.935  0.1736 -0.2799  0.2324
  104OSM   H14S10566   2.372   4.064   8.961 -0.9760 -1.7999  0.6802
  104OSM   H14T10567   2.310   4.233   8.947 -0.6010 -0.0332 -0.1793
  104OSM   C15S10568   2.248   4.101   8.790 -0.0422 -0.8687  0.6008
  104OSM   H15S10569   2.155   4.158   8.768 -0.8583 -2.5898 -0.6126
  104OSM   H15T10570   2.227   3.993   8.778 -2.4625 -0.5702  1.6166
  104OSM   C16S10571   2.358   4.153   8.690 -0.1986 -0.0813 -0.0990
  104OSM   H16S10572   2.453   4.104   8.720 -0.9846 -1.2866  0.4621
  104OSM   H16T10573   2.363   4.263   8.708  1.5674  0.0003 -0.8954
  104OSM   C17S10574   2.321   4.122   8.546 -0.2756  0.4515  0.3121
  104OSM   H17S10575   2.388   4.172   8.472  0.8060 -1.2689  0.0523
  104OSM   H17T10576   2.220   4.164   8.527 -0.6776 -0.0463  1.3167
  104OSM   C18S10577   2.317   3.974   8.518 -0.0455  1.4356 -0.3127
  104OSM   H18S10578   2.308   3.944   8.411  1.5424  1.1675 -0.3855
  104OSM   H18T10579   2.233   3.926   8.573  1.6657  0.8553  1.9510
  104OSM   H18U10580   2.408   3.923   8.556 -0.5975 -0.0523 -0.9162
  104OSM    C1F10581   2.496   4.040   9.816 -0.6094  0.2049  0.3108
  104OSM     OF10582   2.534   3.956   9.899  0.8039 -0.6817 -0.1823
  104OSM    C2F10583   2.523   4.020   9.668 -0.0721  0.2925  0.0690
  104OSM    H2F10584   2.476   3.922   9.645 -0.9699  0.1791  2.1432
  104OSM    H2G10585   2.634   4.020   9.661  0.2047 -1.1531  2.9277
  104OSM    C3F10586   2.464   4.137   9.579 -0.7171  0.2676  0.0131
  104OSM    H3F10587   2.513   4.236   9.590  1.3448 -0.6039 -0.6793
  104OSM    H3G10588   2.356   4.149   9.598 -1.0281 -0.0448 -1.4600
  104OSM    C4F10589   2.478   4.105   9.426 -0.0529 -0.3863  0.1428
  104OSM    H4F10590   2.409   4.171   9.370  0.3039  1.8168  2.1516
  104OSM    H4G10591   2.458   4.000   9.395  1.5385 -1.2619  1.8158
  104OSM    C5F10592   2.615   4.147   9.365  0.2698 -0.0290 -0.5682
  104OSM    H5F10593   2.701   4.099   9.416  0.5552  0.9072 -0.1629
  104OSM    H5G10594   2.624   4.257   9.369  0.6484 -0.0163 -1.5760
  104OSM    C6F10595   2.625   4.111   9.216 -0.1048 -0.3664  0.3195
  104OSM    H6F10596   2.528   4.126   9.164 -0.3049 -0.2020  0.7327
  104OSM    H6G10597   2.654   4.004   9.210  0.7667 -0.0777 -1.1475
  104OSM    C7F10598   2.721   4.203   9.140 -0.6107  0.0843  0.0128
  104OSM    H7F10599   2.820   4.173   9.182 -0.3023 -0.0993 -0.8319
  104OSM    H7G10600   2.707   4.310   9.167 -2.4477  0.3157 -1.6781
  104OSM    C8F10601   2.718   4.187   8.985  0.5932  0.6393  0.0192
  104OSM    H8F10602   2.629   4.236   8.941 -0.4627 -0.8293  0.4537
  104OSM    H8G10603   2.716   4.078   8.962 -0.0563  0.8962 -1.2026
  104OSM    C9F10604   2.837   4.248   8.922 -0.1443  0.4865  0.2416
  104OSM    H9F10605   2.885   4.333   8.972 -0.6867 -1.0353  3.6110
  104OSM   C10F10606   2.901   4.183   8.819 -0.1828  0.1463 -0.1366
  104OSM   H10F10607   2.982   4.237   8.767 -1.5719  0.1602 -2.4491
  104OSM   C11F10608   2.857   4.058   8.745 -0.0852 -0.4085 -0.7465
  104OSM   H11F10609   2.750   4.047   8.772  0.3974 -1.1271  0.9680
  104OSM   H11G10610   2.913   3.972   8.787 -0.1734 -0.9031 -1.6221
  104OSM   C12F10611   2.851   4.070   8.591  0.2700  0.2709 -0.0406
  104OSM   H12F10612   2.954   4.060   8.549  0.7663 -0.1958  1.2199
  104OSM   H12G10613   2.807   4.168   8.561 -1.8471 -1.7769 -4.5787
  104OSM   C13F10614   2.763   3.966   8.522  0.3293  0.1543 -0.5749
  104OSM   H13F10615   2.736   3.983   8.416 -1.8461  0.2956 -0.0505
  104OSM   H13G10616   2.669   3.973   8.581  1.3852  2.5790  0.9635
  104OSM   C14F10617   2.818   3.820   8.527 -0.3262  0.0128  0.1510
  104OSM   H14F10618   2.857   3.795   8.627  0.4019  0.6377  0.0292
  104OSM   H14G10619   2.907   3.831   8.462  1.5056 -2.5341  2.0347
  104OSM   C15F10620   2.727   3.706   8.468  0.1834  0.1668  0.6742
  104OSM   H15F10621   2.629   3.705   8.521 -0.7874 -1.4212 -1.0356
  104OSM   H15G10622   2.791   3.618   8.487  1.8836  0.0598 -4.0659
  104OSM   C16F10623   2.694   3.724   8.317 -0.4030 -0.2049 -0.2407
  104OSM   H16F10624   2.785   3.748   8.257  0.8938  1.3381  2.2093
  104OSM   H16G10625   2.608   3.793   8.313  1.3739  2.0892 -1.3441
  104OSM   C17F10626   2.642   3.590   8.267  0.1180  0.9424  0.4181
  104OSM   H17F10627   2.713   3.507   8.288  1.1983  1.7057 -0.1500
  104OSM   H17G10628   2.637   3.593   8.156  0.5735  3.6811  0.4167
  104OSM   C18F10629   2.502   3.541   8.317 -0.2154 -0.1512  0.4105
  104OSM   H18F10630   2.425   3.619   8.299 -3.5217 -3.1804  0.1794
  104OSM   H18G10631   2.503   3.538   8.428 -2.3738 -0.7941  0.4646
  104OSM   H18H10632   2.470   3.438   8.290  0.8688 -0.8522  1.7029
  105OSM      N10633   6.777   6.014  10.288 -0.3167  0.0897  0.1563
  105OSM    C1510634   6.795   5.922  10.175  0.0334 -0.1861  0.1211
  105OSM   H15A10635   6.899   5.894  10.174 -0.5067 -2.3573 -0.9466
  105OSM   H15B10636   6.771   5.965  10.079 -1.2859  0.5040  0.7294
  105OSM   H15C10637   6.740   5.832  10.200  0.1179 -0.2954 -0.0854
  105OSM    C1410638   6.848   5.954  10.409  0.6768 -0.1468 -0.2576
  105OSM   H14A10639   6.941   5.918  10.368  0.4477  1.6534 -2.4937
  105OSM   H14B10640   6.798   5.867  10.450  0.9215 -0.8597 -1.4317
  105OSM   H14C10641   6.867   6.034  10.479 -2.0272  0.4231 -0.0643
  105OSM    C1310642   6.842   6.143  10.246 -0.5581 -0.2130 -0.6108
  105OSM   H13A10643   6.817   6.211  10.325 -0.4711 -1.0495  0.1480
  105OSM   H13B10644   6.795   6.171  10.153 -1.6354  1.4142  0.3758
  105OSM   H13C10645   6.946   6.127  10.223 -0.5242 -0.5699 -0.2189
  105OSM    C1210646   6.625   6.037  10.311  0.4174  0.6055 -0.2456
  105OSM   H12A10647   6.579   5.942  10.336  0.2741  1.0988  1.5160
  105OSM   H12B10648   6.573   6.080  10.227 -2.0319  0.6550  1.2048
  105OSM    C1110649   6.595   6.129  10.431  0.0494 -0.2173  0.7510
  105OSM   H11A10650   6.647   6.227  10.423 -0.3884 -0.0538 -0.3416
  105OSM   H11B10651   6.643   6.093  10.524  2.2639  3.2882  1.1713
  105OSM      P10652   6.387   6.258  10.533  1.0160 -0.1603  0.0585
  105OSM    O1310653   6.241   6.235  10.510  0.0399 -0.6310 -0.4543
  105OSM    O1410654   6.445   6.265  10.668 -0.0096 -0.6878  0.1913
  105OSM    O1110655   6.413   6.394  10.458  0.5383 -0.8619  0.1813
  105OSM    O1210656   6.452   6.145  10.439  0.0441  0.6861  0.4810
  105OSM    C1S10657   6.435   6.420  10.314 -0.1344 -0.5078 -0.1861
  105OSM    H1S10658   6.404   6.327  10.261  0.2360  0.2971 -1.8798
  105OSM    H1T10659   6.541   6.449  10.295 -0.8694  2.4844 -0.2148
  105OSM     NF10660   6.322   6.530  10.109  0.4078 -0.8171 -0.9767
  105OSM    HNF10661   6.339   6.621  10.071 -1.4480  0.0519  0.1478
  105OSM    C2S10662   6.337   6.537  10.262  0.0390 -0.1090 -0.2949
  105OSM    H2S10663   6.237   6.516  10.306  1.1864  0.4666  2.8103
  105OSM    C3S10664   6.373   6.674  10.317  0.3320  0.6709  0.2666
  105OSM    H3S10665   6.473   6.696  10.273  1.0217 -1.1958  0.7932
  105OSM     O310666   6.391   6.671  10.457  0.3710 -0.2671  0.1325
  105OSM    HO310667   6.388   6.575  10.467 -0.6491 -0.0595  2.5086
  105OSM    C4S10668   6.268   6.777  10.279  0.0500  0.6747  0.5185
  105OSM    H4S10669   6.307   6.847  10.204 -0.1827  0.5286  0.2617
  105OSM    C5S10670   6.142   6.789  10.334 -0.1809  0.0384  0.2146
  105OSM    H5S10671   6.103   6.716  10.407  0.2968 -1.2179 -0.7463
  105OSM    C6S10672   6.050   6.900  10.296  0.9757  0.0551  0.1392
  105OSM    H6S10673   6.030   6.963  10.385  2.9532 -0.6306  1.1234
  105OSM    H6T10674   5.951   6.858  10.267  1.0911  0.0235 -0.2149
  105OSM    C7S10675   6.097   6.990  10.178  0.8779  0.3285 -0.3590
  105OSM    H7S10676   6.111   6.923  10.090  4.8588  0.1490  0.2340
  105OSM    H7T10677   6.196   7.036  10.200  0.9713 -0.3333  0.6498
  105OSM    C8S10678   6.001   7.106  10.136  0.3045  0.0389 -0.6829
  105OSM    H8S10679   5.977   7.164  10.228 -0.0631 -3.3057  1.5082
  105OSM    H8T10680   5.914   7.043  10.109  1.2553 -1.4879 -0.2776
  105OSM    C9S10681   6.062   7.187  10.022 -0.3352  0.4741  0.5507
  105OSM    H9S10682   6.168   7.210  10.044 -0.4845  0.3275  1.4492
  105OSM    H9T10683   6.006   7.283  10.013  0.3532  0.7883 -0.5542
  105OSM   C10S10684   6.058   7.112   9.888 -0.5091 -0.0945  0.1143
  105OSM   H10S10685   5.951   7.113   9.861  0.1697 -0.3944 -2.9859
  105OSM   H10T10686   6.079   7.002   9.887  1.6268  0.2429 -2.0076
  105OSM   C11S10687   6.135   7.177   9.772 -0.5336 -0.3185  0.2978
  105OSM   H11S10688   6.243   7.161   9.788 -0.8404 -1.3691  1.4806
  105OSM   H11T10689   6.130   7.287   9.790  0.1028 -0.7210  3.4162
  105OSM   C12S10690   6.083   7.129   9.644  0.1086  0.4658  0.0159
  105OSM   H12S10691   5.978   7.154   9.618  0.5500  0.5245 -1.9234
  105OSM   H12T10692   6.084   7.018   9.639  1.8325  0.4387  0.4250
  105OSM   C13S10693   6.170   7.160   9.521  0.4658  0.1986  0.2171
  105OSM   H13S10694   6.161   7.071   9.456  0.4796 -2.6509  3.8126
  105OSM   H13T10695   6.276   7.154   9.554  0.2152 -0.4148  0.9504
  105OSM   C14S10696   6.147   7.295   9.454  0.0006 -0.1616 -0.4850
  105OSM   H14S10697   6.147   7.376   9.530 -1.5610 -2.2031  1.8253
  105OSM   H14T10698   6.059   7.294   9.386  0.6791  1.9300 -1.4953
  105OSM   C15S10699   6.267   7.321   9.358  0.7808 -0.4596  0.2232
  105OSM   H15S10700   6.283   7.230   9.296  1.2878  1.8254 -3.3032
  105OSM   H15T10701   6.359   7.331   9.419  0.5218 -2.0644  0.9236
  105OSM   C16S10702   6.254   7.447   9.274 -0.3003  0.5863 -0.4658
  105OSM   H16S10703   6.272   7.544   9.325  1.7945  0.9530 -1.7958
  105OSM   H16T10704   6.148   7.467   9.247 -0.1774  1.4359 -0.3483
  105OSM   C17S10705   6.345   7.446   9.150  0.1663  0.4439 -0.0993
  105OSM   H17S10706   6.346   7.353   9.090  3.8069  0.5107 -0.3269
  105OSM   H17T10707   6.448   7.464   9.186 -0.0679  1.7752 -0.0215
  105OSM   C18S10708   6.314   7.560   9.062 -0.3191 -0.0469  0.4552
  105OSM   H18S10709   6.215   7.551   9.011 -0.2500  2.9882 -0.3889
  105OSM   H18T10710   6.389   7.571   8.981  0.6175  0.9468  1.4356
  105OSM   H18U10711   6.310   7.657   9.117 -1.9197  1.1477 -1.6000
  105OSM    C1F10712   6.300   6.424  10.044  0.0186  0.1453  0.6009
  105OSM     OF10713   6.257   6.317  10.089 -0.2384  0.2558 -0.0375
  105OSM    C2F10714   6.316   6.451   9.898 -0.6173 -0.4823 -0.3972
  105OSM    H2F10715   6.425   6.464   9.886 -0.6338  1.1311  0.8159
  105OSM    H2G10716   6.264   6.546   9.869  0.0384  1.0928  3.0994
  105OSM    C3F10717   6.255   6.336   9.817  0.2922  0.1404  0.3996
  105OSM    H3F10718   6.156   6.305   9.859  1.6655 -2.9118  1.6873
  105OSM    H3G10719   6.308   6.240   9.833  0.5497  0.1470 -0.3706
  105OSM    C4F10720   6.247   6.350   9.666 -0.4110 -0.0979 -0.9052
  105OSM    H4F10721   6.353   6.360   9.635 -0.5483 -1.6839 -1.9928
  105OSM    H4G10722   6.183   6.438   9.643  1.0124  1.0318 -0.6968
  105OSM    C5F10723   6.199   6.228   9.585  0.0084 -0.4018 -0.5131
  105OSM    H5F10724   6.101   6.199   9.628  0.4225 -0.6957  0.2501
  105OSM    H5G10725   6.273   6.146   9.603  0.0246 -0.7748 -2.1369
  105OSM    C6F10726   6.193   6.260   9.432  0.6832  1.0022 -0.6995
  105OSM    H6F10727   6.218   6.172   9.368  1.8676  1.1713 -0.4854
  105OSM    H6G10728   6.264   6.339   9.400  0.5234  0.3056 -2.9805
  105OSM    C7F10729   6.047   6.310   9.413 -0.3812  0.4361  0.3872
  105OSM    H7F10730   6.031   6.413   9.450 -0.0005  1.2741 -1.6212
  105OSM    H7G10731   5.970   6.241   9.452  0.0027 -0.2161  0.0196
  105OSM    C8F10732   6.022   6.336   9.260  0.1500  0.5358 -0.5994
  105OSM    H8F10733   5.915   6.366   9.254 -0.4154 -1.5481 -2.3524
  105OSM    H8G10734   6.036   6.232   9.224  1.4310  0.6460 -0.4571
  105OSM    C9F10735   6.122   6.418   9.185 -0.2165 -0.2145  0.3264
  105OSM    H9F10736   6.228   6.417   9.214 -0.5116 -0.9853  1.4157
  105OSM   C10F10737   6.087   6.510   9.090 -0.4594  0.1090  0.4631
  105OSM   H10F10738   6.160   6.572   9.035 -1.2516  0.7936  0.1587
  105OSM   C11F10739   5.947   6.545   9.045 -0.1908 -0.2121  0.1635
  105OSM   H11F10740   5.955   6.647   9.003  4.8607  1.3196  3.8605
  105OSM   H11G10741   5.881   6.565   9.132  1.0221  1.8464  0.6772
  105OSM   C12F10742   5.875   6.459   8.940 -0.0818 -0.1698  0.0868
  105OSM   H12F10743   5.768   6.491   8.937 -0.4078 -1.1616  0.6800
  105OSM   H12G10744   5.867   6.351   8.962 -2.4732 -0.1596 -0.4444
  105OSM   C13F10745   5.957   6.457   8.814  0.1931 -0.1413 -0.2856
  105OSM   H13F10746   6.058   6.414   8.831 -0.6489 -1.9997  0.3199
  105OSM   H13G10747   5.976   6.556   8.767  0.2824  0.2888  0.6480
  105OSM   C14F10748   5.899   6.365   8.708 -0.6713  0.4916  0.3776
  105OSM   H14F10749   5.798   6.398   8.678 -0.0766  0.1902 -2.1279
  105OSM   H14G10750   5.897   6.262   8.751  1.0561  0.2204 -0.1064
  105OSM   C15F10751   5.995   6.357   8.593 -0.0822 -0.5690 -0.3624
  105OSM   H15F10752   6.096   6.331   8.630  0.4909  2.0885  0.1537
  105OSM   H15G10753   6.010   6.456   8.545 -0.6390 -1.0594 -1.6101
  105OSM   C16F10754   5.954   6.260   8.487  0.6241 -0.1749  0.7617
  105OSM   H16F10755   5.949   6.155   8.524  1.5089 -0.2729  0.6149
  105OSM   H16G10756   6.045   6.275   8.426 -1.9468  0.8887 -3.2232
  105OSM   C17F10757   5.823   6.296   8.401  0.7943 -0.1449  0.8049
  105OSM   H17F10758   5.845   6.388   8.343 -1.2721  1.0974  1.8811
  105OSM   H17G10759   5.744   6.312   8.477 -1.0935 -3.0630 -0.3582
  105OSM   C18F10760   5.786   6.175   8.311 -0.2511  0.5624  0.2079
  105OSM   H18F10761   5.834   6.170   8.211 -3.1748 -2.5845 -1.2506
  105OSM   H18G10762   5.680   6.175   8.277 -0.3172 -0.1683  0.4115
  105OSM   H18H10763   5.806   6.076   8.357 -0.5258  0.5855  0.3825
  106OSM      N10764   5.951   4.695  10.766 -0.3477 -0.1452 -0.8655
  106OSM    C1510765   6.037   4.573  10.794 -0.0903  0.1123  0.1441
  106OSM   H15A10766   6.058   4.566  10.899 -3.4613 -1.4421  0.8676
  106OSM   H15B10767   6.129   4.577  10.738 -0.8213 -0.2868 -1.1300
  106OSM   H15C10768   5.984   4.484  10.760 -1.9116  0.9145  0.7392
  106OSM    C1410769   5.830   4.684  10.856  0.7351 -0.1466  0.1414
  106OSM   H14A10770   5.788   4.585  10.843 -0.8590  0.7789 -2.6393
  106OSM   H14B10771   5.759   4.757  10.822  0.9162 -0.1888 -0.3281
  106OSM   H14C10772   5.857   4.690  10.961  1.0948  1.6365 -0.0260
  106OSM    C1310773   6.011   4.824  10.809  0.2271  0.5871 -0.3764
  106OSM   H13A10774   5.940   4.903  10.789 -1.3226 -0.4926  0.5531
  106OSM   H13B10775   6.091   4.853  10.743  2.3068  1.8435  2.4884
  106OSM   H13C10776   6.044   4.823  10.912 -2.0875 -0.8609  0.4313
  106OSM    C1210777   5.922   4.700  10.618  0.0997  0.6867 -0.5656
  106OSM   H12A10778   6.017   4.712  10.568  1.0436  0.4572  1.1166
  106OSM   H12B10779   5.871   4.791  10.588  1.8596  1.6332 -0.7805
  106OSM    C1110780   5.850   4.585  10.551  1.0450  0.7209  0.4263
  106OSM   H11A10781   5.893   4.487  10.581 -0.0739  0.3415  0.8678
  106OSM   H11B10782   5.866   4.579  10.441 -1.9616 -1.3392 -0.0372
  106OSM      P10783   5.611   4.693  10.523 -0.0912  0.4420  0.0442
  106OSM    O1310784   5.472   4.663  10.563 -0.3988  0.3692  0.1254
  106OSM    O1410785   5.669   4.827  10.549  0.1751  0.0045 -0.7597
  106OSM    O1110786   5.631   4.665  10.369 -0.0399  0.1916 -0.2058
  106OSM    O1210787   5.704   4.586  10.579 -1.0996  0.1514 -0.3819
  106OSM    C1S10788   5.594   4.541  10.310  0.0583 -0.4561  0.5414
  106OSM    H1S10789   5.488   4.518  10.337 -0.4326 -0.4571 -1.2152
  106OSM    H1T10790   5.661   4.458  10.341  1.0833  0.5730  1.1313
  106OSM     NF10791   5.522   4.448  10.085 -0.4884 -0.0905 -0.1404
  106OSM    HNF10792   5.564   4.360  10.063 -2.9021 -1.4947  0.5265
  106OSM    C2S10793   5.597   4.557  10.151  0.2033  0.2750  0.1215
  106OSM    H2S10794   5.541   4.652  10.137 -1.6135 -0.7795 -0.0655
  106OSM    C3S10795   5.743   4.584  10.104 -0.0197  0.4685  0.5445
  106OSM    H3S10796   5.800   4.489  10.117 -2.0872 -1.1628 -1.5475
  106OSM     O310797   5.815   4.679  10.190  0.5225 -0.5786  0.4199
  106OSM    HO310798   5.769   4.694  10.272  0.3511  3.9987 -0.2435
  106OSM    C4S10799   5.742   4.633   9.964  0.1070 -0.1893  0.5312
  106OSM    H4S10800   5.755   4.552   9.890  0.4894 -0.4596  0.8892
  106OSM    C5S10801   5.721   4.760   9.918  0.0781 -0.3302  0.1055
  106OSM    H5S10802   5.713   4.839   9.994  0.8216 -1.3640  1.3102
  106OSM    C6S10803   5.724   4.804   9.774  0.2313  0.3960 -0.5448
  106OSM    H6S10804   5.812   4.870   9.757  1.8460 -2.3450 -4.0145
  106OSM    H6T10805   5.636   4.867   9.750 -1.9153 -1.6241  1.4827
  106OSM    C7S10806   5.753   4.695   9.663 -0.0081  0.1638 -0.9209
  106OSM    H7S10807   5.694   4.602   9.676  2.3828 -1.6891 -2.5387
  106OSM    H7T10808   5.855   4.658   9.688 -0.0271  0.9870  0.5002
  106OSM    C8S10809   5.749   4.742   9.527 -0.7413  0.1050 -0.0589
  106OSM    H8S10810   5.810   4.834   9.514  0.5325 -0.8229 -0.7742
  106OSM    H8T10811   5.649   4.764   9.484 -0.6636  1.3812  0.3755
  106OSM    C9S10812   5.799   4.634   9.423  0.4022 -0.3261  0.2398
  106OSM    H9S10813   5.744   4.539   9.439 -0.7314  0.4556  1.1381
  106OSM    H9T10814   5.902   4.607   9.454  0.0648  0.0027  1.7409
  106OSM   C10S10815   5.784   4.673   9.278  0.1163  0.3006  0.5195
  106OSM   H10S10816   5.820   4.777   9.268 -0.3202  0.4401  0.3559
  106OSM   H10T10817   5.674   4.675   9.262  0.3767  0.2554 -1.5321
  106OSM   C11S10818   5.859   4.572   9.187  1.1832 -0.3636  0.1061
  106OSM   H11S10819   5.831   4.466   9.208  1.6241 -0.5645 -0.3187
  106OSM   H11T10820   5.970   4.580   9.190  1.0461  1.7396  1.0542
  106OSM   C12S10821   5.818   4.606   9.042 -0.0105  0.3140  0.2671
  106OSM   H12S10822   5.850   4.709   9.013 -0.2961  0.3151 -0.0582
  106OSM   H12T10823   5.707   4.598   9.039  0.0609 -0.9383  0.4169
  106OSM   C13S10824   5.883   4.517   8.936  0.4811 -0.0604 -1.1134
  106OSM   H13S10825   5.849   4.414   8.959 -0.4195  0.2858 -0.8688
  106OSM   H13T10826   5.994   4.515   8.925  0.4083 -1.4628 -1.7553
  106OSM   C14S10827   5.821   4.533   8.796 -0.8024 -0.7053  0.0771
  106OSM   H14S10828   5.829   4.636   8.754  1.5423 -0.7547  0.2800
  106OSM   H14T10829   5.714   4.504   8.802 -0.7234 -1.9126 -2.7968
  106OSM   C15S10830   5.886   4.441   8.691  0.2630  0.1579 -0.1260
  106OSM   H15S10831   5.822   4.441   8.600  1.0764 -1.0232 -0.7286
  106OSM   H15T10832   5.887   4.339   8.736 -0.9033  0.2228  0.0687
  106OSM   C16S10833   6.023   4.486   8.655 -1.0127  0.0331  0.5419
  106OSM   H16S10834   6.081   4.466   8.747  0.0691  1.2474  0.1467
  106OSM   H16T10835   6.028   4.593   8.626  1.7010 -0.2608 -0.3298
  106OSM   C17S10836   6.082   4.412   8.533  0.1392  0.2642  0.2106
  106OSM   H17S10837   6.010   4.428   8.451 -0.6568 -3.1270  0.0973
  106OSM   H17T10838   6.079   4.303   8.558 -2.8575  0.2914  0.2819
  106OSM   C18S10839   6.213   4.465   8.478 -1.0671 -0.0262  0.6157
  106OSM   H18S10840   6.295   4.440   8.549 -1.8347  0.6010  1.7567
  106OSM   H18T10841   6.214   4.576   8.482  1.8073  0.0156  1.1201
  106OSM   H18U10842   6.236   4.419   8.379  0.0672  0.8492  0.4629
  106OSM    C1F10843   5.389   4.453  10.093 -0.3218  0.3853  0.0935
  106OSM     OF10844   5.332   4.544  10.143 -0.3271 -0.0441 -0.4882
  106OSM    C2F10845   5.327   4.333  10.034  0.2372 -0.3572 -0.4251
  106OSM    H2F10846   5.220   4.330  10.064 -0.0919  0.8914 -1.3842
  106OSM    H2G10847   5.373   4.237  10.067 -0.9055 -0.2151  1.8181
  106OSM    C3F10848   5.319   4.352   9.879 -0.0735 -0.0173  0.3926
  106OSM    H3F10849   5.411   4.406   9.846 -1.8935  1.8262 -2.1271
  106OSM    H3G10850   5.241   4.426   9.848  0.1440 -0.4057 -1.1798
  106OSM    C4F10851   5.311   4.216   9.809 -0.0339 -1.3589  0.5486
  106OSM    H4F10852   5.215   4.171   9.841 -0.2083 -2.1693 -1.0223
  106OSM    H4G10853   5.401   4.156   9.833 -0.3485 -1.6258  1.0807
  106OSM    C5F10854   5.310   4.247   9.651  0.0927  0.7685 -0.8077
  106OSM    H5F10855   5.407   4.296   9.625  0.7447 -0.7397 -1.3065
  106OSM    H5G10856   5.233   4.322   9.622 -2.8638 -1.7955 -0.1076
  106OSM    C6F10857   5.296   4.121   9.569  0.3436  0.1407 -0.1636
  106OSM    H6F10858   5.210   4.057   9.599  1.5419 -0.9480  1.1130
  106OSM    H6G10859   5.380   4.053   9.596  0.3862  0.3500  0.2285
  106OSM    C7F10860   5.288   4.156   9.414  1.1549  0.1966 -0.3596
  106OSM    H7F10861   5.385   4.134   9.364  1.0192 -3.9858  0.8319
  106OSM    H7G10862   5.276   4.266   9.409 -0.0765  0.3267  3.0349
  106OSM    C8F10863   5.171   4.085   9.346  0.1576  0.3833  0.1531
  106OSM    H8F10864   5.170   4.135   9.246  0.5166  0.3189  0.1132
  106OSM    H8G10865   5.079   4.123   9.395  1.1470  2.5762  0.4683
  106OSM    C9F10866   5.194   3.933   9.341 -0.0196  0.8094  0.0683
  106OSM    H9F10867   5.184   3.873   9.433 -0.8499 -0.1524 -0.6387
  106OSM   C10F10868   5.220   3.855   9.238  0.8914  0.6634  0.1981
  106OSM   H10F10869   5.240   3.747   9.243 -0.6578  0.2550 -1.3724
  106OSM   C11F10870   5.234   3.909   9.099 -0.9276 -0.1050  0.1898
  106OSM   H11F10871   5.335   3.953   9.083 -1.2012  0.4655  0.0160
  106OSM   H11G10872   5.162   3.987   9.068 -1.6021 -1.0464 -0.6868
  106OSM   C12F10873   5.201   3.804   8.984  0.7497 -0.2476 -0.1095
  106OSM   H12F10874   5.265   3.714   8.999 -0.8112 -1.3906 -0.0376
  106OSM   H12G10875   5.231   3.849   8.888 -0.6915  2.7687  0.7563
  106OSM   C13F10876   5.060   3.756   8.983  0.2534  0.5328 -0.0551
  106OSM   H13F10877   4.989   3.835   8.951 -1.2964  0.5567  3.1102
  106OSM   H13G10878   5.035   3.731   9.088  0.6310 -0.8685 -0.2751
  106OSM   C14F10879   5.043   3.634   8.899  0.6643  0.8950  0.3465
  106OSM   H14F10880   5.129   3.569   8.927  0.2517 -0.2943 -0.9831
  106OSM   H14G10881   5.044   3.659   8.791 -0.3912  0.1178  0.1364
  106OSM   C15F10882   4.916   3.550   8.939  0.4329 -0.7221 -0.6041
  106OSM   H15F10883   4.836   3.627   8.930 -0.1439 -1.0377  1.4320
  106OSM   H15G10884   4.925   3.520   9.045 -1.3120 -0.0113 -0.2123
  106OSM   C16F10885   4.896   3.431   8.858  0.1285  0.6683  0.3282
  106OSM   H16F10886   4.978   3.357   8.865 -0.3929  0.1622  1.3101
  106OSM   H16G10887   4.899   3.456   8.750 -0.3105  3.5882  0.9249
  106OSM   C17F10888   4.760   3.360   8.866 -0.2834  0.3797 -0.1491
  106OSM   H17F10889   4.678   3.426   8.830  0.6761  0.3270 -2.6916
  106OSM   H17G10890   4.739   3.351   8.974 -0.0067 -2.2285 -0.2479
  106OSM   C18F10891   4.750   3.219   8.788 -0.8094 -0.6732  0.2968
  106OSM   H18F10892   4.648   3.178   8.801 -0.6379 -1.2203 -0.0212
  106OSM   H18G10893   4.823   3.144   8.826 -1.0048 -0.2552  1.5455
  106OSM   H18H10894   4.779   3.234   8.681 -1.0160  3.2129  0.6378
  107OSM      N10895   1.320   3.264  10.219 -0.0754  0.3700  1.2283
  107OSM    C1510896   1.373   3.207  10.341 -0.3354  0.1707  0.7466
  107OSM   H15A10897   1.413   3.108  10.322 -1.9789 -0.3075 -0.3778
  107OSM   H15B10898   1.299   3.203  10.420 -0.6181  1.6718  0.5819
  107OSM   H15C10899   1.454   3.272  10.371 -1.2142  2.0548 -0.8118
  107OSM    C1410900   1.419   3.245  10.113  0.2918 -0.1195 -0.2792
  107OSM   H14A10901   1.385   3.304  10.029  0.0701  1.9748  1.1938
  107OSM   H14B10902   1.439   3.145  10.077  2.3629  0.8553 -2.0812
  107OSM   H14C10903   1.511   3.291  10.148  0.2218 -1.5641  2.0367
  107OSM    C1310904   1.206   3.182  10.168  0.6152 -0.0357  0.8118
  107OSM   H13A10905   1.218   3.076  10.184  0.5099 -0.1913 -0.1176
  107OSM   H13B10906   1.183   3.206  10.066 -1.0895  3.9185  1.9285
  107OSM   H13C10907   1.108   3.206  10.206  0.2751  0.2052 -0.1934
  107OSM    C1210908   1.283   3.405  10.230  0.2776  0.4984  0.2298
  107OSM   H12A10909   1.204   3.420  10.303 -1.3084 -1.5465 -0.9457
  107OSM   H12B10910   1.251   3.447  10.136  2.0057  0.5697 -0.3579
  107OSM    C1110911   1.398   3.486  10.287  0.1578 -0.6337  0.0857
  107OSM   H11A10912   1.419   3.452  10.391 -1.7564 -3.2179 -0.2665
  107OSM   H11B10913   1.370   3.593  10.290  0.5816 -0.4143 -2.0138
  107OSM      P10914   1.649   3.548  10.251 -0.2477 -0.0941  0.3135
  107OSM    O1310915   1.644   3.556  10.393 -0.8471  0.2933 -0.1455
  107OSM    O1410916   1.760   3.479  10.180 -0.1979  0.6246  0.3271
  107OSM    O1110917   1.642   3.693  10.188  0.0936  0.5445  0.1636
  107OSM    O1210918   1.512   3.487  10.204  0.2628  0.0079 -0.3719
  107OSM    C1S10919   1.675   3.726  10.049  0.3834 -0.1552 -0.3902
  107OSM    H1S10920   1.758   3.665  10.009 -0.4266 -1.6486  0.1373
  107OSM    H1T10921   1.704   3.833  10.048 -1.3708  0.3904  1.3645
  107OSM     NF10922   1.599   3.753   9.813  0.4603 -0.1807  0.1870
  107OSM    HNF10923   1.582   3.846   9.783 -1.5229 -0.6798 -0.3669
  107OSM    C2S10924   1.545   3.722   9.952 -1.0254  0.5515  0.2871
  107OSM    H2S10925   1.498   3.622   9.965 -1.1281  0.8946  3.2052
  107OSM    C3S10926   1.443   3.823   9.992  0.1927 -0.0732 -0.2653
  107OSM    H3S10927   1.481   3.927   9.977 -0.4077  0.1218 -0.4338
  107OSM     O310928   1.415   3.832  10.134 -0.0538 -0.1502 -0.2684
  107OSM    HO310929   1.484   3.780  10.178  0.2365  0.4177 -0.0361
  107OSM    C4S10930   1.321   3.815   9.903  0.2693  0.9588  0.7623
  107OSM    H4S10931   1.332   3.871   9.809 -0.7866 -2.1660 -1.3929
  107OSM    C5S10932   1.200   3.755   9.929  0.6064  0.1722 -0.5668
  107OSM    H5S10933   1.181   3.715  10.030 -0.2211  2.1375  0.0956
  107OSM    C6S10934   1.076   3.752   9.838 -0.2666 -0.1797 -0.3868
  107OSM    H6S10935   0.997   3.801   9.898 -0.3792  0.7677 -1.2929
  107OSM    H6T10936   1.051   3.645   9.820  0.1882 -0.4115  0.3062
  107OSM    C7S10937   1.087   3.834   9.709  0.2835 -0.7311 -0.5593
  107OSM    H7S10938   1.180   3.809   9.653  1.5773  0.3344  1.0186
  107OSM    H7T10939   1.101   3.940   9.739  0.8566 -1.2535  1.1328
  107OSM    C8S10940   0.967   3.845   9.618  0.5371  0.0601  0.5355
  107OSM    H8S10941   0.883   3.890   9.674  0.2120 -1.0317  0.9620
  107OSM    H8T10942   0.937   3.740   9.597  3.3066 -0.8992  0.9195
  107OSM    C9S10943   0.979   3.939   9.498 -0.0459 -0.5012 -0.4208
  107OSM    H9S10944   1.008   4.045   9.516 -0.8334 -0.0990 -1.4548
  107OSM    H9T10945   0.874   3.933   9.463  0.2547 -1.7036 -1.1833
  107OSM   C10S10946   1.058   3.878   9.389 -0.2752 -0.3025 -0.3871
  107OSM   H10S10947   1.002   3.791   9.349 -1.7832  0.3941  0.1609
  107OSM   H10T10948   1.156   3.856   9.437  0.7117  1.6652 -1.4023
  107OSM   C11S10949   1.096   3.973   9.269  0.1741  0.3954  0.2369
  107OSM   H11S10950   1.164   4.043   9.322  1.2800 -0.1857 -0.3615
  107OSM   H11T10951   1.010   4.030   9.228  0.5241  1.7509  1.3210
  107OSM   C12S10952   1.172   3.912   9.155 -0.3590 -0.3078 -0.2279
  107OSM   H12S10953   1.269   3.861   9.172 -1.1624 -1.5672  0.8059
  107OSM   H12T10954   1.199   3.999   9.092  1.4482  1.0131  2.1853
  107OSM   C13S10955   1.086   3.826   9.058 -0.4157 -0.2225 -0.6592
  107OSM   H13S10956   0.981   3.858   9.073  0.9646  3.3762  3.2699
  107OSM   H13T10957   1.084   3.720   9.092  0.8016  0.0015  0.1806
  107OSM   C14S10958   1.138   3.828   8.913  0.3634 -0.0837 -0.3328
  107OSM   H14S10959   1.230   3.766   8.917 -1.2244 -2.5349  0.3871
  107OSM   H14T10960   1.150   3.935   8.886  0.2177 -0.1435 -0.6342
  107OSM   C15S10961   1.040   3.760   8.820  0.6762  0.0047  0.1291
  107OSM   H15S10962   0.940   3.807   8.825  0.6280  0.0128 -0.7608
  107OSM   H15T10963   1.016   3.654   8.843  2.0672 -0.4430 -0.3882
  107OSM   C16S10964   1.084   3.751   8.673 -0.5275 -1.0123 -0.1143
  107OSM   H16S10965   1.140   3.840   8.637  0.1509 -0.3821  2.3070
  107OSM   H16T10966   1.008   3.735   8.594 -0.5930  3.9594 -1.3568
  107OSM   C17S10967   1.197   3.649   8.659 -0.6644 -0.2929  0.2356
  107OSM   H17S10968   1.163   3.560   8.717 -2.2273  0.7018  0.9103
  107OSM   H17T10969   1.294   3.685   8.700 -0.1678  0.1443 -1.2684
  107OSM   C18S10970   1.232   3.620   8.511 -0.8449 -0.0696  0.2385
  107OSM   H18S10971   1.254   3.712   8.453  1.1043 -0.5943  0.0758
  107OSM   H18T10972   1.147   3.566   8.466  1.0439 -1.2268 -2.1345
  107OSM   H18U10973   1.324   3.557   8.511 -0.8743 -0.1158 -0.7196
  107OSM    C1F10974   1.680   3.674   9.750 -0.2411  0.3903  0.4548
  107OSM     OF10975   1.698   3.556   9.786 -0.0613 -0.3274  0.4895
  107OSM    C2F10976   1.750   3.734   9.635 -0.1859  0.8592 -0.6675
  107OSM    H2F10977   1.853   3.761   9.665 -0.6491 -0.3560  2.3791
  107OSM    H2G10978   1.701   3.832   9.613 -0.5096  0.9546  0.4193
  107OSM    C3F10979   1.771   3.646   9.513 -0.5523  0.7687 -0.1008
  107OSM    H3F10980   1.669   3.626   9.474 -0.6595 -0.6022  0.7802
  107OSM    H3G10981   1.825   3.555   9.549 -1.8206 -0.7825 -1.9002
  107OSM    C4F10982   1.865   3.705   9.409 -0.1764 -0.4317 -0.7678
  107OSM    H4F10983   1.971   3.685   9.434  0.0226 -0.8642 -1.9264
  107OSM    H4G10984   1.853   3.815   9.397 -1.8447 -0.7749 -2.6691
  107OSM    C5F10985   1.846   3.654   9.265  0.1381 -0.3550  0.8006
  107OSM    H5F10986   1.739   3.661   9.236  0.4420 -0.4341 -0.3846
  107OSM    H5G10987   1.863   3.545   9.268  0.6123 -0.2624  2.8633
  107OSM    C6F10988   1.931   3.723   9.158 -0.0874 -0.4781  0.3621
  107OSM    H6F10989   2.040   3.715   9.176  0.3494  0.1829 -1.7481
  107OSM    H6G10990   1.906   3.831   9.150 -0.3315 -0.5522  0.1101
  107OSM    C7F10991   1.911   3.645   9.028 -0.3541  0.1736 -0.3281
  107OSM    H7F10992   1.806   3.660   8.995 -0.7697 -1.6746  0.0326
  107OSM    H7G10993   1.929   3.536   9.039  0.7504  0.3439 -0.3255
  107OSM    C8F10994   2.011   3.693   8.916 -0.3517 -0.0351 -0.0400
  107OSM    H8F10995   2.109   3.661   8.956 -0.5307 -0.9874 -0.3452
  107OSM    H8G10996   2.003   3.802   8.896  2.3429 -0.1677 -2.3362
  107OSM    C9F10997   1.980   3.639   8.782 -0.0528 -0.0290  0.0395
  107OSM    H9F10998   1.881   3.661   8.740 -0.8042 -1.3357  1.0090
  107OSM   C10F10999   2.062   3.566   8.702 -0.1211  0.0503  0.0346
  107OSM   H10F11000   2.033   3.563   8.596  1.8078  1.0157 -0.5637
  107OSM   C11F11001   2.204   3.527   8.728  0.5893  0.1812 -0.5402
  107OSM   H11F11002   2.222   3.508   8.836  0.6288 -0.1744 -0.6099
  107OSM   H11G11003   2.263   3.617   8.699  1.0360  0.7354  1.8710
  107OSM   C12F11004   2.250   3.410   8.645  0.1554  0.6668  0.1961
  107OSM   H12F11005   2.262   3.435   8.538  0.4102  0.2256  0.1199
  107OSM   H12G11006   2.182   3.322   8.645  1.5870 -0.4674 -0.1556
  107OSM   C13F11007   2.387   3.355   8.686  0.2347 -1.1646  0.3876
  107OSM   H13F11008   2.373   3.333   8.794 -0.0834 -2.0736  0.1721
  107OSM   H13G11009   2.470   3.422   8.653 -1.5353 -0.2560 -2.5942
  107OSM   C14F11010   2.405   3.219   8.614 -0.5875 -0.5395 -0.7825
  107OSM   H14F11011   2.399   3.239   8.505  0.2028 -0.3680 -0.8070
  107OSM   H14G11012   2.313   3.164   8.640 -1.7144  0.2562 -2.8441
  107OSM   C15F11013   2.531   3.138   8.654  0.3450  0.7815  0.3986
  107OSM   H15F11014   2.532   3.164   8.762 -3.0584  2.5503  0.1705
  107OSM   H15G11015   2.624   3.173   8.604  0.4685  0.0203  0.0926
  107OSM   C16F11016   2.531   2.984   8.638  0.0148  0.1749  0.1664
  107OSM   H16F11017   2.636   2.953   8.621 -0.5449 -1.1434 -1.1772
  107OSM   H16G11018   2.490   2.952   8.540 -2.2427  1.2075  0.7155
  107OSM   C17F11019   2.461   2.901   8.742 -0.2259  0.5767 -0.1002
  107OSM   H17F11020   2.431   2.968   8.826 -0.8713  0.0795  0.0826
  107OSM   H17G11021   2.542   2.846   8.795 -1.1026  0.3725  1.0809
  107OSM   C18F11022   2.339   2.816   8.714  0.1342  0.0328  0.3420
  107OSM   H18F11023   2.249   2.873   8.684 -1.2728 -3.2481 -2.4542
  107OSM   H18G11024   2.313   2.756   8.804  1.3821  0.7437  1.2043
  107OSM   H18H11025   2.368   2.754   8.626 -0.2390  0.5682 -0.1704
  108OSM      N11026   5.021   4.197  11.197  0.4682  0.1591 -0.0384
  108OSM    C1511027   4.902   4.279  11.175  0.5252  0.3086 -0.5383
  108OSM   H15A11028   4.920   4.367  11.235 -1.8185 -0.1928  1.0292
  108OSM   H15B11029   4.814   4.228  11.210  0.8411 -1.9552 -2.7021
  108OSM   H15C11030   4.888   4.308  11.072 -2.1151 -1.7269 -0.8696
  108OSM    C1411031   5.130   4.257  11.111  0.7971  0.0931 -0.2283
  108OSM   H14A11032   5.096   4.242  11.009 -2.7040  0.0703  0.8331
  108OSM   H14B11033   5.221   4.201  11.125 -0.6259 -2.1041  0.6729
  108OSM   H14C11034   5.140   4.363  11.131 -1.1434  0.0024  1.5629
  108OSM    C1311035   5.066   4.209  11.343  0.6478  0.6786  0.1769
  108OSM   H13A11036   5.004   4.143  11.402  0.1771  1.1631  0.2324
  108OSM   H13B11037   5.044   4.310  11.373 -0.7751  0.7235 -0.9126
  108OSM   H13C11038   5.172   4.187  11.346  0.3408 -1.2059 -0.9524
  108OSM    C1211039   5.000   4.055  11.157 -0.0290 -0.0662 -0.2235
  108OSM   H12A11040   4.918   4.024  11.221 -0.1695  2.0189  0.6569
  108OSM   H12B11041   5.090   3.997  11.175  0.2613  0.5162  0.2290
  108OSM    C1111042   4.965   4.016  11.007 -0.3051 -0.1640  0.1956
  108OSM   H11A11043   4.868   4.063  10.977  0.4183  0.7327 -0.8216
  108OSM   H11B11044   4.946   3.907  11.014  0.5671 -0.2002  3.2645
  108OSM      P11045   5.173   3.962  10.846  0.1130  0.5994 -0.0229
  108OSM    O1311046   5.262   4.050  10.769 -0.4521 -0.8997 -0.6943
  108OSM    O1411047   5.229   3.870  10.949  0.1782 -0.0116 -0.4007
  108OSM    O1111048   5.079   3.878  10.744  0.0180 -0.0900  0.2597
  108OSM    O1211049   5.071   4.051  10.911 -0.4288 -0.0814  0.1644
  108OSM    C1S11050   4.994   3.953  10.655 -1.0561 -0.4248  0.3036
  108OSM    H1S11051   5.047   4.049  10.632  1.6213 -1.8081  0.2328
  108OSM    H1T11052   4.902   3.979  10.711 -1.0332  2.1689 -0.7280
  108OSM     NF11053   4.909   3.974  10.424 -0.6765  0.5408 -0.1330
  108OSM    HNF11054   4.815   3.948  10.404 -0.3047 -2.9609  1.8120
  108OSM    C2S11055   4.961   3.879  10.525 -0.8306 -0.8037  0.4475
  108OSM    H2S11056   5.061   3.845  10.490 -0.4804 -0.9229  1.5073
  108OSM    C3S11057   4.874   3.758  10.547  0.0082  0.6325 -0.3888
  108OSM    H3S11058   4.770   3.786  10.577  0.3818  0.1659  1.4379
  108OSM     O311059   4.907   3.663  10.646  0.2518  0.2914 -0.0855
  108OSM    HO311060   4.996   3.688  10.673  0.6767 -0.8628 -0.3639
  108OSM    C4S11061   4.868   3.680  10.422  1.1096 -0.5811 -0.1519
  108OSM    H4S11062   4.765   3.668  10.385  1.1463  2.3888 -1.4381
  108OSM    C5S11063   4.973   3.622  10.358 -0.1665  0.3202 -0.0262
  108OSM    H5S11064   5.075   3.614  10.398  0.6680  1.5052 -1.8032
  108OSM    C6S11065   4.954   3.542  10.231 -0.1399  0.5080  0.2968
  108OSM    H6S11066   4.879   3.461  10.244 -0.2927  0.4879 -0.6803
  108OSM    H6T11067   5.040   3.481  10.198 -2.5574 -1.8813 -2.0664
  108OSM    C7S11068   4.898   3.629  10.115 -0.4276 -1.0186 -0.2357
  108OSM    H7S11069   4.953   3.726  10.115 -1.1340 -0.5968  1.3453
  108OSM    H7T11070   4.795   3.666  10.133  0.8071  3.5037 -1.3047
  108OSM    C8S11071   4.928   3.562   9.982  0.2806  0.0931 -0.1758
  108OSM    H8S11072   4.890   3.458   9.978 -1.0749  0.5738 -0.5455
  108OSM    H8T11073   5.038   3.551   9.975  0.1245 -1.3143 -0.7428
  108OSM    C9S11074   4.871   3.641   9.866 -0.6735  0.7563 -0.0242
  108OSM    H9S11075   4.899   3.747   9.883 -0.2260  0.2320  2.8951
  108OSM    H9T11076   4.760   3.631   9.867 -0.6153 -0.1123 -0.8379
  108OSM   C10S11077   4.907   3.586   9.727  0.1497  0.7138  0.0056
  108OSM   H10S11078   4.850   3.492   9.709 -1.7852  1.6633  0.8585
  108OSM   H10T11079   5.014   3.556   9.721  0.0943  0.8810 -4.0589
  108OSM   C11S11080   4.871   3.683   9.616  1.0267 -0.5725 -0.3783
  108OSM   H11S11081   4.896   3.789   9.638 -3.7183  0.9722 -1.3949
  108OSM   H11T11082   4.761   3.677   9.605  0.9098  0.5306  0.1014
  108OSM   C12S11083   4.934   3.645   9.487 -0.1150 -0.3615  0.3723
  108OSM   H12S11084   4.926   3.535   9.473  0.9667 -0.4601  0.3905
  108OSM   H12T11085   5.044   3.656   9.503 -0.2342  2.4685 -0.1966
  108OSM   C13S11086   4.881   3.729   9.375 -0.4719  0.3836 -1.0848
  108OSM   H13S11087   4.946   3.719   9.286  1.6566 -1.2782  0.5184
  108OSM   H13T11088   4.883   3.833   9.413  2.7722 -0.4851  1.6132
  108OSM   C14S11089   4.733   3.681   9.340 -0.0806  0.6152 -0.1218
  108OSM   H14S11090   4.664   3.714   9.420 -0.0935 -0.3777  0.2826
  108OSM   H14T11091   4.722   3.571   9.341 -0.7124  0.6632 -0.6355
  108OSM   C15S11092   4.679   3.730   9.207  0.2408  0.2932 -0.2646
  108OSM   H15S11093   4.763   3.726   9.134  1.7158  1.3229  1.3059
  108OSM   H15T11094   4.656   3.838   9.208 -0.0307  0.2366  1.2043
  108OSM   C16S11095   4.555   3.652   9.153  0.2656 -0.9863 -0.7053
  108OSM   H16S11096   4.465   3.659   9.217  0.4715 -0.1895 -0.4899
  108OSM   H16T11097   4.591   3.547   9.143  0.5251 -0.8850 -0.8469
  108OSM   C17S11098   4.520   3.690   9.005  0.3286 -0.0940  0.3175
  108OSM   H17S11099   4.609   3.684   8.939  1.0213  0.2957  1.1891
  108OSM   H17T11100   4.479   3.793   9.008 -0.6061 -0.3822 -1.3023
  108OSM   C18S11101   4.409   3.598   8.955 -0.2858  0.4687 -0.0449
  108OSM   H18S11102   4.308   3.631   8.986 -1.1090  3.1015 -4.6193
  108OSM   H18T11103   4.417   3.489   8.975 -0.5199  0.4226 -0.1988
  108OSM   H18U11104   4.409   3.602   8.844 -0.8727 -0.0739 -0.0702
  108OSM    C1F11105   4.981   4.068  10.368 -0.5651  0.1334  0.4277
  108OSM     OF11106   5.101   4.059  10.372 -0.2815 -0.5644  0.8627
  108OSM    C2F11107   4.909   4.180  10.303 -0.0037  0.1588  0.1791
  108OSM    H2F11108   4.931   4.270  10.364  1.0712  0.8917 -1.2365
  108OSM    H2G11109   4.799   4.167  10.296 -0.1742  0.7698  1.4348
  108OSM    C3F11110   4.973   4.198  10.165  0.2722 -0.5634  0.8258
  108OSM    H3F11111   5.083   4.187  10.175  0.3441 -2.0042 -1.1200
  108OSM    H3G11112   4.948   4.298  10.124  0.2955  0.9453  4.1325
  108OSM    C4F11113   4.924   4.089  10.067 -0.0929 -0.6795  0.0108
  108OSM    H4F11114   4.818   4.076  10.098 -0.4301  2.0218  0.2874
  108OSM    H4G11115   4.977   3.994  10.088 -0.5603 -0.8135  0.5808
  108OSM    C5F11116   4.923   4.145   9.923 -0.4300  0.0045  0.4485
  108OSM    H5F11117   5.024   4.186   9.902 -0.4019  0.1320  0.8259
  108OSM    H5G11118   4.848   4.226   9.915 -1.5255 -1.0215 -0.0061
  108OSM    C6F11119   4.914   4.039   9.812 -0.2675  0.4193  0.1470
  108OSM    H6F11120   4.817   3.985   9.808 -0.3342  0.3588  1.8381
  108OSM    H6G11121   4.986   3.956   9.824 -1.6594 -0.6748  1.2043
  108OSM    C7F11122   4.955   4.117   9.680  0.1287 -0.9418  0.2421
  108OSM    H7F11123   4.977   4.036   9.608 -0.6897 -0.9774  0.0230
  108OSM    H7G11124   5.048   4.176   9.698 -0.7946  0.7148 -0.1922
  108OSM    C8F11125   4.862   4.221   9.607 -0.2038 -0.2501 -0.6824
  108OSM    H8F11126   4.907   4.244   9.508  1.5301 -3.1316 -0.6671
  108OSM    H8G11127   4.849   4.314   9.667 -0.0143  0.3872 -1.6197
  108OSM    C9F11128   4.727   4.165   9.602 -0.3409 -0.6991  0.1493
  108OSM    H9F11129   4.671   4.156   9.696 -0.4671  1.1788  0.2930
  108OSM   C10F11130   4.675   4.091   9.495  0.5167  0.5402 -0.0498
  108OSM   H10F11131   4.573   4.050   9.502 -0.0860  1.8693 -0.6686
  108OSM   C11F11132   4.743   4.081   9.358  0.6916  0.1064  0.2074
  108OSM   H11F11133   4.721   3.982   9.312  1.0199 -0.2568  0.8145
  108OSM   H11G11134   4.854   4.088   9.353  0.5615  1.4894 -1.3011
  108OSM   C12F11135   4.696   4.208   9.274  0.0754  0.9061  0.4280
  108OSM   H12F11136   4.721   4.307   9.320  2.5849  0.2903  0.5457
  108OSM   H12G11137   4.586   4.205   9.267  0.0585  1.6255  0.3085
  108OSM   C13F11138   4.760   4.200   9.131 -0.1249 -0.5065 -0.5994
  108OSM   H13F11139   4.869   4.218   9.135 -0.6877  3.3876  1.1666
  108OSM   H13G11140   4.729   4.285   9.067  0.5844 -0.7933 -1.3414
  108OSM   C14F11141   4.735   4.069   9.051 -0.4167  0.1231  0.5060
  108OSM   H14F11142   4.624   4.057   9.052 -0.5737  0.6093 -2.1513
  108OSM   H14G11143   4.796   3.986   9.093  2.0289  2.4819  1.9059
  108OSM   C15F11144   4.773   4.089   8.901 -0.9168 -0.3543 -0.0042
  108OSM   H15F11145   4.883   4.105   8.889 -0.9476 -0.7368 -0.9001
  108OSM   H15G11146   4.725   4.182   8.865 -1.8360  0.4226  2.9961
  108OSM   C16F11147   4.737   3.966   8.816  0.1908 -0.5551  0.1633
  108OSM   H16F11148   4.760   3.878   8.881  0.7346 -0.6542 -0.1653
  108OSM   H16G11149   4.807   3.960   8.731  0.3991 -1.5953  0.3879
  108OSM   C17F11150   4.593   3.977   8.766 -0.2580 -0.2178 -0.2772
  108OSM   H17F11151   4.586   4.070   8.705  0.3039  0.5383  0.7857
  108OSM   H17G11152   4.520   3.996   8.847  0.2709 -1.1814  0.4501
  108OSM   C18F11153   4.545   3.863   8.683 -0.1725  0.2241  0.1601
  108OSM   H18F11154   4.438   3.885   8.663  0.0017 -0.7299 -2.1678
  108OSM   H18G11155   4.559   3.767   8.737 -0.1759 -0.6972 -1.4201
  108OSM   H18H11156   4.597   3.858   8.585 -0.9592  0.4041 -0.2783
  109OSM      N11157   4.259   2.786  10.833 -0.0099  1.1082  0.6935
  109OSM    C1511158   4.121   2.802  10.782  0.0602 -0.5217 -0.3250
  109OSM   H15A11159   4.085   2.900  10.807  2.2047  0.0939  0.6327
  109OSM   H15B11160   4.054   2.735  10.834  0.8610  0.7254  2.5053
  109OSM   H15C11161   4.120   2.809  10.675  0.8582  1.5968 -0.2529
  109OSM    C1411162   4.356   2.862  10.737 -0.1953  0.4415 -0.0510
  109OSM   H14A11163   4.459   2.836  10.756  0.5138  0.1525 -3.6147
  109OSM   H14B11164   4.348   2.967  10.763  0.1220  0.1585  1.2659
  109OSM   H14C11165   4.339   2.849  10.631  1.3468  3.5536 -0.8177
  109OSM    C1311166   4.281   2.842  10.970  0.1006 -0.4554  0.0223
  109OSM   H13A11167   4.245   2.769  11.041  0.3859 -1.1746 -0.5664
  109OSM   H13B11168   4.231   2.938  10.978 -0.6867 -0.7649 -0.9282
  109OSM   H13C11169   4.385   2.851  10.998  0.0270  0.3581  0.0728
  109OSM    C1211170   4.283   2.634  10.835  0.7526 -0.0681  0.0562
  109OSM   H12A11171   4.269   2.614  10.730 -3.1319  3.9588 -0.4824
  109OSM   H12B11172   4.196   2.599  10.888 -2.7499  2.8692 -3.1669
  109OSM    C1111173   4.417   2.572  10.887 -0.2048 -0.5146  0.1697
  109OSM   H11A11174   4.399   2.463  10.902 -0.1310 -0.4850  0.4865
  109OSM   H11B11175   4.437   2.615  10.987 -0.2364 -1.2061  0.4819
  109OSM      P11176   4.609   2.493  10.721  0.6152 -0.0200  0.3882
  109OSM    O1311177   4.740   2.547  10.678 -0.5521  0.2581  0.5970
  109OSM    O1411178   4.608   2.371  10.804  0.0608  0.0575 -0.1027
  109OSM    O1111179   4.529   2.467  10.584  0.7090 -0.1262 -0.4104
  109OSM    O1211180   4.524   2.607  10.796 -0.1308 -0.2342  0.0584
  109OSM    C1S11181   4.452   2.572  10.525 -0.4213 -0.0290  0.7799
  109OSM    H1S11182   4.501   2.671  10.533 -0.5944  0.0864  0.4051
  109OSM    H1T11183   4.349   2.579  10.566 -0.8777  2.7018 -0.6361
  109OSM     NF11184   4.421   2.672  10.291  0.3087  0.0371 -0.4953
  109OSM    HNF11185   4.330   2.679  10.250  0.2321  1.8250 -0.1140
  109OSM    C2S11186   4.441   2.548  10.367 -0.7701  0.1922  0.1752
  109OSM    H2S11187   4.543   2.516  10.338  0.2625  2.6906  0.7523
  109OSM    C3S11188   4.355   2.421  10.327 -0.6499 -0.3436 -0.0181
  109OSM    H3S11189   4.251   2.449  10.355  0.1877  2.4720  0.6500
  109OSM     O311190   4.386   2.307  10.407 -0.3545 -0.2347  0.1402
  109OSM    HO311191   4.450   2.348  10.465 -0.2682 -2.3443  1.6433
  109OSM    C4S11192   4.366   2.402  10.176 -0.4360  0.3767  0.4137
  109OSM    H4S11193   4.299   2.471  10.123  1.6874  0.7492 -1.9889
  109OSM    C5S11194   4.445   2.324  10.104 -0.0079  0.0904 -0.1132
  109OSM    H5S11195   4.509   2.251  10.156  0.0540  1.0550  1.2337
  109OSM    C6S11196   4.444   2.318   9.953 -0.1369 -0.4978  0.0377
  109OSM    H6S11197   4.364   2.249   9.918  1.2508 -2.1161 -0.0728
  109OSM    H6T11198   4.537   2.275   9.910  0.6246  1.7216 -0.6608
  109OSM    C7S11199   4.440   2.443   9.870  0.0988 -0.2354 -0.1943
  109OSM    H7S11200   4.541   2.490   9.863 -0.2259  0.2922 -1.6320
  109OSM    H7T11201   4.379   2.523   9.918  0.2929  0.0244 -0.3726
  109OSM    C8S11202   4.379   2.426   9.736 -0.5435 -0.4565 -0.4206
  109OSM    H8S11203   4.271   2.421   9.763 -0.1423 -0.8685  1.1990
  109OSM    H8T11204   4.416   2.335   9.684 -0.7875 -0.6830 -0.2041
  109OSM    C9S11205   4.413   2.555   9.652 -1.1037  0.2291 -0.3920
  109OSM    H9S11206   4.522   2.560   9.638 -1.2763  0.3219 -1.7726
  109OSM    H9T11207   4.388   2.644   9.714 -1.6107  0.2152 -0.5684
  109OSM   C10S11208   4.341   2.558   9.522  1.2618  0.8089  0.1009
  109OSM   H10S11209   4.338   2.666   9.494  0.0339  0.8360  0.2676
  109OSM   H10T11210   4.236   2.524   9.538  1.7955 -0.3631  1.2008
  109OSM   C11S11211   4.414   2.484   9.402 -0.1873 -0.3289 -0.6864
  109OSM   H11S11212   4.439   2.383   9.441 -0.1660 -0.5806 -1.3451
  109OSM   H11T11213   4.506   2.542   9.378 -0.8399  0.7044 -0.7533
  109OSM   C12S11214   4.333   2.467   9.279  0.2031 -0.1167 -0.1825
  109OSM   H12S11215   4.231   2.434   9.308  0.9496 -2.4859  0.0057
  109OSM   H12T11216   4.374   2.382   9.219 -1.1829 -0.2766 -0.9499
  109OSM   C13S11217   4.332   2.584   9.187 -0.9764 -0.4906  0.7864
  109OSM   H13S11218   4.437   2.620   9.188 -0.6629 -1.3977  1.5773
  109OSM   H13T11219   4.275   2.667   9.234  0.1165  1.0596 -0.5203
  109OSM   C14S11220   4.281   2.559   9.048  0.2280  0.7240  0.3844
  109OSM   H14S11221   4.183   2.507   9.045  0.3138  0.1198  3.9003
  109OSM   H14T11222   4.353   2.501   8.987 -1.3948  0.1841 -1.1229
  109OSM   C15S11223   4.272   2.695   8.968  0.0320  1.2229 -0.1611
  109OSM   H15S11224   4.374   2.736   8.981  0.7448 -0.0910 -1.3617
  109OSM   H15T11225   4.203   2.767   9.017 -0.9439 -1.0853  2.1160
  109OSM   C16S11226   4.256   2.676   8.813 -0.4907  0.0117 -0.2327
  109OSM   H16S11227   4.181   2.594   8.803 -0.1146 -0.4230  0.4056
  109OSM   H16T11228   4.348   2.630   8.770  0.4741  1.2454  0.4463
  109OSM   C17S11229   4.211   2.804   8.735 -0.7197  0.7280  1.3571
  109OSM   H17S11230   4.112   2.843   8.766 -0.1014  4.2352 -0.5655
  109OSM   H17T11231   4.205   2.766   8.630 -0.3553  0.8130  1.3039
  109OSM   C18S11232   4.315   2.925   8.734  0.7382  0.6215  0.2105
  109OSM   H18S11233   4.334   2.956   8.839 -1.0801  0.6052  0.5811
  109OSM   H18T11234   4.278   3.017   8.683  1.7624  1.0400  0.1888
  109OSM   H18U11235   4.403   2.901   8.670 -1.1082 -2.6116 -1.3436
  109OSM    C1F11236   4.508   2.770  10.306 -0.1695 -0.2717  0.1257
  109OSM     OF11237   4.621   2.744  10.345 -0.1827  0.0721 -0.2982
  109OSM    C2F11238   4.462   2.912  10.286  0.1392  1.3842 -0.0192
  109OSM    H2F11239   4.472   2.983  10.370 -0.1993  1.3415  0.0596
  109OSM    H2G11240   4.353   2.907  10.263 -0.0645 -1.4478  1.1087
  109OSM    C3F11241   4.533   2.975  10.167 -0.1207 -0.4889 -0.3366
  109OSM    H3F11242   4.636   3.006  10.195 -0.2584  0.4120 -0.7951
  109OSM    H3G11243   4.488   3.075  10.151  2.0213  0.3911 -1.2583
  109OSM    C4F11244   4.529   2.895  10.031  0.1601 -0.3139 -0.6953
  109OSM    H4F11245   4.426   2.882   9.992  0.7102  1.2025 -2.8902
  109OSM    H4G11246   4.578   2.797  10.046  0.4694  0.2657  3.0411
  109OSM    C5F11247   4.611   2.965   9.922 -0.3097  0.1043 -0.2770
  109OSM    H5F11248   4.721   2.956   9.937 -0.4880 -0.7133  0.6284
  109OSM    H5G11249   4.574   3.070   9.922 -3.0012 -0.7636 -0.8381
  109OSM    C6F11250   4.591   2.897   9.786 -0.5291 -0.4929 -0.6643
  109OSM    H6F11251   4.499   2.941   9.744 -1.7472  0.1148  2.3517
  109OSM    H6G11252   4.586   2.787   9.802  2.5362 -0.8213 -1.2718
  109OSM    C7F11253   4.699   2.927   9.677 -0.1367  1.0505 -0.3116
  109OSM    H7F11254   4.791   2.894   9.730 -0.6441  1.0771  0.6105
  109OSM    H7G11255   4.700   3.035   9.653  0.5109  1.7021  2.3300
  109OSM    C8F11256   4.686   2.839   9.554 -0.3452  0.1856  0.0330
  109OSM    H8F11257   4.698   2.733   9.585 -1.8000 -0.2837 -0.8827
  109OSM    H8G11258   4.775   2.860   9.492 -0.7962  0.6049 -0.4872
  109OSM    C9F11259   4.559   2.873   9.487  1.1278 -0.4475  0.5412
  109OSM    H9F11260   4.473   2.872   9.556 -0.9494 -0.6883 -1.8691
  109OSM   C10F11261   4.530   2.901   9.356 -0.5804  0.6160  0.1907
  109OSM   H10F11262   4.424   2.910   9.327 -1.0165  0.0582  1.4902
  109OSM   C11F11263   4.630   2.885   9.244 -0.6371  0.1327  0.4514
  109OSM   H11F11264   4.569   2.837   9.165 -0.8322 -0.3933  0.9203
  109OSM   H11G11265   4.714   2.822   9.278 -0.4796  1.1388  2.0264
  109OSM   C12F11266   4.675   3.024   9.196 -0.5347 -0.0886  0.8592
  109OSM   H12F11267   4.576   3.073   9.192 -0.6079 -0.0436  2.6195
  109OSM   H12G11268   4.727   3.032   9.098 -2.0089  2.7546  0.2095
  109OSM   C13F11269   4.765   3.112   9.287 -0.7003  0.2380 -0.1073
  109OSM   H13F11270   4.851   3.055   9.328 -0.0399  0.5026 -1.1080
  109OSM   H13G11271   4.699   3.130   9.375 -0.1708  0.7446  0.1972
  109OSM   C14F11272   4.811   3.244   9.227  0.7124  0.7539 -0.7083
  109OSM   H14F11273   4.714   3.298   9.223 -1.0344 -2.2587 -1.7248
  109OSM   H14G11274   4.847   3.237   9.123 -0.8647 -0.6379 -1.2006
  109OSM   C15F11275   4.916   3.314   9.317  0.2989  0.1049 -0.6275
  109OSM   H15F11276   4.889   3.313   9.425 -1.7557 -0.2809 -1.0929
  109OSM   H15G11277   4.917   3.420   9.285 -0.9512  0.4161  0.2782
  109OSM   C16F11278   5.061   3.257   9.305  0.1838 -0.3688  0.0961
  109OSM   H16F11279   5.049   3.162   9.249  3.8309 -0.6026 -0.5210
  109OSM   H16G11280   5.105   3.233   9.404  0.3083 -0.9117 -0.0868
  109OSM   C17F11281   5.146   3.366   9.239 -0.5016  0.4911  0.6295
  109OSM   H17F11282   5.137   3.459   9.300 -0.0771  0.3417  0.9225
  109OSM   H17G11283   5.120   3.376   9.132  1.9462 -3.6439 -0.5742
  109OSM   C18F11284   5.294   3.330   9.250 -0.7854 -0.1943  0.1877
  109OSM   H18F11285   5.367   3.391   9.193 -0.2002 -1.3562 -0.3502
  109OSM   H18G11286   5.314   3.232   9.201 -1.0477  1.1953 -3.0108
  109OSM   H18H11287   5.330   3.322   9.354  2.2183  1.1519 -0.6413
  110OSM      N11288   6.085   1.717  10.489  0.4516  0.0012  0.5632
  110OSM    C1511289   6.235   1.713  10.492 -0.5701  0.2962  0.2822
  110OSM   H15A11290   6.271   1.617  10.457  2.2276  2.1663 -2.3924
  110OSM   H15B11291   6.265   1.737  10.593  0.3897  1.2952 -0.2321
  110OSM   H15C11292   6.277   1.781  10.420  1.4958 -0.9616  0.2379
  110OSM    C1411293   6.036   1.833  10.581 -0.4071 -0.1739 -1.0120
  110OSM   H14A11294   6.056   1.811  10.685 -2.0981  1.2027 -0.3475
  110OSM   H14B11295   5.928   1.841  10.577 -0.5700 -1.7173 -0.4673
  110OSM   H14C11296   6.089   1.925  10.559  0.4742  0.0016  1.5339
  110OSM    C1311297   6.021   1.745  10.359  0.5498 -0.5103  0.0880
  110OSM   H13A11298   6.068   1.831  10.314  1.1282 -1.1571 -0.5689
  110OSM   H13B11299   5.914   1.742  10.369  0.5439 -0.5019  0.0252
  110OSM   H13C11300   6.032   1.660  10.293  0.9662 -1.3975  1.2625
  110OSM    C1211301   6.038   1.583  10.551  1.0316 -0.7901  0.1860
  110OSM   H12A11302   6.048   1.597  10.658 -2.3853  0.1914  0.5035
  110OSM   H12B11303   6.100   1.504  10.513  1.0931 -0.1959 -0.9804
  110OSM    C1111304   5.895   1.545  10.517  0.3250 -0.1981  0.1207
  110OSM   H11A11305   5.865   1.455  10.574 -0.2239 -0.0636  0.0531
  110OSM   H11B11306   5.898   1.527  10.407 -0.2684 -2.1812  0.3942
  110OSM      P11307   5.669   1.685  10.493  0.1350 -0.0677  0.0383
  110OSM    O1311308   5.573   1.745  10.591  0.0702  1.1368 -0.0257
  110OSM    O1411309   5.697   1.766  10.376 -0.4591 -0.5001 -0.6034
  110OSM    O1111310   5.625   1.547  10.444 -0.2620 -0.1754  0.1417
  110OSM    O1211311   5.806   1.649  10.565 -0.0494 -0.2346 -0.0134
  110OSM    C1S11312   5.552   1.513  10.330  0.2625  0.3320 -0.2341
  110OSM    H1S11313   5.509   1.594  10.267 -1.9066 -1.2790 -0.9491
  110OSM    H1T11314   5.453   1.476  10.365  0.5568 -1.4935 -1.2201
  110OSM     NF11315   5.572   1.383  10.117 -0.2198 -0.2682  0.1220
  110OSM    HNF11316   5.526   1.295  10.103  0.2921 -0.6967  1.0066
  110OSM    C2S11317   5.635   1.412  10.245 -0.5176 -0.4609 -0.1313
  110OSM    H2S11318   5.737   1.454  10.232  0.7107 -2.1220  3.0220
  110OSM    C3S11319   5.665   1.283  10.319 -0.2341  0.3014 -0.5088
  110OSM    H3S11320   5.577   1.228  10.359  0.9917  0.1057  2.1028
  110OSM     O311321   5.747   1.305  10.430  0.1300 -0.0363  0.1862
  110OSM    HO311322   5.735   1.399  10.450 -1.2786 -0.4079  1.3248
  110OSM    C4S11323   5.754   1.201  10.233 -0.2245 -0.0603 -0.7914
  110OSM    H4S11324   5.857   1.234  10.215 -0.0521 -1.7821 -3.4705
  110OSM    C5S11325   5.717   1.084  10.168 -0.3022  0.3465  0.0799
  110OSM    H5S11326   5.622   1.038  10.198 -0.1217 -0.0640  0.0374
  110OSM    C6S11327   5.796   0.995  10.072  0.9316  0.2361  0.6886
  110OSM    H6S11328   5.729   0.914  10.035  2.3270 -0.3589 -0.6732
  110OSM    H6T11329   5.889   0.956  10.120  2.4079  2.1514 -0.4601
  110OSM    C7S11330   5.831   1.067   9.942  0.0373  0.2792 -0.1698
  110OSM    H7S11331   5.878   0.998   9.869  2.0957 -0.2012  1.5396
  110OSM    H7T11332   5.909   1.144   9.959  1.0922 -0.3695 -1.7867
  110OSM    C8S11333   5.708   1.130   9.870 -0.6183  0.0457  0.4196
  110OSM    H8S11334   5.734   1.163   9.768 -0.8304 -0.0139  0.3433
  110OSM    H8T11335   5.686   1.215   9.939 -0.4710  0.1783  0.3000
  110OSM    C9S11336   5.594   1.030   9.858  0.5943  0.0058  0.7285
  110OSM    H9S11337   5.519   1.037   9.940  0.5054  1.8017  0.5254
  110OSM    H9T11338   5.629   0.925   9.849 -0.6805 -0.2649 -2.8751
  110OSM   C10S11339   5.521   1.058   9.727 -0.5210 -0.6924 -0.6033
  110OSM   H10S11340   5.518   1.169   9.727 -2.2986 -0.6542  1.9029
  110OSM   H10T11341   5.418   1.019   9.726 -0.3085 -1.4258 -3.9251
  110OSM   C11S11342   5.593   0.991   9.599  0.4123 -0.1884  0.7579
  110OSM   H11S11343   5.572   0.883   9.614 -0.7664  0.0042  0.5266
  110OSM   H11T11344   5.703   0.998   9.583  0.3666 -1.8663 -0.4389
  110OSM   C12S11345   5.531   1.051   9.472  0.3102  0.8028 -0.5718
  110OSM   H12S11346   5.545   1.161   9.477  0.0380  0.7827  1.8382
  110OSM   H12T11347   5.420   1.041   9.465  0.1553  0.1396  1.9697
  110OSM   C13S11348   5.598   1.007   9.345  0.1368 -0.1479 -0.5105
  110OSM   H13S11349   5.603   0.896   9.352  2.3240 -0.0464  0.7029
  110OSM   H13T11350   5.700   1.050   9.332  0.4751 -1.1581 -1.3594
  110OSM   C14S11351   5.511   1.023   9.220  0.5485 -1.1972 -0.1383
  110OSM   H14S11352   5.513   1.129   9.187  0.0811 -0.3983  2.2563
  110OSM   H14T11353   5.404   1.009   9.246 -0.0227 -1.5463 -2.4028
  110OSM   C15S11354   5.562   0.939   9.101 -0.6527 -0.5843  0.0961
  110OSM   H15S11355   5.592   0.841   9.145 -2.9680 -2.1104 -1.4630
  110OSM   H15T11356   5.648   0.993   9.055 -0.7170 -0.0195  0.6237
  110OSM   C16S11357   5.466   0.908   8.985 -0.0610 -0.0748  0.0242
  110OSM   H16S11358   5.401   0.829   9.029  0.3553 -1.0474 -1.0476
  110OSM   H16T11359   5.516   0.847   8.906  1.1575 -1.4936  1.8029
  110OSM   C17S11360   5.386   1.026   8.940  0.8588  0.6202  0.6839
  110OSM   H17S11361   5.443   1.112   8.900 -2.0331  2.3072 -0.1425
  110OSM   H17T11362   5.324   1.054   9.028  1.4758  0.2827  1.2336
  110OSM   C18S11363   5.284   0.998   8.825 -0.3667  0.0331 -0.2607
  110OSM   H18S11364   5.335   0.957   8.735  1.3463 -1.2494  1.2052
  110OSM   H18T11365   5.227   1.091   8.804  0.1402  0.4867  0.3396
  110OSM   H18U11366   5.216   0.912   8.841 -0.0786 -0.2607 -0.6029
  110OSM    C1F11367   5.550   1.490  10.037 -0.3941  0.3315 -0.3768
  110OSM     OF11368   5.634   1.580  10.032 -0.2737 -0.3507  0.0021
  110OSM    C2F11369   5.430   1.494   9.949  0.1722  0.0845  0.0522
  110OSM    H2F11370   5.347   1.533  10.013  1.0404  0.4980  0.9562
  110OSM    H2G11371   5.418   1.395   9.901  1.5575  0.3268 -0.8343
  110OSM    C3F11372   5.453   1.600   9.842  0.0091 -0.5974  0.5580
  110OSM    H3F11373   5.556   1.594   9.802  0.3915 -0.1070  1.4512
  110OSM    H3G11374   5.446   1.698   9.894  2.3468  0.3073 -0.6952
  110OSM    C4F11375   5.354   1.589   9.725  0.1177  0.1260  0.3637
  110OSM    H4F11376   5.258   1.644   9.738 -0.1691 -0.5752  1.2879
  110OSM    H4G11377   5.328   1.483   9.705  0.1440  0.8739 -5.2971
  110OSM    C5F11378   5.419   1.625   9.594 -0.1670 -0.2426  0.1392
  110OSM    H5F11379   5.512   1.566   9.577  0.5186  1.3290 -1.9701
  110OSM    H5G11380   5.465   1.724   9.613  2.8853 -1.3631 -0.8083
  110OSM    C6F11381   5.322   1.630   9.477  0.0981 -0.5343  0.5899
  110OSM    H6F11382   5.244   1.707   9.493 -0.2890 -0.8310  0.1461
  110OSM    H6G11383   5.271   1.531   9.483 -0.0631 -0.4514  0.5844
  110OSM    C7F11384   5.384   1.635   9.334  0.1729  0.0458 -0.5730
  110OSM    H7F11385   5.475   1.572   9.323  0.0761 -0.2712  0.3963
  110OSM    H7G11386   5.420   1.739   9.319 -0.4271 -0.0294 -3.0865
  110OSM    C8F11387   5.276   1.609   9.223 -0.3667 -0.2155  0.2816
  110OSM    H8F11388   5.326   1.653   9.134  1.0001 -0.7896  0.7325
  110OSM    H8G11389   5.183   1.665   9.243 -0.2302  0.8113 -1.7082
  110OSM    C9F11390   5.258   1.465   9.197  0.3208  0.2273 -0.6513
  110OSM    H9F11391   5.203   1.405   9.271 -0.0486  1.5498  0.1665
  110OSM   C10F11392   5.325   1.394   9.106 -0.7337  0.6562  0.8474
  110OSM   H10F11393   5.306   1.285   9.099 -0.5098  0.7127 -0.8455
  110OSM   C11F11394   5.411   1.445   8.997 -0.0861 -0.3882 -0.3609
  110OSM   H11F11395   5.509   1.393   8.993  0.1627 -0.0647  0.9870
  110OSM   H11G11396   5.459   1.545   9.001  0.4321 -0.6743  0.9990
  110OSM   C12F11397   5.341   1.421   8.857  0.3197  0.3365  0.2404
  110OSM   H12F11398   5.335   1.314   8.826  1.4206  0.9196 -2.3111
  110OSM   H12G11399   5.413   1.459   8.781  0.5409 -0.1269  0.2141
  110OSM   C13F11400   5.206   1.494   8.830  0.8643 -0.1417 -0.3300
  110OSM   H13F11401   5.232   1.601   8.840 -0.4483  0.2710 -1.1514
  110OSM   H13G11402   5.123   1.477   8.901 -0.8600  0.8007 -2.0539
  110OSM   C14F11403   5.162   1.448   8.687 -0.0936  0.3491  0.4696
  110OSM   H14F11404   5.123   1.344   8.679 -0.3759  0.5426 -0.8715
  110OSM   H14G11405   5.255   1.436   8.628  0.2070 -2.8927  1.4330
  110OSM   C15F11406   5.061   1.542   8.612 -0.0490  0.4587 -0.3158
  110OSM   H15F11407   4.965   1.554   8.666 -0.8617 -0.4059 -1.5355
  110OSM   H15G11408   5.038   1.479   8.524 -1.6094 -0.6092  0.7983
  110OSM   C16F11409   5.107   1.680   8.572  0.0216 -0.1920 -0.1321
  110OSM   H16F11410   5.154   1.735   8.656 -1.2228  1.0394 -0.2142
  110OSM   H16G11411   5.021   1.738   8.533 -0.2154 -0.6747 -0.3443
  110OSM   C17F11412   5.212   1.685   8.463 -0.3856 -0.8795  0.3161
  110OSM   H17F11413   5.181   1.617   8.380  1.0937 -0.6419 -0.4725
  110OSM   H17G11414   5.301   1.639   8.511  1.1977  2.1123  0.4665
  110OSM   C18F11415   5.248   1.826   8.417  0.9116 -0.1535  0.5673
  110OSM   H18F11416   5.294   1.889   8.496  0.8737  0.2545  0.2694
  110OSM   H18G11417   5.154   1.877   8.387 -0.0300 -2.0824  0.0816
  110OSM   H18H11418   5.316   1.814   8.330  0.2792 -0.7915  0.1573
  111OSM      N11419   5.359   5.407  10.425  0.1604  0.1547  0.3767
  111OSM    C1511420   5.222   5.407  10.483 -0.4693  0.1870  0.1785
  111OSM   H15A11421   5.200   5.503  10.526  0.6012  0.8811 -0.7447
  111OSM   H15B11422   5.199   5.333  10.557 -0.8143 -0.0699 -0.1833
  111OSM   H15C11423   5.149   5.392  10.405  0.4974 -1.5010 -0.4616
  111OSM    C1411424   5.398   5.270  10.391  1.0790  0.6403 -0.2038
  111OSM   H14A11425   5.356   5.199  10.460  0.4585  1.7190  0.5563
  111OSM   H14B11426   5.505   5.262  10.377  0.9922 -1.0659 -0.1721
  111OSM   H14C11427   5.348   5.243  10.299 -2.3825  1.7074  1.1949
  111OSM    C1311428   5.355   5.485  10.290  0.6113  0.1600 -0.4278
  111OSM   H13A11429   5.342   5.591  10.309  0.4673 -0.0034  0.4097
  111OSM   H13B11430   5.279   5.443  10.226  0.4853 -2.3096  1.2161
  111OSM   H13C11431   5.448   5.481  10.235  0.7600  1.5954 -0.3300
  111OSM    C1211432   5.457   5.460  10.529  0.2064 -0.0297 -0.5123
  111OSM   H12A11433   5.454   5.388  10.610 -2.5133  0.0661 -0.4387
  111OSM   H12B11434   5.413   5.547  10.575  0.6303  0.4462 -0.9974
  111OSM    C1111435   5.603   5.484  10.485 -0.5623  0.2555 -0.2891
  111OSM   H11A11436   5.656   5.545  10.561 -1.9455  0.8847  0.2129
  111OSM   H11B11437   5.618   5.535  10.388  1.2855  1.3533  0.5315
  111OSM      P11438   5.817   5.334  10.457  0.2079 -0.5234 -0.2188
  111OSM    O1311439   5.898   5.402  10.561  0.0807  0.3035 -0.2085
  111OSM    O1411440   5.861   5.195  10.436  0.3014  0.2504 -0.1993
  111OSM    O1111441   5.843   5.411  10.320  0.3490 -0.0118 -0.4308
  111OSM    O1211442   5.664   5.355  10.486 -0.1406  0.3924 -0.5409
  111OSM    C1S11443   5.784   5.362  10.199 -0.7962  0.6313  0.9250
  111OSM    H1S11444   5.677   5.390  10.210 -0.9380  0.0908  0.9261
  111OSM    H1T11445   5.811   5.254  10.197 -2.2985  0.1480  3.2797
  111OSM     NF11446   5.766   5.400   9.965  0.5757  0.4141  0.3754
  111OSM    HNF11447   5.817   5.348   9.897 -0.3391 -0.7301  0.5210
  111OSM    C2S11448   5.842   5.441  10.081  0.0805  0.5413 -0.1288
  111OSM    H2S11449   5.815   5.547  10.101 -0.6338  0.3905 -0.2825
  111OSM    C3S11450   5.996   5.427  10.073  0.3458 -0.4630  0.1181
  111OSM    H3S11451   6.031   5.321  10.065  0.9226 -0.4129  1.6774
  111OSM     O311452   6.065   5.493  10.179 -0.0991 -0.3377  0.1490
  111OSM    HO311453   6.000   5.505  10.248  0.1795  2.0864  0.0703
  111OSM    C4S11454   6.041   5.504   9.949  0.3545 -0.2735 -0.2293
  111OSM    H4S11455   6.011   5.609   9.950  0.2245 -0.3132  0.8781
  111OSM    C5S11456   6.096   5.442   9.841 -0.1720  0.1274  0.8058
  111OSM    H5S11457   6.106   5.332   9.840  0.2436  0.1192 -1.7226
  111OSM    C6S11458   6.128   5.517   9.714 -0.4689  0.1415  0.8316
  111OSM    H6S11459   6.073   5.470   9.629  0.2262  0.7885  0.0171
  111OSM    H6T11460   6.236   5.508   9.692 -0.5548 -1.5715  0.9512
  111OSM    C7S11461   6.091   5.666   9.703 -0.0942 -0.0237  0.2445
  111OSM    H7S11462   6.150   5.699   9.791  0.6205  1.4042 -0.7270
  111OSM    H7T11463   5.984   5.696   9.706  0.5560  2.4625  0.8795
  111OSM    C8S11464   6.167   5.749   9.596 -0.1273 -1.2280 -0.5035
  111OSM    H8S11465   6.251   5.688   9.556 -0.8614 -1.0429 -2.4774
  111OSM    H8T11466   6.211   5.835   9.650 -0.9743 -0.6228 -0.7686
  111OSM    C9S11467   6.077   5.793   9.478  0.2002 -0.5401 -0.0890
  111OSM    H9S11468   6.001   5.859   9.525 -1.7696 -1.9688 -1.0907
  111OSM    H9T11469   6.029   5.701   9.439 -1.0215  0.3237 -0.7093
  111OSM   C10S11470   6.152   5.877   9.376 -0.7571  0.4561  0.1351
  111OSM   H10S11471   6.203   5.954   9.438 -0.6176 -0.5994  1.3841
  111OSM   H10T11472   6.080   5.924   9.305  1.1060  1.8770 -0.9261
  111OSM   C11S11473   6.263   5.795   9.302 -0.1583  0.3117 -0.2355
  111OSM   H11S11474   6.343   5.765   9.373 -1.6789  0.8306  1.7744
  111OSM   H11T11475   6.326   5.843   9.224  2.8666 -1.1753  1.1181
  111OSM   C12S11476   6.222   5.672   9.226  0.3941  0.0191  0.4177
  111OSM   H12S11477   6.180   5.594   9.292 -2.1676  1.7485  1.0099
  111OSM   H12T11478   6.318   5.630   9.190  0.1492 -1.7382  1.7021
  111OSM   C13S11479   6.113   5.689   9.113 -0.4200  0.0685  0.0153
  111OSM   H13S11480   6.098   5.795   9.081 -0.7362 -0.0663 -0.2868
  111OSM   H13T11481   6.014   5.660   9.153 -1.2165  1.3673 -0.9388
  111OSM   C14S11482   6.140   5.611   8.980 -0.4330 -0.1627 -0.2648
  111OSM   H14S11483   6.048   5.628   8.919  0.5533  1.5553 -1.3349
  111OSM   H14T11484   6.154   5.502   8.998 -0.2416  0.0879  1.1773
  111OSM   C15S11485   6.256   5.664   8.900  0.5724  0.0434 -0.2083
  111OSM   H15S11486   6.357   5.647   8.943  0.3108  2.2852  1.4330
  111OSM   H15T11487   6.245   5.774   8.892  0.7063  0.2244  1.6337
  111OSM   C16S11488   6.261   5.625   8.749  0.1891  0.7682 -0.3538
  111OSM   H16S11489   6.335   5.694   8.703  2.1441 -1.2737 -0.4342
  111OSM   H16T11490   6.157   5.651   8.721 -0.2308  0.7237  1.0512
  111OSM   C17S11491   6.295   5.477   8.730 -0.4474  0.3986 -0.2337
  111OSM   H17S11492   6.249   5.432   8.820 -1.7602 -0.4169 -1.2680
  111OSM   H17T11493   6.405   5.466   8.741 -0.2649 -0.4740 -2.4005
  111OSM   C18S11494   6.233   5.414   8.610  0.2254 -0.2559 -0.3780
  111OSM   H18S11495   6.125   5.438   8.610  0.0983 -0.8231  0.3210
  111OSM   H18T11496   6.244   5.305   8.591 -0.7914 -0.3405 -0.4935
  111OSM   H18U11497   6.272   5.482   8.531  1.2331 -1.1745 -0.6934
  111OSM    C1F11498   5.635   5.419   9.952  0.0090 -0.2370 -0.4008
  111OSM     OF11499   5.568   5.492  10.024  0.4145  0.5908 -0.2355
  111OSM    C2F11500   5.576   5.342   9.839 -0.2853  0.0901  0.5676
  111OSM    H2F11501   5.542   5.240   9.868 -1.0887 -0.2755 -1.4323
  111OSM    H2G11502   5.653   5.343   9.759 -3.1840  1.5202 -2.4551
  111OSM    C3F11503   5.452   5.406   9.770 -0.3243  0.0768  0.2080
  111OSM    H3F11504   5.473   5.514   9.754 -0.0571 -0.0447 -0.2884
  111OSM    H3G11505   5.373   5.399   9.847  0.2213 -1.7778  0.6621
  111OSM    C4F11506   5.389   5.334   9.651 -0.7305 -0.1312  0.0446
  111OSM    H4F11507   5.480   5.340   9.587 -0.3279  0.8952  0.6777
  111OSM    H4G11508   5.306   5.395   9.611 -0.9830  3.5458  5.1789
  111OSM    C5F11509   5.355   5.185   9.676  0.4671  0.0603 -0.2422
  111OSM    H5F11510   5.259   5.187   9.732  1.0885 -4.7789  1.4907
  111OSM    H5G11511   5.423   5.128   9.743  1.0731 -0.6343 -1.4110
  111OSM    C6F11512   5.334   5.100   9.544 -0.3473 -0.3221  0.2260
  111OSM    H6F11513   5.284   5.170   9.475  0.3393  0.2623  0.3079
  111OSM    H6G11514   5.272   5.010   9.561 -2.2602  0.7765 -0.7002
  111OSM    C7F11515   5.467   5.052   9.472  0.0049 -0.1831  0.3157
  111OSM    H7F11516   5.526   4.986   9.539  1.0840  0.9422  0.5167
  111OSM    H7G11517   5.526   5.142   9.447 -1.9742  1.1457  0.1517
  111OSM    C8F11518   5.436   4.977   9.343 -0.2770  0.1844  0.1653
  111OSM    H8F11519   5.349   5.021   9.289  1.2263  0.5599 -2.1095
  111OSM    H8G11520   5.388   4.882   9.374  0.7322  0.2700  2.1675
  111OSM    C9F11521   5.552   4.943   9.262  0.5287  0.2536 -0.3180
  111OSM    H9F11522   5.638   4.916   9.325  0.0522 -1.2615 -0.2672
  111OSM   C10F11523   5.559   4.923   9.127  0.1651  0.1527  0.0594
  111OSM   H10F11524   5.655   4.888   9.087  0.4032 -0.5240  1.1933
  111OSM   C11F11525   5.460   4.959   9.024 -0.2652 -0.1072  0.4762
  111OSM   H11F11526   5.433   5.065   9.046  1.8094  0.8956 -1.3936
  111OSM   H11G11527   5.363   4.908   9.043 -1.6181  2.4248  0.8899
  111OSM   C12F11528   5.509   4.964   8.880  0.4074  0.2330  0.0435
  111OSM   H12F11529   5.610   5.012   8.874  0.8206 -0.6434 -0.1692
  111OSM   H12G11530   5.441   5.021   8.813  1.6962  0.3340 -1.2276
  111OSM   C13F11531   5.522   4.816   8.823 -0.1708 -0.4767 -0.3102
  111OSM   H13F11532   5.441   4.748   8.858 -0.3335 -0.1041  0.0550
  111OSM   H13G11533   5.615   4.772   8.864 -1.1932 -0.4275  2.2999
  111OSM   C14F11534   5.536   4.815   8.671  0.4121 -0.6331  0.1975
  111OSM   H14F11535   5.639   4.843   8.640  0.5093 -0.8721  0.2985
  111OSM   H14G11536   5.466   4.895   8.639 -2.4561 -2.4552  1.5377
  111OSM   C15F11537   5.485   4.687   8.605  0.0505  0.3672 -0.0938
  111OSM   H15F11538   5.389   4.661   8.655  0.4953 -0.0176  0.5784
  111OSM   H15G11539   5.559   4.609   8.631 -0.6044 -0.7065 -1.3308
  111OSM   C16F11540   5.477   4.703   8.450  0.5987 -0.4414  0.4435
  111OSM   H16F11541   5.387   4.763   8.425 -0.6759 -2.0808  0.9365
  111OSM   H16G11542   5.457   4.603   8.408  0.6712 -0.2117 -0.1495
  111OSM   C17F11543   5.602   4.740   8.375  0.7179 -0.3706  0.0530
  111OSM   H17F11544   5.633   4.845   8.395 -1.9541  0.7194 -1.1469
  111OSM   H17G11545   5.595   4.733   8.264  0.0723 -2.7935  0.2072
  111OSM   C18F11546   5.723   4.658   8.405  0.0949  0.0009 -0.0274
  111OSM   H18F11547   5.699   4.549   8.402 -1.7455  0.3687  0.3407
  111OSM   H18G11548   5.781   4.686   8.496 -1.7913 -0.0854  1.2720
  111OSM   H18H11549   5.797   4.676   8.324  0.5688 -3.3882 -0.4987
  112OSM      N11550   4.514   3.744  11.152  1.0485 -0.6161  0.2693
  112OSM    C1511551   4.467   3.794  11.288  0.0598  0.3809  0.3082
  112OSM   H15A11552   4.550   3.839  11.341 -0.0692  0.2629  0.6064
  112OSM   H15B11553   4.440   3.713  11.353  0.3578  0.7430  0.8868
  112OSM   H15C11554   4.381   3.859  11.285 -2.1518 -1.9537  4.5827
  112OSM    C1411555   4.588   3.620  11.174 -0.9004  0.9089  0.2041
  112OSM   H14A11556   4.633   3.580  11.085 -3.5144 -0.3491 -0.6558
  112OSM   H14B11557   4.531   3.535  11.209  0.8696 -1.1902 -1.6626
  112OSM   H14C11558   4.667   3.636  11.246  0.6721 -2.8981 -0.4537
  112OSM    C1311559   4.391   3.697  11.082 -0.3825 -0.2280  0.5433
  112OSM   H13A11560   4.335   3.784  11.052 -0.4894 -0.9707 -1.5419
  112OSM   H13B11561   4.335   3.639  11.153 -0.2912  1.3551  1.9992
  112OSM   H13C11562   4.404   3.637  10.994 -0.9592 -2.0290  1.6373
  112OSM    C1211563   4.586   3.852  11.076  0.0671  0.0625  0.3640
  112OSM   H12A11564   4.658   3.893  11.146  0.4911  0.2953 -0.1994
  112OSM   H12B11565   4.518   3.934  11.063 -0.1817  0.2688  2.5008
  112OSM    C1111566   4.643   3.813  10.928 -0.8706 -0.1493 -0.4010
  112OSM   H11A11567   4.714   3.732  10.956  1.1083  1.8924  0.7577
  112OSM   H11B11568   4.713   3.887  10.884 -0.7378  0.1310  0.2779
  112OSM      P11569   4.453   3.906  10.789  0.0449  0.6173  0.0459
  112OSM    O1311570   4.312   3.879  10.824  0.1666 -0.6749  0.0984
  112OSM    O1411571   4.519   4.031  10.834 -0.3935  0.0401  0.7102
  112OSM    O1111572   4.455   3.904  10.626  0.0865  0.2370 -0.1366
  112OSM    O1211573   4.543   3.784  10.830 -0.3130 -0.0829 -0.0369
  112OSM    C1S11574   4.416   3.779  10.556  0.8404  0.0470 -0.4105
  112OSM    H1S11575   4.323   3.746  10.606  1.9284 -0.8138  1.1421
  112OSM    H1T11576   4.504   3.711  10.557 -0.6722 -2.0157 -1.1826
  112OSM     NF11577   4.313   3.711  10.344 -0.6240  0.5381  0.1640
  112OSM    HNF11578   4.355   3.634  10.295 -1.6751  0.5550 -0.8124
  112OSM    C2S11579   4.393   3.805  10.405 -0.0385  0.0315 -0.0486
  112OSM    H2S11580   4.335   3.899  10.406  0.9365  0.7275  2.9722
  112OSM    C3S11581   4.531   3.830  10.349 -0.3394  0.1682 -0.4620
  112OSM    H3S11582   4.575   3.730  10.330 -1.8907 -0.4926 -0.7490
  112OSM     O311583   4.623   3.914  10.426  1.0659  0.1342 -0.0178
  112OSM    HO311584   4.580   3.926  10.511  0.2389 -2.5976  0.0376
  112OSM    C4S11585   4.520   3.893  10.215  0.0291 -0.1078 -0.6032
  112OSM    H4S11586   4.471   3.991  10.207 -3.1881 -1.5108  0.3066
  112OSM    C5S11587   4.557   3.838  10.095  0.2911 -0.8472  0.1628
  112OSM    H5S11588   4.606   3.740  10.095 -1.2272 -1.6430  0.3038
  112OSM    C6S11589   4.548   3.904   9.954 -0.4697 -0.4282  0.6512
  112OSM    H6S11590   4.648   3.933   9.915 -0.3959  0.2775  1.3456
  112OSM    H6T11591   4.493   4.001   9.957  0.3591  0.2181 -1.9514
  112OSM    C7S11592   4.456   3.827   9.852 -0.1655  0.7969 -0.2761
  112OSM    H7S11593   4.358   3.833   9.904 -1.0859 -0.3626 -1.7997
  112OSM    H7T11594   4.493   3.722   9.850  2.4062  1.6583 -2.4222
  112OSM    C8S11595   4.449   3.891   9.721  0.2705  0.1217 -0.7726
  112OSM    H8S11596   4.549   3.880   9.674  0.6640 -1.4590  0.3419
  112OSM    H8T11597   4.435   4.000   9.735  1.6948 -0.0041  2.7454
  112OSM    C9S11598   4.349   3.815   9.631 -0.3573 -1.2471 -0.2932
  112OSM    H9S11599   4.245   3.836   9.664 -1.5224 -4.9575 -1.0979
  112OSM    H9T11600   4.376   3.709   9.651  1.3936 -0.5180  1.6057
  112OSM   C10S11601   4.364   3.859   9.483  0.4919 -0.1963  0.2429
  112OSM   H10S11602   4.304   3.786   9.425  1.2476  2.5139 -4.4765
  112OSM   H10T11603   4.467   3.860   9.440  0.0066  0.1798 -0.9361
  112OSM   C11S11604   4.300   3.997   9.454 -0.1841 -0.0113 -0.1402
  112OSM   H11S11605   4.353   4.072   9.516 -0.6778 -0.5722  0.9783
  112OSM   H11T11606   4.194   3.989   9.488  0.2446  1.9732  1.9222
  112OSM   C12S11607   4.314   4.036   9.303 -0.4897  0.0714  0.1642
  112OSM   H12S11608   4.422   4.052   9.282 -0.1642  0.5986  2.1076
  112OSM   H12T11609   4.275   4.139   9.290  0.2309  0.1853 -1.3739
  112OSM   C13S11610   4.244   3.940   9.207  0.9414  0.3224  0.2832
  112OSM   H13S11611   4.136   3.926   9.231  0.0579  3.1966 -1.5068
  112OSM   H13T11612   4.306   3.848   9.203  1.1891  0.4878  0.2690
  112OSM   C14S11613   4.231   4.008   9.073 -0.9881 -0.0687 -0.0677
  112OSM   H14S11614   4.329   4.029   9.026  0.4483  0.6236  2.9834
  112OSM   H14T11615   4.192   4.110   9.092  0.9761  0.8469 -0.7269
  112OSM   C15S11616   4.163   3.918   8.967  0.4215 -0.7165 -0.3072
  112OSM   H15S11617   4.053   3.932   8.981 -0.5143 -2.3426 -4.4941
  112OSM   H15T11618   4.183   3.809   8.973  0.6900 -0.6602 -0.1603
  112OSM   C16S11619   4.201   3.963   8.832 -0.3877 -0.0971  0.6486
  112OSM   H16S11620   4.308   3.939   8.817 -0.6593 -0.3405 -1.1057
  112OSM   H16T11621   4.201   4.074   8.833 -0.9408 -0.0374 -1.3857
  112OSM   C17S11622   4.116   3.907   8.724  0.6746 -0.4703 -0.0548
  112OSM   H17S11623   4.013   3.941   8.745  0.4692 -0.4565 -1.0563
  112OSM   H17T11624   4.113   3.796   8.734  2.2811 -0.5114  0.2901
  112OSM   C18S11625   4.145   3.944   8.581  0.7500 -0.0481 -0.1539
  112OSM   H18S11626   4.242   3.899   8.553  1.5338  0.4467  1.6416
  112OSM   H18T11627   4.151   4.054   8.564 -0.7688  0.1462  0.3965
  112OSM   H18U11628   4.066   3.903   8.514  0.9641 -0.1859 -0.3193
  112OSM    C1F11629   4.185   3.684  10.368 -0.8722 -0.0873  0.0242
  112OSM     OF11630   4.110   3.751  10.435  0.1114 -0.1275 -0.6054
  112OSM    C2F11631   4.133   3.547  10.316 -0.2316 -0.0012  0.4537
  112OSM    H2F11632   4.085   3.496  10.402  1.1312 -0.4720  0.9573
  112OSM    H2G11633   4.220   3.481  10.294 -0.9149 -1.8599  2.8553
  112OSM    C3F11634   4.041   3.565  10.191 -0.8059  0.4243 -0.5033
  112OSM    H3F11635   4.102   3.623  10.119 -0.5484 -0.2485 -0.8277
  112OSM    H3G11636   3.955   3.633  10.212 -2.5079 -1.9471  0.7539
  112OSM    C4F11637   3.993   3.435  10.127  0.6928  0.5822  0.5907
  112OSM    H4F11638   4.074   3.377  10.076 -0.4681 -0.3279 -0.2763
  112OSM    H4G11639   3.916   3.469  10.055  1.1015 -0.3476 -0.3167
  112OSM    C5F11640   3.934   3.335  10.223  0.0114  0.7710  0.0642
  112OSM    H5F11641   3.853   3.374  10.288 -0.8665 -3.3036  1.7498
  112OSM    H5G11642   4.023   3.309  10.284  1.5469  0.6205 -2.1029
  112OSM    C6F11643   3.885   3.208  10.150  0.0067  0.5224 -0.2537
  112OSM    H6F11644   3.976   3.169  10.100 -0.1152 -1.2234  0.7928
  112OSM    H6G11645   3.808   3.234  10.075 -1.8770  0.3262  1.5025
  112OSM    C7F11646   3.849   3.085  10.246  0.3932  0.6185  0.3577
  112OSM    H7F11647   3.896   3.092  10.346  4.3178  1.4872 -1.3363
  112OSM    H7G11648   3.899   3.000  10.193 -0.7080  0.5298 -0.5768
  112OSM    C8F11649   3.703   3.072  10.257 -0.7141  0.4880  0.0812
  112OSM    H8F11650   3.662   3.078  10.154 -1.5996  2.8927  0.5095
  112OSM    H8G11651   3.663   3.164  10.305  0.1934  0.8295  0.1983
  112OSM    C9F11652   3.636   2.956  10.327 -0.2223  0.4974 -0.5180
  112OSM    H9F11653   3.677   2.953  10.429 -0.6580 -0.6995 -0.3585
  112OSM   C10F11654   3.540   2.875  10.279  0.0098  0.4139  0.6201
  112OSM   H10F11655   3.492   2.800  10.344 -0.5940  0.6036  0.4014
  112OSM   C11F11656   3.486   2.862  10.137 -0.6197 -0.2469  0.3666
  112OSM   H11F11657   3.513   2.955  10.082  0.8141 -0.3088  0.9282
  112OSM   H11G11658   3.375   2.861  10.130 -0.5130 -1.1258 -3.9137
  112OSM   C12F11659   3.537   2.739  10.062 -0.1969  0.1854 -0.2600
  112OSM   H12F11660   3.497   2.653  10.121 -0.3725 -0.1094 -0.8066
  112OSM   H12G11661   3.648   2.733  10.063 -0.1104  1.4532 -0.5174
  112OSM   C13F11662   3.487   2.733   9.918  0.3463  0.2721  0.4980
  112OSM   H13F11663   3.525   2.819   9.859  0.8822 -1.2172 -1.4357
  112OSM   H13G11664   3.376   2.733   9.910  0.4097 -1.2323 -1.1357
  112OSM   C14F11665   3.540   2.607   9.847  0.7525 -0.4102 -0.6412
  112OSM   H14F11666   3.499   2.509   9.880  0.4283 -0.2408 -0.5392
  112OSM   H14G11667   3.649   2.602   9.871  0.7572  0.3217 -0.4833
  112OSM   C15F11668   3.523   2.615   9.701 -0.6035 -0.3455  0.6551
  112OSM   H15F11669   3.582   2.699   9.659 -0.5216 -0.2662  0.9210
  112OSM   H15G11670   3.418   2.623   9.667 -0.0885  1.1772 -0.7062
  112OSM   C16F11671   3.567   2.482   9.634 -0.3755  0.2319 -0.0127
  112OSM   H16F11672   3.520   2.392   9.681 -0.9383  0.4788 -0.1021
  112OSM   H16G11673   3.678   2.476   9.638 -0.4375 -3.1015 -0.0822
  112OSM   C17F11674   3.526   2.478   9.481 -0.2420 -0.1322  0.2609
  112OSM   H17F11675   3.544   2.577   9.434 -0.0339  0.5453  1.7259
  112OSM   H17G11676   3.417   2.460   9.479  0.0663 -2.8120  1.9621
  112OSM   C18F11677   3.600   2.363   9.402 -0.4440 -0.4436  0.5647
  112OSM   H18F11678   3.707   2.387   9.384 -0.4118 -2.2955 -2.3997
  112OSM   H18G11679   3.542   2.358   9.308 -1.4523  1.9472  1.0026
  112OSM   H18H11680   3.599   2.267   9.458  2.1161  0.1813  1.8612
  113OSM      N11681   0.108   4.503  10.359  0.5707  0.1441 -0.3763
  113OSM    C1511682   0.164   4.614  10.434 -0.0107  0.0421 -0.5951
  113OSM   H15A11683   0.225   4.590  10.520  1.0543 -0.1763 -1.3832
  113OSM   H15B11684   0.090   4.685  10.466 -0.1461 -0.9795  1.5213
  113OSM   H15C11685   0.225   4.677  10.372 -0.1618  1.2948  0.4881
  113OSM    C1411686  -0.005   4.454  10.446 -0.3739  0.3284 -0.6398
  113OSM   H14A11687   0.021   4.421  10.545  0.7802 -0.3668 -1.1531
  113OSM   H14B11688  -0.057   4.373  10.397 -0.6567  0.0320  0.1423
  113OSM   H14C11689  -0.081   4.531  10.451 -2.0763 -1.3033  0.2055
  113OSM    C1311690   0.035   4.559  10.238 -0.3573 -0.2587 -0.9306
  113OSM   H13A11691   0.096   4.599  10.158 -0.3163  0.7672 -0.4129
  113OSM   H13B11692  -0.035   4.634  10.272  1.5193  0.3321  2.0025
  113OSM   H13C11693  -0.029   4.485  10.192 -1.1403  1.2349 -2.3628
  113OSM    C1211694   0.206   4.392  10.330  0.4954 -0.0484  0.1445
  113OSM   H12A11695   0.253   4.365  10.424 -1.4407 -1.5652  0.7547
  113OSM   H12B11696   0.281   4.427  10.261  0.2520 -0.5366 -0.3810
  113OSM    C1111697   0.159   4.262  10.263  0.4840  0.4725 -0.7484
  113OSM   H11A11698   0.251   4.205  10.236  0.2253 -1.2912  1.7592
  113OSM   H11B11699   0.108   4.275  10.164  0.0468 -2.4559 -0.9777
  113OSM      P11700  -0.008   4.062  10.312  0.1089  0.0039 -0.3610
  113OSM    O1311701  -0.017   3.967  10.426 -0.5210  0.0373 -0.5566
  113OSM    O1411702  -0.144   4.105  10.256 -0.7127 -0.3449 -0.2212
  113OSM    O1111703   0.079   3.997  10.202 -0.7364 -0.9554 -0.4507
  113OSM    O1211704   0.084   4.184  10.359  0.2916  0.8503 -0.5945
  113OSM    C1S11705   0.114   3.857  10.202 -0.6469 -0.4175  0.1068
  113OSM    H1S11706   0.032   3.798  10.247  1.9006 -3.6082  0.9136
  113OSM    H1T11707   0.214   3.833  10.243  0.2783  3.1024  0.1907
  113OSM     NF11708   0.079   3.654  10.047  0.5419 -0.1809  0.4562
  113OSM    HNF11709   0.152   3.607   9.999 -1.7572 -0.4625 -3.1036
  113OSM    C2S11710   0.098   3.801  10.059 -0.2243  0.8758 -0.0879
  113OSM    H2S11711   0.002   3.850  10.029 -1.3056  0.1018  1.9180
  113OSM    C3S11712   0.218   3.862   9.979  0.6570  0.0886  0.3403
  113OSM    H3S11713   0.310   3.822  10.025  0.9510  0.4465  0.0735
  113OSM     O311714   0.230   4.003   9.983 -0.2170  0.1544 -0.1112
  113OSM    HO311715   0.173   4.039  10.051  1.5519  3.3833 -0.1648
  113OSM    C4S11716   0.212   3.814   9.834 -0.6048 -0.4675  0.0432
  113OSM    H4S11717   0.301   3.754   9.811  0.4477  0.5543  1.3310
  113OSM    C5S11718   0.130   3.853   9.737 -0.5378  0.3305  0.1518
  113OSM    H5S11719   0.054   3.930   9.757 -3.0078 -2.5553  3.0064
  113OSM    C6S11720   0.135   3.796   9.597 -0.0691  0.4089 -0.7340
  113OSM    H6S11721   0.041   3.828   9.547 -0.1557  2.6047  0.6986
  113OSM    H6T11722   0.129   3.685   9.586  0.7403  0.0507  1.7477
  113OSM    C7S11723   0.258   3.811   9.510 -0.6915  0.9322  0.1972
  113OSM    H7S11724   0.332   3.732   9.534 -0.5503  1.1675  0.5488
  113OSM    H7T11725   0.310   3.908   9.526 -2.1653  2.1429 -1.8402
  113OSM    C8S11726   0.231   3.792   9.354  0.1336 -0.0751  0.9401
  113OSM    H8S11727   0.173   3.879   9.316  0.5047 -0.1413  0.2060
  113OSM    H8T11728   0.164   3.705   9.337  0.8524 -0.5013  0.2096
  113OSM    C9S11729   0.359   3.795   9.263 -0.3786 -0.6916 -0.4892
  113OSM    H9S11730   0.425   3.709   9.287  0.6817 -0.2235 -1.6301
  113OSM    H9T11731   0.414   3.887   9.293  2.7739 -2.4477 -0.4304
  113OSM   C10S11732   0.318   3.785   9.114  0.5914 -0.9757  0.0724
  113OSM   H10S11733   0.282   3.682   9.096 -1.0663 -0.4967  0.4462
  113OSM   H10T11734   0.411   3.797   9.055 -0.0622  1.6494 -0.5684
  113OSM   C11S11735   0.224   3.900   9.061  0.3606 -0.0188  0.4146
  113OSM   H11S11736   0.244   3.996   9.115 -0.6503  1.4751 -1.7175
  113OSM   H11T11737   0.117   3.879   9.083  0.1998  0.9205  0.5929
  113OSM   C12S11738   0.229   3.926   8.911  0.9657  0.4722 -0.1770
  113OSM   H12S11739   0.326   3.969   8.877 -0.1911  2.9208 -0.6029
  113OSM   H12T11740   0.149   4.000   8.891 -0.6928 -0.9078  1.1444
  113OSM   C13S11741   0.206   3.793   8.836 -0.5189 -0.6208  1.2679
  113OSM   H13S11742   0.119   3.741   8.882 -1.6906  0.3339  0.1926
  113OSM   H13T11743   0.295   3.729   8.851 -1.9550 -2.4846  2.2949
  113OSM   C14S11744   0.166   3.819   8.688  0.1032  0.5664 -1.0121
  113OSM   H14S11745   0.086   3.897   8.686 -0.6508 -0.2106 -1.9884
  113OSM   H14T11746   0.110   3.735   8.640 -2.5818 -0.7887  3.7739
  113OSM   C15S11747   0.284   3.863   8.599 -0.2786 -0.4047 -0.2023
  113OSM   H15S11748   0.354   3.939   8.640 -1.2822  0.6151 -0.3339
  113OSM   H15T11749   0.239   3.919   8.514 -0.1459  2.5434  1.5330
  113OSM   C16S11750   0.360   3.739   8.541 -0.0655 -1.1551  0.2262
  113OSM   H16S11751   0.300   3.706   8.453 -1.7137  0.2267  0.7725
  113OSM   H16T11752   0.352   3.655   8.614 -3.1028 -0.7870  0.4734
  113OSM   C17S11753   0.506   3.775   8.507 -0.1737  0.2324  0.5976
  113OSM   H17S11754   0.510   3.886   8.509 -1.4904  0.3822 -1.8955
  113OSM   H17T11755   0.522   3.761   8.399  0.1659  3.0705  0.1860
  113OSM   C18S11756   0.618   3.714   8.588 -0.0004  0.6110 -0.6030
  113OSM   H18S11757   0.716   3.728   8.538  0.2576 -2.3525 -1.1245
  113OSM   H18T11758   0.609   3.604   8.603  0.0414  0.7249  0.2618
  113OSM   H18U11759   0.608   3.766   8.685  1.1995  2.6129 -1.4890
  113OSM    C1F11760  -0.028   3.581  10.088  0.3603 -0.3127 -0.4539
  113OSM     OF11761  -0.131   3.635  10.127  0.6955 -0.2325 -0.0240
  113OSM    C2F11762   0.002   3.435  10.103  0.5862  0.1473  0.1139
  113OSM    H2F11763   0.052   3.402  10.197  1.1581  2.1405  0.5694
  113OSM    H2G11764   0.069   3.409  10.018 -0.6576 -0.5930 -0.6632
  113OSM    C3F11765  -0.128   3.357  10.083 -0.1863  0.7044 -0.5956
  113OSM    H3F11766  -0.170   3.371   9.981  0.1268  0.1134 -0.8141
  113OSM    H3G11767  -0.196   3.385  10.166 -0.4909 -0.5208 -0.4181
  113OSM    C4F11768  -0.098   3.209  10.087 -0.0540  0.1527  0.6141
  113OSM    H4F11769  -0.077   3.170  10.189 -2.6681 -2.2145  0.3637
  113OSM    H4G11770  -0.004   3.196  10.030 -0.4345 -1.3190  0.3026
  113OSM    C5F11771  -0.221   3.132  10.040 -0.1821  0.3114 -0.4738
  113OSM    H5F11772  -0.258   3.182   9.948  0.5941  1.9406  0.0417
  113OSM    H5G11773  -0.302   3.139  10.115  0.6013 -2.5048  0.7520
  113OSM    C6F11774  -0.198   2.981  10.023  0.3190 -0.0735 -0.3543
  113OSM    H6F11775  -0.184   2.940  10.126 -1.2517  1.5519  0.5565
  113OSM    H6G11776  -0.105   2.962   9.966 -0.3876 -0.4507 -1.3988
  113OSM    C7F11777  -0.306   2.908   9.948  0.5979 -0.9116  0.0666
  113OSM    H7F11778  -0.295   2.934   9.841  2.0241  0.7931  0.5715
  113OSM    H7G11779  -0.400   2.954   9.985  1.2481 -1.8655  3.2915
  113OSM    C8F11780  -0.308   2.758   9.945 -0.5404 -0.5466 -0.5180
  113OSM    H8F11781  -0.389   2.723   9.878 -1.5243  0.7359 -0.0373
  113OSM    H8G11782  -0.325   2.722  10.049  2.7602 -0.4189  0.1792
  113OSM    C9F11783  -0.170   2.704   9.905 -0.5490 -0.4497 -0.4340
  113OSM    H9F11784  -0.103   2.673   9.987  1.4649  0.1405 -1.7887
  113OSM   C10F11785  -0.113   2.688   9.782 -0.5536  0.3385 -0.1085
  113OSM   H10F11786  -0.011   2.646   9.778 -0.9597 -0.8430  1.1954
  113OSM   C11F11787  -0.170   2.715   9.649  0.2248 -0.1808  0.6916
  113OSM   H11F11788  -0.115   2.810   9.628  0.9965 -0.5051  1.2275
  113OSM   H11G11789  -0.275   2.752   9.647 -0.0050 -0.8615 -0.0509
  113OSM   C12F11790  -0.148   2.604   9.546  0.3387  0.4671  0.3721
  113OSM   H12F11791  -0.224   2.525   9.561 -0.7638  1.0126 -1.7896
  113OSM   H12G11792  -0.048   2.558   9.557 -0.1939 -1.2653 -1.4055
  113OSM   C13F11793  -0.166   2.647   9.398  0.0250  0.4669 -0.0672
  113OSM   H13F11794  -0.088   2.719   9.365 -0.8495  0.3246 -2.7529
  113OSM   H13G11795  -0.267   2.689   9.377 -0.8004 -1.3099  0.1419
  113OSM   C14F11796  -0.160   2.527   9.302  0.3471 -0.2712 -0.3541
  113OSM   H14F11797  -0.230   2.447   9.335 -0.2132 -0.1154 -1.1398
  113OSM   H14G11798  -0.062   2.477   9.307 -0.0370 -1.3173 -2.2725
  113OSM   C15F11799  -0.205   2.559   9.161 -0.1961  0.0380  0.4469
  113OSM   H15F11800  -0.111   2.598   9.115  1.5538 -4.8568 -0.6746
  113OSM   H15G11801  -0.280   2.640   9.166 -0.8521 -0.6158  1.6440
  113OSM   C16F11802  -0.257   2.444   9.078 -0.1282 -0.0665  0.0918
  113OSM   H16F11803  -0.336   2.394   9.138  0.5514  0.8471  1.8303
  113OSM   H16G11804  -0.183   2.362   9.062  0.0729  0.7686 -4.5672
  113OSM   C17F11805  -0.303   2.485   8.935 -0.7313 -0.0761 -0.9399
  113OSM   H17F11806  -0.217   2.529   8.881 -0.6936 -0.3808 -1.1291
  113OSM   H17G11807  -0.376   2.568   8.947 -0.8015 -0.3630  0.7857
  113OSM   C18F11808  -0.371   2.385   8.851 -0.3691  0.4188  0.0710
  113OSM   H18F11809  -0.315   2.293   8.824 -0.1416 -0.6194  3.5738
  113OSM   H18G11810  -0.398   2.428   8.752  0.5158 -1.9248 -1.2588
  113OSM   H18H11811  -0.462   2.357   8.909  1.0327  0.2490  2.2952
  114OSM      N11812   5.246   2.662  10.510  0.2749 -0.0844 -0.3288
  114OSM    C1511813   5.171   2.748  10.603 -0.1105 -0.0168 -0.4154
  114OSM   H15A11814   5.225   2.761  10.696  0.8238 -0.6508 -0.8558
  114OSM   H15B11815   5.086   2.697  10.644  0.0377  0.9289  1.1662
  114OSM   H15C11816   5.139   2.839  10.554 -0.9508 -1.6002 -3.0052
  114OSM    C1411817   5.262   2.525  10.570  0.8815  0.0425  0.9143
  114OSM   H14A11818   5.301   2.534  10.671 -1.4964 -1.4346  2.0539
  114OSM   H14B11819   5.325   2.465  10.506 -1.5909 -1.4217 -0.3123
  114OSM   H14C11820   5.168   2.472  10.578  0.1819  0.8526 -1.2583
  114OSM    C1311821   5.152   2.646  10.390  0.4664 -0.9074 -0.2996
  114OSM   H13A11822   5.148   2.737  10.332 -2.6750  0.9475  2.5070
  114OSM   H13B11823   5.048   2.635  10.413  0.0903  0.0903 -1.4092
  114OSM   H13C11824   5.193   2.567  10.329 -0.9559 -1.2131 -0.8888
  114OSM    C1211825   5.380   2.727  10.468 -0.2371 -0.2943  0.0062
  114OSM   H12A11826   5.446   2.743  10.553  0.7990  1.4752 -1.0523
  114OSM   H12B11827   5.353   2.826  10.434 -1.3299 -0.8048 -0.6554
  114OSM    C1111828   5.470   2.660  10.361  0.2595 -0.3081  0.6722
  114OSM   H11A11829   5.558   2.725  10.342  0.3293 -0.5211  0.2450
  114OSM   H11B11830   5.415   2.656  10.264  1.9204  2.1364 -0.4673
  114OSM      P11831   5.623   2.498  10.489  0.1691 -0.3172  0.1435
  114OSM    O1311832   5.599   2.578  10.611  0.1940 -0.1180 -0.5105
  114OSM    O1411833   5.639   2.354  10.512 -0.2845 -0.4188 -0.2757
  114OSM    O1111834   5.749   2.555  10.407  0.5228 -0.0515 -0.4790
  114OSM    O1211835   5.511   2.528  10.380  0.3110  0.4952 -0.0851
  114OSM    C1S11836   5.779   2.494  10.285 -0.3725  0.1746  0.9815
  114OSM    H1S11837   5.745   2.388  10.286 -0.0758 -0.0094 -1.5569
  114OSM    H1T11838   5.890   2.499  10.273 -0.4386 -2.0006 -1.3547
  114OSM     NF11839   5.761   2.483  10.031 -0.0367  0.0992 -0.4854
  114OSM    HNF11840   5.843   2.505   9.977  0.4292  0.7871  0.4746
  114OSM    C2S11841   5.733   2.563  10.150 -0.2274 -0.0559 -0.9164
  114OSM    H2S11842   5.622   2.562  10.158 -0.1241 -1.6021  1.0159
  114OSM    C3S11843   5.790   2.709  10.154 -0.1012 -0.0208  0.2950
  114OSM    H3S11844   5.898   2.698  10.130 -0.2736 -2.8374  0.4550
  114OSM     O311845   5.788   2.779  10.276 -0.3396 -0.3746  0.2922
  114OSM    HO311846   5.776   2.710  10.341 -0.5025  1.4405  2.2931
  114OSM    C4S11847   5.730   2.781  10.029 -0.0690  0.0828  0.0943
  114OSM    H4S11848   5.797   2.758   9.945  2.1322  0.6469  1.6160
  114OSM    C5S11849   5.616   2.862  10.021 -0.0289 -0.2739 -0.2646
  114OSM    H5S11850   5.570   2.887  10.118  1.9383  0.2965  0.5674
  114OSM    C6S11851   5.577   2.938   9.902 -0.7873 -0.6679  0.8790
  114OSM    H6S11852   5.582   3.049   9.909 -0.0123 -0.5081 -1.3264
  114OSM    H6T11853   5.473   2.920   9.868 -0.3421 -0.9923 -0.3645
  114OSM    C7S11854   5.679   2.915   9.782 -0.0465 -0.5996 -0.2614
  114OSM    H7S11855   5.693   2.807   9.760  1.5395 -0.8853  1.8006
  114OSM    H7T11856   5.785   2.942   9.802  1.1371 -3.6414 -1.7082
  114OSM    C8S11857   5.624   2.982   9.659 -0.5693 -0.2520  0.0296
  114OSM    H8S11858   5.651   3.090   9.654  2.7460 -0.9919 -0.2577
  114OSM    H8T11859   5.513   2.969   9.665 -0.6773 -0.1369 -1.3635
  114OSM    C9S11860   5.674   2.919   9.525  0.0353  0.3209 -0.3401
  114OSM    H9S11861   5.653   2.810   9.522  1.0670  0.1300 -1.4662
  114OSM    H9T11862   5.785   2.922   9.521  0.1653  1.2306  2.2197
  114OSM   C10S11863   5.622   2.992   9.404  0.6166 -0.3671  0.0701
  114OSM   H10S11864   5.666   3.094   9.395 -0.8383  0.3949  1.1160
  114OSM   H10T11865   5.512   2.997   9.420  0.8542  0.1318  1.6619
  114OSM   C11S11866   5.641   2.919   9.270  0.4063  0.5499  0.2890
  114OSM   H11S11867   5.622   2.812   9.290  2.4790  0.1695  0.5116
  114OSM   H11T11868   5.750   2.932   9.252 -0.1960  3.7646 -1.9775
  114OSM   C12S11869   5.548   2.964   9.154  0.1973  0.1575  0.6868
  114OSM   H12S11870   5.553   3.075   9.142  0.9110  0.0866  0.2616
  114OSM   H12T11871   5.444   2.938   9.183  0.1268 -0.3470 -0.0021
  114OSM   C13S11872   5.588   2.885   9.023 -0.0773  0.0876 -0.0073
  114OSM   H13S11873   5.511   2.893   8.943 -0.9572  1.9747  0.9814
  114OSM   H13T11874   5.584   2.780   9.058 -1.5472  0.0501 -0.2280
  114OSM   C14S11875   5.719   2.938   8.975 -0.4828 -0.0756  0.1730
  114OSM   H14S11876   5.803   2.897   9.036  1.5356  0.6284 -1.9922
  114OSM   H14T11877   5.724   3.049   8.975  0.6596 -0.1161  0.2535
  114OSM   C15S11878   5.736   2.905   8.833 -0.3212 -0.2209 -0.2738
  114OSM   H15S11879   5.678   2.814   8.806  1.1068 -0.9168 -1.1015
  114OSM   H15T11880   5.842   2.877   8.812  0.1141  1.6265 -0.6785
  114OSM   C16S11881   5.701   3.018   8.727  0.3622 -0.3481  0.1450
  114OSM   H16S11882   5.600   3.051   8.757  0.3396  0.9194 -1.2182
  114OSM   H16T11883   5.706   2.983   8.622  1.7860 -2.1955  0.7691
  114OSM   C17S11884   5.800   3.139   8.729  0.4822  0.1601  0.0282
  114OSM   H17S11885   5.905   3.103   8.716  0.4350  0.2909 -0.7942
  114OSM   H17T11886   5.801   3.183   8.831 -1.3418  2.7948 -0.9779
  114OSM   C18S11887   5.771   3.255   8.643  0.0837  0.4910 -0.1420
  114OSM   H18S11888   5.666   3.284   8.662 -0.8130 -1.1346 -2.1714
  114OSM   H18T11889   5.772   3.233   8.534 -0.9557  2.0795 -0.5026
  114OSM   H18U11890   5.847   3.335   8.654  1.1616 -0.5317  0.0969
  114OSM    C1F11891   5.699   2.361  10.022 -0.3269  0.7735 -0.0974
  114OSM     OF11892   5.593   2.339  10.081  0.0178  0.0420 -0.0380
  114OSM    C2F11893   5.754   2.257   9.928 -0.4507 -0.2577  0.3277
  114OSM    H2F11894   5.858   2.231   9.956 -0.4975 -2.1321 -1.0639
  114OSM    H2G11895   5.764   2.290   9.823 -0.6790 -0.1290  0.3478
  114OSM    C3F11896   5.667   2.131   9.922  0.4586 -0.5566 -0.2702
  114OSM    H3F11897   5.572   2.155   9.870  0.3204 -2.5100 -1.0386
  114OSM    H3G11898   5.641   2.085  10.020 -1.5053 -0.1185 -0.5480
  114OSM    C4F11899   5.718   2.014   9.836  0.3636  0.6438  0.3338
  114OSM    H4F11900   5.639   1.938   9.820  1.5570 -0.0549 -3.0546
  114OSM    H4G11901   5.807   1.968   9.886 -1.3089 -0.8160  2.1189
  114OSM    C5F11902   5.763   2.052   9.693  0.0120  0.2054  0.0182
  114OSM    H5F11903   5.869   2.086   9.695  0.9067 -2.4036  0.9932
  114OSM    H5G11904   5.693   2.127   9.649  1.2025  1.8635  0.8336
  114OSM    C6F11905   5.765   1.929   9.608  0.5973  0.7053  0.4516
  114OSM    H6F11906   5.660   1.894   9.597  1.1864 -2.0351  2.4265
  114OSM    H6G11907   5.817   1.852   9.668  0.6878 -0.0841 -0.6085
  114OSM    C7F11908   5.829   1.947   9.477  0.3932 -0.8468 -0.6346
  114OSM    H7F11909   5.834   1.844   9.434 -0.6270 -1.0460 -0.3218
  114OSM    H7G11910   5.928   1.995   9.484 -1.2613  2.6833  1.2624
  114OSM    C8F11911   5.733   2.024   9.387 -0.3446 -0.3366  0.4509
  114OSM    H8F11912   5.702   2.120   9.434  0.9180  0.2628  0.0919
  114OSM    H8G11913   5.640   1.963   9.382  0.2629 -1.5865  2.7198
  114OSM    C9F11914   5.792   2.051   9.255  0.2555 -0.1166 -0.4259
  114OSM    H9F11915   5.858   2.138   9.260  0.9159 -0.5165 -1.7000
  114OSM   C10F11916   5.776   1.982   9.138 -0.7629  0.4024  1.0000
  114OSM   H10F11917   5.829   2.022   9.050 -1.3623  1.1838  0.9797
  114OSM   C11F11918   5.693   1.856   9.114 -0.3370  0.0014 -0.1614
  114OSM   H11F11919   5.668   1.823   9.217  1.3261  0.5047  0.4426
  114OSM   H11G11920   5.762   1.780   9.073 -0.5139 -0.4976  0.4426
  114OSM   C12F11921   5.569   1.879   9.016 -0.4119 -0.0352 -0.7232
  114OSM   H12F11922   5.517   1.965   9.063  0.2191 -0.9742  1.9207
  114OSM   H12G11923   5.506   1.787   9.019 -3.3291  1.8447  0.6006
  114OSM   C13F11924   5.616   1.916   8.871  0.6592 -0.3625  0.0933
  114OSM   H13F11925   5.686   2.001   8.857 -0.8213  0.5270 -2.5489
  114OSM   H13G11926   5.519   1.948   8.828  0.6272  0.3575  0.6857
  114OSM   C14F11927   5.663   1.790   8.789 -0.0868  0.3893 -0.5069
  114OSM   H14F11928   5.605   1.700   8.818 -0.2906  0.9911  1.0173
  114OSM   H14G11929   5.767   1.776   8.824 -0.5473 -1.1134  0.3734
  114OSM   C15F11930   5.666   1.791   8.633  0.3440  0.1443  0.6018
  114OSM   H15F11931   5.740   1.867   8.599  1.2340 -1.1335 -0.4257
  114OSM   H15G11932   5.570   1.834   8.599 -0.3220 -0.0522  2.1771
  114OSM   C16F11933   5.697   1.659   8.564  0.0226  0.0608  0.1393
  114OSM   H16F11934   5.635   1.594   8.629  1.1012 -0.0580  1.0826
  114OSM   H16G11935   5.800   1.617   8.576 -0.1400 -1.2954 -2.4328
  114OSM   C17F11936   5.657   1.649   8.412 -0.7115 -0.4477  0.2814
  114OSM   H17F11937   5.555   1.690   8.398 -0.9805 -0.4627  2.0507
  114OSM   H17G11938   5.678   1.542   8.392  1.9362  0.1062 -0.2669
  114OSM   C18F11939   5.749   1.737   8.322  0.0994  0.8628  0.2487
  114OSM   H18F11940   5.735   1.846   8.339 -1.0328  1.1508 -2.1742
  114OSM   H18G11941   5.729   1.721   8.214  0.4587  0.5715  0.2219
  114OSM   H18H11942   5.857   1.721   8.342  0.0039 -1.4856 -0.7593
  115OSM      N11943   4.170   3.764   5.708  0.6974  0.6467  0.4854
  115OSM    C1511944   4.302   3.789   5.641  0.9120 -1.1225 -0.3174
  115OSM   H15A11945   4.375   3.815   5.716 -0.3550 -0.7977  0.8614
  115OSM   H15B11946   4.312   3.883   5.590 -0.7860 -0.7638 -0.0459
  115OSM   H15C11947   4.336   3.711   5.574 -2.3057 -3.1803  0.2108
  115OSM    C1411948   4.080   3.705   5.604 -0.3237  0.4376  0.0393
  115OSM   H14A11949   3.981   3.691   5.646 -0.1116  0.9191  0.7168
  115OSM   H14B11950   4.118   3.617   5.555 -2.1244 -0.5853  0.3711
  115OSM   H14C11951   4.071   3.774   5.522 -1.1344  0.1277 -0.1450
  115OSM    C1311952   4.183   3.669   5.817 -0.3453  0.8794 -0.2697
  115OSM   H13A11953   4.242   3.701   5.902  1.5327  3.1113 -2.2324
  115OSM   H13B11954   4.229   3.579   5.780 -2.3119 -1.0086  1.6490
  115OSM   H13C11955   4.089   3.634   5.855 -0.3872 -1.0545 -2.0040
  115OSM    C1211956   4.107   3.898   5.750  0.8616  0.0627  0.5490
  115OSM   H12A11957   4.097   3.963   5.664  1.1642  0.6884  0.9794
  115OSM   H12B11958   4.179   3.948   5.814  2.1757 -1.2168  0.1103
  115OSM    C1111959   3.966   3.893   5.834 -0.0767  0.0437 -0.0395
  115OSM   H11A11960   3.936   3.993   5.871  1.1695 -0.1809  1.7047
  115OSM   H11B11961   3.978   3.838   5.930  0.1332 -0.4114 -0.3234
  115OSM      P11962   3.772   3.896   5.657  0.9637 -0.2502  0.5774
  115OSM    O1311963   3.848   3.972   5.557 -0.3757 -0.4584  0.0573
  115OSM    O1411964   3.683   3.800   5.604 -0.9904  0.3003 -0.0151
  115OSM    O1111965   3.690   4.003   5.742 -0.1125  0.0315  0.0601
  115OSM    O1211966   3.867   3.829   5.753 -0.0241 -0.6726  0.0199
  115OSM    C1S11967   3.597   3.958   5.847 -0.5125  0.2965 -0.4038
  115OSM    H1S11968   3.577   3.849   5.834  3.1059 -0.5892  0.4014
  115OSM    H1T11969   3.507   4.019   5.824  0.8317  1.7587 -2.0714
  115OSM     NF11970   3.550   3.930   6.088  0.5012  0.3138 -0.0326
  115OSM    HNF11971   3.476   3.982   6.131 -0.5516 -0.6738 -0.5995
  115OSM    C2S11972   3.643   3.986   5.992  0.2792  0.1539  0.2260
  115OSM    H2S11973   3.739   3.934   6.012  1.3045  2.0134  0.3050
  115OSM    C3S11974   3.674   4.144   6.009  0.2958  0.9139  1.0787
  115OSM    H3S11975   3.579   4.198   5.988 -0.0991 -0.3686 -0.6381
  115OSM     O311976   3.764   4.193   5.907 -0.4414  0.4478  0.1484
  115OSM    HO311977   3.752   4.138   5.829 -0.8061 -0.7234  1.0171
  115OSM    C4S11978   3.730   4.174   6.148  0.4736 -0.2860  0.5014
  115OSM    H4S11979   3.651   4.194   6.222  0.2256 -3.0212  1.0895
  115OSM    C5S11980   3.860   4.170   6.176  0.4433 -0.2827 -0.2721
  115OSM    H5S11981   3.932   4.155   6.095  0.0321  0.2474 -0.7417
  115OSM    C6S11982   3.926   4.189   6.317 -0.1691 -0.3208 -0.0831
  115OSM    H6S11983   4.022   4.242   6.298  0.6750 -2.1624 -1.2275
  115OSM    H6T11984   3.951   4.089   6.360 -0.2577  0.0822  0.9346
  115OSM    C7S11985   3.830   4.258   6.411  0.2895 -0.1328  0.4106
  115OSM    H7S11986   3.749   4.188   6.440  0.7958 -0.4931  0.9802
  115OSM    H7T11987   3.783   4.339   6.352 -0.2005 -1.2350 -0.7481
  115OSM    C8S11988   3.902   4.325   6.531  0.0256  0.3764 -0.2268
  115OSM    H8S11989   3.996   4.366   6.489  0.3935 -0.5640 -0.3523
  115OSM    H8T11990   3.931   4.249   6.607  1.4349  0.7804 -0.3213
  115OSM    C9S11991   3.820   4.434   6.602 -0.3856 -0.3437 -0.3957
  115OSM    H9S11992   3.760   4.478   6.520  1.4151 -0.6383 -1.9381
  115OSM    H9T11993   3.866   4.517   6.659 -2.3910 -0.8183  2.1248
  115OSM   C10S11994   3.715   4.378   6.705  0.1181 -0.1174 -0.0510
  115OSM   H10S11995   3.767   4.341   6.795 -1.4266 -1.2000  0.4498
  115OSM   H10T11996   3.658   4.293   6.661 -0.2445  0.1727 -0.1516
  115OSM   C11S11997   3.618   4.489   6.738 -0.1923 -0.0426  0.1266
  115OSM   H11S11998   3.545   4.505   6.656  0.4309 -1.0678 -0.6449
  115OSM   H11T11999   3.666   4.589   6.747 -1.7063  0.7651 -0.4387
  115OSM   C12S12000   3.538   4.458   6.867  0.3499 -0.3401 -0.0462
  115OSM   H12S12001   3.549   4.349   6.889  1.9812 -0.4270 -1.1061
  115OSM   H12T12002   3.433   4.491   6.855  0.0404  0.4747  3.7557
  115OSM   C13S12003   3.588   4.542   6.982  0.1093 -0.7891  0.7360
  115OSM   H13S12004   3.574   4.651   6.968  1.1453 -0.5158  1.6869
  115OSM   H13T12005   3.697   4.524   6.996  1.0147  2.7856 -0.5658
  115OSM   C14S12006   3.505   4.519   7.113  0.0104 -0.1857  0.4150
  115OSM   H14S12007   3.506   4.409   7.126 -1.9406 -0.5328 -1.7583
  115OSM   H14T12008   3.399   4.548   7.095  0.4657  1.0801 -0.3635
  115OSM   C15S12009   3.572   4.582   7.238 -0.6951 -0.6078  0.0638
  115OSM   H15S12010   3.583   4.692   7.234 -0.7554 -0.6189 -0.4601
  115OSM   H15T12011   3.673   4.539   7.254 -0.1131  0.5374 -0.4446
  115OSM   C16S12012   3.503   4.552   7.373  0.0764 -0.2330 -0.1377
  115OSM   H16S12013   3.510   4.443   7.393 -1.6255 -0.4656 -0.6787
  115OSM   H16T12014   3.402   4.597   7.369  0.3848  0.3983 -1.2174
  115OSM   C17S12015   3.567   4.629   7.488  0.4985 -0.0786  0.6135
  115OSM   H17S12016   3.512   4.606   7.582  0.2082  1.2587  0.7865
  115OSM   H17T12017   3.548   4.738   7.487 -0.2717 -0.2108 -0.0666
  115OSM   C18S12018   3.721   4.610   7.500  0.0784  0.2117 -0.1090
  115OSM   H18S12019   3.744   4.663   7.595 -0.7790  0.6458 -0.1263
  115OSM   H18T12020   3.790   4.674   7.441  1.3793  0.3158  1.4638
  115OSM   H18U12021   3.771   4.512   7.484  0.7846  0.6884 -0.8612
  115OSM    C1F12022   3.531   3.800   6.114 -0.0076 -0.7613  0.4781
  115OSM     OF12023   3.594   3.720   6.050 -0.5455  0.4032  0.2118
  115OSM    C2F12024   3.420   3.758   6.199  0.9912  0.2549  0.3673
  115OSM    H2F12025   3.363   3.678   6.146 -2.6196  2.0895  1.1226
  115OSM    H2G12026   3.349   3.841   6.218  0.5233 -0.4630  1.9462
  115OSM    C3F12027   3.458   3.707   6.343 -0.2650  0.1793  0.2161
  115OSM    H3F12028   3.523   3.785   6.388  1.2245 -1.3420  0.8031
  115OSM    H3G12029   3.510   3.609   6.345  0.6340  0.5532 -1.8772
  115OSM    C4F12030   3.338   3.692   6.435  0.0584  0.5273 -0.0429
  115OSM    H4F12031   3.263   3.630   6.382  0.1783 -1.1613  1.6357
  115OSM    H4G12032   3.306   3.797   6.454 -0.7057  0.5423 -1.3213
  115OSM    C5F12033   3.367   3.628   6.574 -0.2158 -0.0817  0.1654
  115OSM    H5F12034   3.379   3.519   6.557 -0.7309 -0.4566  2.0231
  115OSM    H5G12035   3.274   3.646   6.632 -0.2949 -2.1992  0.7714
  115OSM    C6F12036   3.483   3.686   6.653  0.1335 -0.1448  0.3265
  115OSM    H6F12037   3.576   3.679   6.593 -0.5123 -1.4800 -0.5666
  115OSM    H6G12038   3.500   3.623   6.743  0.3221 -2.1388 -1.0365
  115OSM    C7F12039   3.469   3.834   6.691 -0.7041  0.4846  0.2033
  115OSM    H7F12040   3.459   3.903   6.604  2.3735  1.1461  0.2569
  115OSM    H7G12041   3.565   3.859   6.741 -0.3658 -2.2873  1.0626
  115OSM    C8F12042   3.353   3.860   6.791  0.3828  0.0271  0.6329
  115OSM    H8F12043   3.253   3.825   6.757 -0.6558  1.5237  1.9766
  115OSM    H8G12044   3.330   3.968   6.796 -2.2986 -0.5194  2.5668
  115OSM    C9F12045   3.377   3.800   6.922  0.4954 -0.2849 -0.2667
  115OSM    H9F12046   3.343   3.696   6.933  0.7064 -0.4466 -1.1238
  115OSM   C10F12047   3.407   3.875   7.031 -0.4038 -0.1916 -0.8651
  115OSM   H10F12048   3.401   3.830   7.131 -1.8960 -1.1779 -1.3842
  115OSM   C11F12049   3.438   4.023   7.028  0.1865 -0.2121 -0.1570
  115OSM   H11F12050   3.353   4.084   7.065 -0.0538 -0.8082  0.2951
  115OSM   H11G12051   3.469   4.058   6.927 -2.0220 -0.2979 -0.9226
  115OSM   C12F12052   3.551   4.046   7.121  0.0707 -0.6758 -0.0186
  115OSM   H12F12053   3.514   4.020   7.222 -0.1151  0.8915  0.3436
  115OSM   H12G12054   3.567   4.156   7.121 -0.9424 -0.5021 -1.0139
  115OSM   C13F12055   3.682   3.970   7.089  0.0842  0.0310  0.1535
  115OSM   H13F12056   3.662   3.861   7.078 -1.8953  0.3197  0.5273
  115OSM   H13G12057   3.747   3.973   7.179 -2.3334 -3.1967  2.2627
  115OSM   C14F12058   3.764   3.998   6.964 -0.5099  0.0785  0.1984
  115OSM   H14F12059   3.785   4.107   6.973 -1.5071  0.1844  1.6497
  115OSM   H14G12060   3.703   3.982   6.873  0.3562 -0.8913 -0.2315
  115OSM   C15F12061   3.902   3.934   6.957  0.4316 -0.4105  0.7508
  115OSM   H15F12062   3.883   3.824   6.958 -0.0535 -0.4765 -2.9958
  115OSM   H15G12063   3.972   3.958   7.040  0.7266  0.3282  0.2913
  115OSM   C16F12064   3.986   3.964   6.828 -0.6313  0.1798  0.5775
  115OSM   H16F12065   4.080   3.907   6.842  0.5956  1.2072 -2.6781
  115OSM   H16G12066   4.015   4.071   6.841 -1.2632  0.1786  2.3187
  115OSM   C17F12067   3.906   3.952   6.702 -0.3047 -0.0738  0.5712
  115OSM   H17F12068   3.961   4.005   6.622 -1.5575 -0.2950 -0.4688
  115OSM   H17G12069   3.807   4.003   6.706 -0.9326 -1.2876  1.4089
  115OSM   C18F12070   3.879   3.807   6.654 -0.0253 -0.3595 -0.3344
  115OSM   H18F12071   3.977   3.756   6.641  0.7407  0.6127  1.2991
  115OSM   H18G12072   3.817   3.805   6.562 -0.6374 -0.3315  0.0722
  115OSM   H18H12073   3.830   3.746   6.733 -1.4314  1.4352  0.2543
  116OSM      N12074   2.745   2.276   5.631  0.5880 -0.4123 -0.7359
  116OSM    C1512075   2.733   2.424   5.632  0.4089 -0.3155  0.2593
  116OSM   H15A12076   2.794   2.472   5.557 -0.2773 -0.1489 -0.1985
  116OSM   H15B12077   2.778   2.466   5.720  0.9431  0.3466 -0.3195
  116OSM   H15C12078   2.630   2.455   5.630 -0.6869 -3.4367  1.1827
  116OSM    C1412079   2.710   2.205   5.500 -0.2847  0.3590  0.1654
  116OSM   H14A12080   2.764   2.243   5.415  1.5931 -1.4086  0.4923
  116OSM   H14B12081   2.602   2.208   5.490 -0.2617 -0.3083 -0.3140
  116OSM   H14C12082   2.736   2.102   5.519  0.0300  0.1053 -1.4876
  116OSM    C1312083   2.893   2.257   5.654  0.6284 -0.2481  0.2004
  116OSM   H13A12084   2.906   2.150   5.643 -1.8956 -0.3609 -3.4988
  116OSM   H13B12085   2.918   2.288   5.754  0.0183 -0.8911  0.5605
  116OSM   H13C12086   2.948   2.302   5.573 -1.3648 -0.2542 -1.2398
  116OSM    C1212087   2.658   2.218   5.746  0.2581 -0.6795 -0.5269
  116OSM   H12A12088   2.674   2.111   5.749 -1.0003 -0.8553  1.1397
  116OSM   H12B12089   2.555   2.234   5.719 -0.0863 -0.2195  0.9576
  116OSM    C1112090   2.654   2.275   5.892 -0.8163  0.8322  0.0717
  116OSM   H11A12091   2.751   2.273   5.946  0.0585  1.8159 -1.3967
  116OSM   H11B12092   2.589   2.201   5.944  1.8278 -0.9687  1.0589
  116OSM      P12093   2.560   2.479   6.019 -0.1690 -0.0308  0.4745
  116OSM    O1312094   2.681   2.519   6.093  0.0209 -0.6456 -0.6857
  116OSM    O1412095   2.463   2.585   5.984 -0.3907  0.0396  0.2225
  116OSM    O1112096   2.479   2.373   6.109 -0.1140 -0.1147 -0.2946
  116OSM    O1212097   2.602   2.406   5.888 -0.2298  0.1047  0.3279
  116OSM    C1S12098   2.458   2.415   6.246 -0.5069 -0.3616 -0.0494
  116OSM    H1S12099   2.376   2.489   6.253  1.3805  2.0345 -1.5902
  116OSM    H1T12100   2.545   2.467   6.292  1.7391 -2.4237 -1.7026
  116OSM     NF12101   2.396   2.345   6.474 -0.1958  0.8404  0.2717
  116OSM    HNF12102   2.457   2.314   6.547 -1.1897 -0.0326  0.7488
  116OSM    C2S12103   2.425   2.292   6.344  0.1752  0.4588  0.0390
  116OSM    H2S12104   2.329   2.252   6.305 -0.4891  2.8802 -0.9492
  116OSM    C3S12105   2.538   2.184   6.339 -0.1010 -0.5018  0.5484
  116OSM    H3S12106   2.631   2.245   6.344 -0.7554  0.4407  2.3047
  116OSM     O312107   2.560   2.120   6.208 -0.1585 -0.5166  0.3225
  116OSM    HO312108   2.499   2.173   6.157 -0.8847  0.9680  2.5576
  116OSM    C4S12109   2.546   2.074   6.444 -0.3895 -0.1905  0.8608
  116OSM    H4S12110   2.599   2.097   6.537  0.0093  2.1579  0.1113
  116OSM    C5S12111   2.489   1.953   6.426  0.4392 -0.1872 -0.1225
  116OSM    H5S12112   2.420   1.934   6.342 -0.4600 -1.3664  0.8645
  116OSM    C6S12113   2.474   1.842   6.526  0.3623  0.5719 -0.7736
  116OSM    H6S12114   2.540   1.756   6.502  1.2856  0.4367  1.9003
  116OSM    H6T12115   2.369   1.807   6.530  0.9788 -1.2892  0.5484
  116OSM    C7S12116   2.508   1.884   6.675  0.0378  0.0170 -0.3538
  116OSM    H7S12117   2.613   1.918   6.684  0.1553 -0.6571  1.0273
  116OSM    H7T12118   2.507   1.794   6.739  0.0571 -1.1372 -1.9150
  116OSM    C8S12119   2.426   1.993   6.732 -0.5386 -0.5041  0.2116
  116OSM    H8S12120   2.316   1.981   6.715 -0.2072  0.2793 -3.2666
  116OSM    H8T12121   2.450   2.086   6.674 -0.6023  0.7792  2.1565
  116OSM    C9S12122   2.459   2.034   6.879 -0.1764 -0.4456  0.5657
  116OSM    H9S12123   2.415   2.135   6.890 -1.3422 -1.1145  2.4253
  116OSM    H9T12124   2.568   2.034   6.900 -0.0592 -0.2937 -0.0153
  116OSM   C10S12125   2.391   1.933   6.975 -0.3430  0.2374  1.0529
  116OSM   H10S12126   2.415   1.826   6.961  0.1263 -0.0367  3.4940
  116OSM   H10T12127   2.281   1.946   6.963 -0.4359  0.6708  2.1881
  116OSM   C11S12128   2.427   1.964   7.120 -0.0556 -0.5719  0.6740
  116OSM   H11S12129   2.376   2.058   7.148  0.7475 -0.3251  1.3276
  116OSM   H11T12130   2.538   1.972   7.122 -0.0933  0.6455 -0.7009
  116OSM   C12S12131   2.401   1.846   7.212 -0.2656  0.1560 -0.0384
  116OSM   H12S12132   2.440   1.747   7.182 -1.0508  0.6960 -3.2358
  116OSM   H12T12133   2.294   1.824   7.231 -1.0756  1.1600 -2.9083
  116OSM   C13S12134   2.484   1.872   7.344 -0.2070  0.1763  0.4274
  116OSM   H13S12135   2.449   1.959   7.402 -0.8791  0.3445 -0.2224
  116OSM   H13T12136   2.589   1.891   7.314 -0.9694  3.8791 -0.3794
  116OSM   C14S12137   2.474   1.756   7.444 -0.2228 -1.3949  0.8554
  116OSM   H14S12138   2.535   1.672   7.406  1.1447  0.3654 -1.0948
  116OSM   H14T12139   2.368   1.723   7.453 -0.3682 -0.6685  2.0604
  116OSM   C15S12140   2.520   1.797   7.586  0.0601 -0.0580  0.2840
  116OSM   H15S12141   2.431   1.853   7.622  0.6429  0.8903  0.3110
  116OSM   H15T12142   2.617   1.852   7.592  0.2704 -0.3959  0.0251
  116OSM   C16S12143   2.523   1.674   7.674  0.5287  0.1074 -0.1169
  116OSM   H16S12144   2.605   1.608   7.639  0.0974 -0.0685 -0.8086
  116OSM   H16T12145   2.421   1.630   7.672  0.8608 -0.6825 -0.1629
  116OSM   C17S12146   2.546   1.720   7.814 -0.1732 -0.9289 -0.4755
  116OSM   H17S12147   2.475   1.805   7.815  1.1018  0.2896 -2.9949
  116OSM   H17T12148   2.644   1.771   7.822  0.1096 -1.3568 -1.0999
  116OSM   C18S12149   2.533   1.609   7.914  0.3804 -0.3105  0.5398
  116OSM   H18S12150   2.620   1.541   7.906  0.7941  0.3989 -1.4200
  116OSM   H18T12151   2.433   1.565   7.894 -0.1781  1.7186 -1.5640
  116OSM   H18U12152   2.531   1.647   8.019  0.1276  1.3243 -0.0279
  116OSM    C1F12153   2.292   2.410   6.516 -0.0571  0.1337 -0.3799
  116OSM     OF12154   2.196   2.429   6.446  0.4879 -0.8048  0.2125
  116OSM    C2F12155   2.294   2.464   6.649 -0.0464 -0.1772 -0.1612
  116OSM    H2F12156   2.256   2.568   6.644  0.9372  0.3827  2.3259
  116OSM    H2G12157   2.398   2.466   6.689  0.5891 -3.8958 -1.2386
  116OSM    C3F12158   2.205   2.384   6.754 -0.4596 -0.0001 -0.3652
  116OSM    H3F12159   2.253   2.286   6.777 -0.5415  0.3120  1.2288
  116OSM    H3G12160   2.105   2.360   6.712 -0.9173  0.7644  0.2716
  116OSM    C4F12161   2.185   2.454   6.889 -0.1430 -0.3814 -0.2412
  116OSM    H4F12162   2.179   2.565   6.879 -0.5944 -0.3834  0.0051
  116OSM    H4G12163   2.277   2.439   6.949  1.9867  0.8233 -2.9763
  116OSM    C5F12164   2.058   2.413   6.965  0.0096 -0.0579  0.9000
  116OSM    H5F12165   2.037   2.309   6.932  0.9442  0.2900 -0.9523
  116OSM    H5G12166   1.972   2.476   6.932  1.3962  1.0336 -0.8096
  116OSM    C6F12167   2.079   2.414   7.116  0.2388 -0.4357 -0.4334
  116OSM    H6F12168   2.082   2.522   7.146  0.7290 -0.1759 -1.3900
  116OSM    H6G12169   2.164   2.357   7.159 -2.0153 -1.2528  3.3772
  116OSM    C7F12170   1.954   2.352   7.186  0.8784 -0.6411 -0.1841
  116OSM    H7F12171   1.949   2.246   7.155 -1.0741 -0.0626 -1.9976
  116OSM    H7G12172   1.858   2.381   7.139  1.6670 -0.3316 -1.6462
  116OSM    C8F12173   1.943   2.373   7.341  0.6937 -0.6464 -0.1198
  116OSM    H8F12174   2.042   2.347   7.385  0.6727  0.9545  0.9639
  116OSM    H8G12175   1.865   2.306   7.382  0.9180 -0.6684  0.2683
  116OSM    C9F12176   1.915   2.525   7.371  0.5104 -0.0265 -0.0174
  116OSM    H9F12177   1.872   2.581   7.286 -2.5422 -1.8072  0.1859
  116OSM   C10F12178   1.949   2.587   7.486 -0.0856 -0.7776 -0.3333
  116OSM   H10F12179   1.919   2.691   7.507 -0.9759 -1.4263  1.8703
  116OSM   C11F12180   2.009   2.523   7.605 -0.1581 -0.0472 -0.3978
  116OSM   H11F12181   2.075   2.594   7.659 -0.2819 -0.2428  0.0104
  116OSM   H11G12182   2.058   2.425   7.585 -0.4776  0.0986 -2.1013
  116OSM   C12F12183   1.896   2.489   7.704  0.0589  0.0434 -0.0618
  116OSM   H12F12184   1.832   2.409   7.662  0.7609 -2.0378  2.5452
  116OSM   H12G12185   1.836   2.576   7.737  0.4863 -0.5665  2.5788
  116OSM   C13F12186   1.937   2.448   7.851 -0.4802  0.2163  0.4340
  116OSM   H13F12187   1.845   2.467   7.910 -1.7951 -0.0579 -1.4450
  116OSM   H13G12188   2.020   2.510   7.892  0.0934  0.8747 -1.5801
  116OSM   C14F12189   1.973   2.299   7.851 -0.0947 -0.3356 -0.0500
  116OSM   H14F12190   2.074   2.280   7.809 -0.9245 -0.8726 -1.8674
  116OSM   H14G12191   1.897   2.254   7.784  0.6467  0.3193 -1.3713
  116OSM   C15F12192   1.992   2.242   7.995  0.2903  0.2320 -0.2795
  116OSM   H15F12193   2.076   2.292   8.048 -0.9701 -0.8444  2.9724
  116OSM   H15G12194   2.028   2.137   7.986 -2.4381 -0.6565 -1.9541
  116OSM   C16F12195   1.873   2.250   8.091  0.1083 -0.1670 -0.2720
  116OSM   H16F12196   1.829   2.352   8.084 -1.3867 -0.7240  0.7626
  116OSM   H16G12197   1.911   2.254   8.195 -0.2119 -1.0554 -0.1131
  116OSM   C17F12198   1.759   2.149   8.067 -0.2523  0.0658  0.6227
  116OSM   H17F12199   1.746   2.131   7.958 -0.7279  1.4639  0.4249
  116OSM   H17G12200   1.665   2.193   8.108 -0.3775  1.2304 -0.8282
  116OSM   C18F12201   1.784   2.019   8.145  0.8925 -0.1967  0.7534
  116OSM   H18F12202   1.705   1.943   8.129  0.2019  0.7689 -0.6923
  116OSM   H18G12203   1.789   2.040   8.254 -0.8502  2.5468  0.3971
  116OSM   H18H12204   1.885   1.980   8.119  0.5389  0.5395 -2.1727
  117OSM      N12205   0.530   5.707   5.145 -0.0270 -0.3772 -0.7346
  117OSM    C1512206   0.419   5.698   5.045  0.3151  0.0417 -0.2891
  117OSM   H15A12207   0.459   5.655   4.954 -1.2213 -1.5488 -0.2709
  117OSM   H15B12208   0.372   5.793   5.029 -0.0120 -0.3102 -1.5262
  117OSM   H15C12209   0.341   5.628   5.070  1.6058 -1.7428 -0.9672
  117OSM    C1412210   0.591   5.573   5.165 -0.2456  0.5185 -0.6321
  117OSM   H14A12211   0.515   5.501   5.193  0.5979 -0.5228 -0.9819
  117OSM   H14B12212   0.660   5.588   5.247 -0.1624  1.9338 -0.9376
  117OSM   H14C12213   0.648   5.541   5.079 -0.2231 -0.1947 -0.3557
  117OSM    C1312214   0.635   5.798   5.095 -0.2775  0.6533 -0.2110
  117OSM   H13A12215   0.702   5.829   5.174  0.8479  2.1318 -1.6817
  117OSM   H13B12216   0.591   5.895   5.077 -0.5697  0.8903  1.5522
  117OSM   H13C12217   0.692   5.751   5.016  0.8897  2.2708 -0.3867
  117OSM    C1212218   0.474   5.757   5.278  0.1396  0.1256 -0.2384
  117OSM   H12A12219   0.380   5.708   5.296  0.1946  0.1064 -0.0018
  117OSM   H12B12220   0.444   5.861   5.280 -0.8968 -0.1748  0.4052
  117OSM    C1112221   0.567   5.735   5.406  0.4196 -0.6888  0.4421
  117OSM   H11A12222   0.557   5.630   5.442  0.6697 -0.7519  0.3334
  117OSM   H11B12223   0.519   5.785   5.493  1.8399 -0.7359  1.3074
  117OSM      P12224   0.773   5.895   5.455  0.1697 -0.4130  0.3617
  117OSM    O1312225   0.919   5.897   5.426  0.2503 -0.1624  0.3852
  117OSM    O1412226   0.708   6.026   5.433 -0.1555  0.7199  0.4014
  117OSM    O1112227   0.769   5.865   5.604  0.6623 -0.2983 -0.0278
  117OSM    O1212228   0.707   5.768   5.385 -0.1115  0.0223 -0.1114
  117OSM    C1S12229   0.809   5.737   5.658 -0.4216 -0.4020 -0.0846
  117OSM    H1S12230   0.919   5.733   5.645 -0.4978 -2.9964 -0.4474
  117OSM    H1T12231   0.758   5.653   5.604  2.1996  0.0741 -3.6727
  117OSM     NF12232   0.816   5.610   5.862 -0.0321 -0.3660  0.0451
  117OSM    HNF12233   0.746   5.539   5.849  1.3058 -1.6820 -0.2848
  117OSM    C2S12234   0.769   5.733   5.812  0.0075  0.1106 -0.6800
  117OSM    H2S12235   0.826   5.818   5.856  2.1393 -0.6072 -1.8636
  117OSM    C3S12236   0.617   5.762   5.836  0.0391  0.5523 -0.4967
  117OSM    H3S12237   0.553   5.687   5.785 -0.1065  0.6031 -0.3872
  117OSM     O312238   0.571   5.876   5.773  0.3367 -0.2305  0.0135
  117OSM    HO312239   0.638   5.899   5.708 -1.6583  1.4795 -1.5642
  117OSM    C4S12240   0.584   5.753   5.981 -0.1177 -0.0592  0.2163
  117OSM    H4S12241   0.549   5.649   5.994  1.4269 -0.4688  1.4273
  117OSM    C5S12242   0.582   5.846   6.081  0.3460 -0.2341 -0.3358
  117OSM    H5S12243   0.601   5.952   6.062  2.3508 -0.1966  1.5248
  117OSM    C6S12244   0.517   5.790   6.205 -0.0094 -0.1793 -0.5526
  117OSM    H6S12245   0.501   5.681   6.212 -1.8093  0.0040 -1.4170
  117OSM    H6T12246   0.418   5.837   6.225 -0.4673 -0.4562 -2.0655
  117OSM    C7S12247   0.606   5.842   6.321 -0.1974 -0.4697  0.2127
  117OSM    H7S12248   0.608   5.953   6.318  0.4811 -0.4729 -2.9893
  117OSM    H7T12249   0.710   5.807   6.300 -0.4292  0.1335 -2.1837
  117OSM    C8S12250   0.561   5.785   6.457 -0.3812  0.1906 -0.1158
  117OSM    H8S12251   0.571   5.675   6.451  0.1149  0.1843  0.6957
  117OSM    H8T12252   0.457   5.819   6.475 -0.4167 -0.5239  1.1014
  117OSM    C9S12253   0.646   5.811   6.583  0.0141  0.2331 -0.4481
  117OSM    H9S12254   0.635   5.916   6.618  0.9587  0.4223 -0.6875
  117OSM    H9T12255   0.754   5.804   6.558  0.4081  1.3750  0.7851
  117OSM   C10S12256   0.616   5.713   6.698  0.1357 -0.1131  0.2080
  117OSM   H10S12257   0.638   5.606   6.676  0.0674 -0.0490 -0.1713
  117OSM   H10T12258   0.508   5.710   6.725  0.5476 -2.4977  1.9758
  117OSM   C11S12259   0.692   5.749   6.831  0.5519 -0.2446 -0.9872
  117OSM   H11S12260   0.665   5.854   6.852  0.4496 -0.6303  1.0023
  117OSM   H11T12261   0.803   5.741   6.826  0.5328 -2.4969  0.5040
  117OSM   C12S12262   0.650   5.660   6.947 -0.1209 -0.1865  0.1609
  117OSM   H12S12263   0.696   5.559   6.934 -0.8719 -1.1155  3.5774
  117OSM   H12T12264   0.545   5.623   6.949  1.0973 -4.1719  2.9468
  117OSM   C13S12265   0.693   5.721   7.081  0.1547 -0.0156  0.0392
  117OSM   H13S12266   0.662   5.828   7.077 -1.0082 -0.3612 -3.7488
  117OSM   H13T12267   0.804   5.715   7.093  0.1297  0.3569  0.5173
  117OSM   C14S12268   0.616   5.663   7.199 -0.4466  0.0836 -0.2181
  117OSM   H14S12269   0.659   5.561   7.205  0.4870  0.3253 -2.1412
  117OSM   H14T12270   0.507   5.677   7.183 -0.4509 -0.3247 -0.5498
  117OSM   C15S12271   0.668   5.725   7.330  0.2878  0.6085  0.7666
  117OSM   H15S12272   0.584   5.719   7.403 -0.1014  2.4176  0.5215
  117OSM   H15T12273   0.678   5.834   7.316 -0.2076  0.6916  1.0313
  117OSM   C16S12274   0.796   5.662   7.385 -0.3193 -0.1531 -0.5376
  117OSM   H16S12275   0.829   5.744   7.452 -1.0955  1.5227 -2.1218
  117OSM   H16T12276   0.881   5.647   7.316  2.3331  0.5613  2.3656
  117OSM   C17S12277   0.780   5.539   7.479 -0.5422 -0.0377  0.0547
  117OSM   H17S12278   0.716   5.562   7.567  2.0562 -0.8031  2.2491
  117OSM   H17T12279   0.886   5.524   7.506  0.1306  3.8190  0.0302
  117OSM   C18S12280   0.715   5.406   7.429 -0.2502 -0.1556  0.5610
  117OSM   H18S12281   0.691   5.334   7.510 -2.4555  0.2062  0.3066
  117OSM   H18T12282   0.781   5.372   7.347 -0.9433  0.2279 -0.1617
  117OSM   H18U12283   0.614   5.439   7.398 -0.6966 -2.1489 -0.2213
  117OSM    C1F12284   0.945   5.566   5.862  0.4195 -0.0550  0.6466
  117OSM     OF12285   1.036   5.652   5.862  0.2863  0.0805 -0.8832
  117OSM    C2F12286   0.978   5.417   5.865 -0.0355 -0.2480 -0.1162
  117OSM    H2F12287   0.921   5.366   5.785  0.7519 -0.7351 -0.3735
  117OSM    H2G12288   0.934   5.374   5.957  0.5896  0.5745  0.5870
  117OSM    C3F12289   1.133   5.408   5.850  0.0389  0.9168  0.2084
  117OSM    H3F12290   1.160   5.479   5.769  1.3759  1.2638  0.9305
  117OSM    H3G12291   1.156   5.307   5.811 -1.2362  0.4840  0.5142
  117OSM    C4F12292   1.215   5.429   5.965 -0.0845  0.1814  0.2948
  117OSM    H4F12293   1.201   5.535   5.994 -0.6194 -0.5655  2.9615
  117OSM    H4G12294   1.321   5.413   5.935 -0.3026 -1.4325  0.2952
  117OSM    C5F12295   1.198   5.318   6.070 -0.6651 -0.4670 -0.1572
  117OSM    H5F12296   1.187   5.216   6.027 -0.3394  0.6151 -2.9871
  117OSM    H5G12297   1.096   5.338   6.110 -0.7651  2.3263 -1.5871
  117OSM    C6F12298   1.304   5.322   6.182  0.1456  0.9284 -0.1168
  117OSM    H6F12299   1.282   5.411   6.244  0.2368  0.4677  0.5905
  117OSM    H6G12300   1.409   5.338   6.148 -0.2921  4.3200 -0.1844
  117OSM    C7F12301   1.309   5.193   6.262  0.6205 -0.2090  0.2805
  117OSM    H7F12302   1.324   5.104   6.196  0.2559 -1.0829  1.3320
  117OSM    H7G12303   1.209   5.189   6.310 -0.0419 -0.4274 -1.0743
  117OSM    C8F12304   1.411   5.193   6.371  0.2723  0.0561 -0.7058
  117OSM    H8F12305   1.362   5.126   6.445 -0.7355 -0.1787 -1.5540
  117OSM    H8G12306   1.435   5.290   6.418  1.3576 -2.0193  3.5350
  117OSM    C9F12307   1.536   5.114   6.333  0.2141 -0.2393  0.6123
  117OSM    H9F12308   1.523   5.016   6.285  0.9942 -0.5046  0.9448
  117OSM   C10F12309   1.663   5.167   6.328  0.2514 -0.1329  0.5017
  117OSM   H10F12310   1.750   5.100   6.321  1.8627  1.5929  2.3109
  117OSM   C11F12311   1.715   5.306   6.364 -0.3573  1.2362 -0.3651
  117OSM   H11F12312   1.805   5.304   6.429  0.3489  1.9839 -1.2855
  117OSM   H11G12313   1.633   5.361   6.415 -1.0903  0.2947 -0.5074
  117OSM   C12F12314   1.747   5.378   6.237  0.7637 -0.1618  0.1356
  117OSM   H12F12315   1.660   5.370   6.168  0.0728  0.4714  0.9265
  117OSM   H12G12316   1.827   5.325   6.182  1.0296  1.1580 -0.8085
  117OSM   C13F12317   1.782   5.525   6.256 -0.2899  0.6525 -0.1666
  117OSM   H13F12318   1.863   5.527   6.332 -0.8529  1.0260  0.4301
  117OSM   H13G12319   1.694   5.571   6.304 -0.0917  1.5398 -0.6268
  117OSM   C14F12320   1.802   5.604   6.128  0.1542 -0.2536 -0.3260
  117OSM   H14F12321   1.897   5.578   6.077  0.7411 -1.1108  1.1400
  117OSM   H14G12322   1.811   5.713   6.150 -0.2470  0.1164 -1.9183
  117OSM   C15F12323   1.705   5.589   6.010  0.7107 -0.8396  0.5649
  117OSM   H15F12324   1.598   5.604   6.037  0.7376  0.0151  0.2165
  117OSM   H15G12325   1.705   5.487   5.967  0.4744 -0.3155 -0.7137
  117OSM   C16F12326   1.727   5.687   5.896  0.5835 -0.0906 -0.1958
  117OSM   H16F12327   1.838   5.696   5.887  0.5833 -0.2789 -0.3760
  117OSM   H16G12328   1.697   5.791   5.921  1.7838  0.5306 -1.2055
  117OSM   C17F12329   1.664   5.656   5.761 -0.0381  0.2130 -0.0661
  117OSM   H17F12330   1.725   5.577   5.713  0.2173 -0.7484  1.7448
  117OSM   H17G12331   1.560   5.620   5.777  0.1578 -0.0559  0.5948
  117OSM   C18F12332   1.639   5.766   5.665  1.0673 -0.2637 -0.5952
  117OSM   H18F12333   1.613   5.733   5.562  2.0471 -1.4921 -0.4720
  117OSM   H18G12334   1.734   5.820   5.645  0.9000  0.6327  0.8901
  117OSM   H18H12335   1.568   5.845   5.695  0.4793  1.0869 -4.7947
  118OSM      N12336   3.508   4.202   5.464  0.5424  0.1781 -0.2552
  118OSM    C1512337   3.569   4.318   5.402  0.8276 -0.1326 -0.6351
  118OSM   H15A12338   3.530   4.321   5.301 -1.1555 -0.4547  0.0568
  118OSM   H15B12339   3.676   4.311   5.398  0.8163 -1.8501  0.7054
  118OSM   H15C12340   3.536   4.409   5.450  1.0515 -1.0020  1.2253
  118OSM    C1412341   3.368   4.189   5.414 -0.3638 -0.3451 -0.3584
  118OSM   H14A12342   3.304   4.118   5.465  2.3408 -3.2916 -0.7510
  118OSM   H14B12343   3.372   4.168   5.308  0.9973 -0.2261 -0.3469
  118OSM   H14C12344   3.328   4.286   5.439  0.1748 -0.1638 -0.1711
  118OSM    C1312345   3.580   4.081   5.412  0.0666  0.2641  0.1818
  118OSM   H13A12346   3.580   4.079   5.304 -0.8257 -0.8593  0.1781
  118OSM   H13B12347   3.533   3.991   5.450 -1.2988  0.9768  0.2499
  118OSM   H13C12348   3.679   4.071   5.454 -0.4001 -0.5982  1.1238
  118OSM    C1212349   3.511   4.209   5.617  0.7112 -0.1358  0.0220
  118OSM   H12A12350   3.616   4.195   5.641  0.7956  1.4103  0.6504
  118OSM   H12B12351   3.462   4.118   5.648 -0.8228  0.8991  0.7635
  118OSM    C1112352   3.455   4.326   5.701 -0.3971  0.6771  0.2817
  118OSM   H11A12353   3.502   4.420   5.665 -0.7042  1.4360  1.7473
  118OSM   H11B12354   3.499   4.322   5.803  1.5888  0.3557 -0.5444
  118OSM      P12355   3.233   4.237   5.782 -0.0073 -0.4325 -0.5558
  118OSM    O1312356   3.090   4.285   5.799  0.0638  0.1084 -0.1862
  118OSM    O1412357   3.255   4.101   5.728  0.0137  0.4638 -0.1675
  118OSM    O1112358   3.281   4.233   5.935 -0.2815 -0.3071  0.2319
  118OSM    O1212359   3.314   4.344   5.701  0.4367  0.3255 -0.0552
  118OSM    C1S12360   3.290   4.352   6.015  0.5247 -0.5539 -0.6071
  118OSM    H1S12361   3.234   4.434   5.965  1.3920 -0.8538 -2.1394
  118OSM    H1T12362   3.396   4.384   6.023  0.2696  0.3107 -0.6052
  118OSM     NF12363   3.225   4.452   6.228 -0.4718  0.3235  0.6305
  118OSM    HNF12364   3.303   4.468   6.289 -0.2999 -0.5264  0.6359
  118OSM    C2S12365   3.228   4.330   6.159  0.2436  0.4984  0.1866
  118OSM    H2S12366   3.124   4.290   6.156 -0.1616  1.2585  2.3970
  118OSM    C3S12367   3.323   4.223   6.228  0.9100  0.2352  0.1491
  118OSM    H3S12368   3.426   4.263   6.220  0.9438 -0.1040 -1.2467
  118OSM     O312369   3.333   4.092   6.176 -0.4194 -0.6301  0.5371
  118OSM    HO312370   3.292   4.096   6.089  3.7256 -2.3157 -1.7561
  118OSM    C4S12371   3.285   4.218   6.377  0.3394 -0.0581  0.4553
  118OSM    H4S12372   3.179   4.218   6.407  0.1781  0.6908 -0.0861
  118OSM    C5S12373   3.368   4.240   6.481 -0.4483 -0.0453 -0.4318
  118OSM    H5S12374   3.474   4.266   6.463  1.5985 -2.3237  5.6151
  118OSM    C6S12375   3.327   4.263   6.628  0.6388  0.9298 -0.8310
  118OSM    H6S12376   3.315   4.370   6.652 -2.2496  0.6885 -0.7736
  118OSM    H6T12377   3.407   4.232   6.698  0.6251 -0.3138 -1.3391
  118OSM    C7S12378   3.197   4.196   6.668 -0.0813 -0.3967 -0.3954
  118OSM    H7S12379   3.205   4.085   6.658 -0.3438 -0.4600  0.0796
  118OSM    H7T12380   3.111   4.222   6.603 -1.8747 -1.1810  1.5423
  118OSM    C8S12381   3.166   4.214   6.819  0.5760  0.1148 -0.0388
  118OSM    H8S12382   3.158   4.325   6.831 -2.2424 -0.1186  1.0565
  118OSM    H8T12383   3.261   4.181   6.865  0.6490 -1.3663 -1.1740
  118OSM    C9S12384   3.038   4.141   6.885  0.4390  0.4366  0.2790
  118OSM    H9S12385   3.032   4.032   6.865 -0.0289  0.3213  1.0248
  118OSM    H9T12386   2.951   4.205   6.858  1.5625  2.3265  0.9146
  118OSM   C10S12387   3.040   4.141   7.036 -0.5914 -0.0170 -0.5463
  118OSM   H10S12388   3.095   4.056   7.081 -2.9898 -0.5037  1.6910
  118OSM   H10T12389   2.939   4.121   7.078 -1.8103  3.3957 -1.5616
  118OSM   C11S12390   3.086   4.268   7.100 -0.6207 -0.7893  0.2248
  118OSM   H11S12391   3.020   4.351   7.067  0.7984  0.5078  0.5067
  118OSM   H11T12392   3.194   4.287   7.079 -0.5151  2.9616  3.0382
  118OSM   C12S12393   3.075   4.283   7.253 -0.0045  0.7362  0.2367
  118OSM   H12S12394   2.967   4.289   7.278  0.1338  0.7238  0.8535
  118OSM   H12T12395   3.115   4.378   7.294  3.0453 -0.9662  1.5465
  118OSM   C13S12396   3.138   4.162   7.323  0.1424 -1.1169  0.4144
  118OSM   H13S12397   3.240   4.156   7.280  0.0577  0.3384 -0.0396
  118OSM   H13T12398   3.086   4.067   7.296 -1.6038  0.0148 -0.3380
  118OSM   C14S12399   3.134   4.166   7.472  0.2533 -0.2648  0.0431
  118OSM   H14S12400   3.036   4.196   7.516  0.5832  1.1681 -0.1381
  118OSM   H14T12401   3.200   4.248   7.508 -2.4381  1.6320  0.9716
  118OSM   C15S12402   3.181   4.033   7.541 -0.6735  0.0599 -0.6626
  118OSM   H15S12403   3.094   3.965   7.524  0.9523 -1.5520 -3.1436
  118OSM   H15T12404   3.204   4.048   7.649 -0.0600 -0.2618 -0.7485
  118OSM   C16S12405   3.303   3.956   7.483  0.4050 -0.5005  0.0045
  118OSM   H16S12406   3.390   4.025   7.482 -0.3639  0.5039 -1.3644
  118OSM   H16T12407   3.289   3.915   7.380 -1.9101 -0.3352  0.1950
  118OSM   C17S12408   3.338   3.844   7.574 -0.7336 -0.7029  0.5559
  118OSM   H17S12409   3.336   3.880   7.680 -1.1465  0.1314  0.2737
  118OSM   H17T12410   3.438   3.803   7.548 -1.2426 -0.5021 -1.9144
  118OSM   C18S12411   3.241   3.732   7.560  0.1758  0.5914  0.3745
  118OSM   H18S12412   3.135   3.765   7.569  0.1050  0.8491 -1.2187
  118OSM   H18T12413   3.260   3.655   7.638 -1.3602 -1.4401 -1.1510
  118OSM   H18U12414   3.262   3.694   7.458  0.7681  3.0852 -0.5095
  118OSM    C1F12415   3.138   4.544   6.205  0.0116  0.0120  0.2774
  118OSM     OF12416   3.043   4.515   6.135 -0.4186 -0.5823  0.0826
  118OSM    C2F12417   3.170   4.680   6.262 -0.3931  0.1971 -0.2430
  118OSM    H2F12418   3.182   4.741   6.170 -0.0581 -2.0663 -1.8040
  118OSM    H2G12419   3.262   4.679   6.323 -0.7251  2.8601  0.4217
  118OSM    C3F12420   3.051   4.749   6.338  0.7257  1.1087 -0.0165
  118OSM    H3F12421   2.957   4.734   6.281  1.4380  1.6840 -1.3894
  118OSM    H3G12422   3.062   4.859   6.340 -0.8073  1.2739  0.7900
  118OSM    C4F12423   3.052   4.709   6.485  0.9631 -0.3395 -0.1023
  118OSM    H4F12424   3.157   4.734   6.510  2.3887 -0.7050 -4.8872
  118OSM    H4G12425   3.035   4.599   6.495  1.3106 -0.4120 -0.3146
  118OSM    C5F12426   2.946   4.786   6.566  0.4970 -0.1656  0.2786
  118OSM    H5F12427   2.842   4.748   6.553 -0.3067  2.3738 -1.5670
  118OSM    H5G12428   2.942   4.893   6.534 -1.8474 -0.3015 -0.0580
  118OSM    C6F12429   2.982   4.793   6.713 -0.2444 -0.4562  0.3614
  118OSM    H6F12430   2.898   4.850   6.757 -0.3331 -1.6788  1.8349
  118OSM    H6G12431   3.078   4.847   6.727  0.0731 -0.4956 -1.3781
  118OSM    C7F12432   2.987   4.660   6.783 -0.4796  0.4001 -0.1752
  118OSM    H7F12433   3.071   4.601   6.741 -1.4421  0.2907 -2.0616
  118OSM    H7G12434   2.895   4.607   6.749 -0.2127 -0.7808  0.8919
  118OSM    C8F12435   2.986   4.680   6.943  0.3018  0.2996  0.5952
  118OSM    H8F12436   2.986   4.580   6.990  3.8432 -0.2797 -0.4042
  118OSM    H8G12437   2.888   4.722   6.975  0.1949  0.3656  0.1902
  118OSM    C9F12438   3.116   4.751   6.983 -0.0653 -0.5949  0.0028
  118OSM    H9F12439   3.185   4.779   6.902 -1.5002  0.2541 -0.9956
  118OSM   C10F12440   3.155   4.749   7.110 -1.1388 -0.3433  0.3396
  118OSM   H10F12441   3.241   4.813   7.133  0.1122 -1.5492 -0.7571
  118OSM   C11F12442   3.081   4.705   7.225 -0.3602  0.3891 -0.0215
  118OSM   H11F12443   3.130   4.616   7.269 -1.4127 -0.6676 -0.8914
  118OSM   H11G12444   2.979   4.673   7.192 -0.0846  1.4574 -2.1082
  118OSM   C12F12445   3.057   4.812   7.338  0.2716 -0.2554  0.1197
  118OSM   H12F12446   3.030   4.915   7.308 -1.1524 -1.1570 -1.9145
  118OSM   H12G12447   3.157   4.807   7.386  0.4403 -2.0009 -0.3396
  118OSM   C13F12448   2.948   4.765   7.437  0.1241 -0.1841  0.0057
  118OSM   H13F12449   2.843   4.779   7.402  0.1027 -1.7708 -0.6381
  118OSM   H13G12450   2.956   4.831   7.526 -1.7196  1.4113 -0.9241
  118OSM   C14F12451   2.955   4.617   7.481  0.0888 -0.6050  0.2772
  118OSM   H14F12452   3.062   4.591   7.491  0.7288  1.9521  0.6926
  118OSM   H14G12453   2.915   4.542   7.409 -0.3747 -1.7388  1.6609
  118OSM   C15F12454   2.893   4.593   7.616  0.3712 -0.2411 -0.2247
  118OSM   H15F12455   2.912   4.687   7.673 -1.2817 -0.3011  0.4868
  118OSM   H15G12456   2.948   4.509   7.663 -0.0952 -0.5962 -0.3118
  118OSM   C16F12457   2.747   4.563   7.625 -0.1698 -0.0787 -0.3772
  118OSM   H16F12458   2.682   4.638   7.575  0.9706  2.0940  1.2021
  118OSM   H16G12459   2.721   4.560   7.733 -0.6754 -0.0791 -0.4992
  118OSM   C17F12460   2.717   4.426   7.564  0.6547 -0.1138  0.4585
  118OSM   H17F12461   2.782   4.349   7.611 -1.7501 -2.3805  0.3449
  118OSM   H17G12462   2.733   4.431   7.454 -0.1330  2.9375  0.3957
  118OSM   C18F12463   2.577   4.368   7.603 -0.2433 -0.1659  0.3509
  118OSM   H18F12464   2.590   4.258   7.609 -0.3823 -0.1555  0.9098
  118OSM   H18G12465   2.495   4.388   7.531 -0.9193  2.5271  1.7012
  118OSM   H18H12466   2.547   4.408   7.702  1.2353 -1.5148  1.3801
  119OSM      N12467   4.204   6.670   5.529 -0.4617 -0.4196  0.2244
  119OSM    C1512468   4.127   6.797   5.493  0.2488 -0.2756  0.7157
  119OSM   H15A12469   4.024   6.793   5.525 -0.1941 -1.8565 -0.7501
  119OSM   H15B12470   4.130   6.816   5.386  0.3226  2.7324  1.1634
  119OSM   H15C12471   4.175   6.886   5.531  0.8963  0.3035 -1.2989
  119OSM    C1412472   4.115   6.564   5.506 -0.0652  0.2001 -0.2474
  119OSM   H14A12473   4.021   6.574   5.559 -1.3781  3.3456 -2.8329
  119OSM   H14B12474   4.162   6.472   5.539 -2.5936 -0.9917  0.3429
  119OSM   H14C12475   4.097   6.555   5.400  1.4908  0.4629 -0.5492
  119OSM    C1312476   4.318   6.655   5.435  0.2636  0.4427 -0.2239
  119OSM   H13A12477   4.385   6.736   5.461  1.8956 -1.3033  1.2822
  119OSM   H13B12478   4.297   6.669   5.330 -0.5364  0.7027 -0.0377
  119OSM   H13C12479   4.383   6.570   5.448 -0.9247 -0.4538 -0.0899
  119OSM    C1212480   4.236   6.673   5.677 -0.2423 -0.7454  0.3514
  119OSM   H12A12481   4.154   6.708   5.737  0.0803  2.7487 -1.0112
  119OSM   H12B12482   4.314   6.743   5.703 -0.0454 -0.6375 -0.5137
  119OSM    C1112483   4.285   6.543   5.740  0.6591  0.1095 -0.0550
  119OSM   H11A12484   4.328   6.559   5.841 -0.0862 -0.9564  0.4454
  119OSM   H11B12485   4.368   6.506   5.676 -0.9619 -0.7231 -1.7689
  119OSM      P12486   4.084   6.452   5.876  0.1597  0.5669 -0.0313
  119OSM    O1312487   4.068   6.595   5.911 -0.1379  0.1035 -0.1276
  119OSM    O1412488   3.964   6.368   5.850  0.0084  0.1480  0.1337
  119OSM    O1112489   4.169   6.376   5.973 -0.5892  0.0734 -0.3972
  119OSM    O1212490   4.177   6.454   5.751  0.0621  0.1546 -0.0923
  119OSM    C1S12491   4.139   6.250   6.033 -0.4422  0.5569  0.1237
  119OSM    H1S12492   4.130   6.165   5.962  0.9668  0.2020  0.3502
  119OSM    H1T12493   4.036   6.254   6.073 -0.9190  1.0808 -1.0926
  119OSM     NF12494   4.205   6.074   6.185 -0.0580 -0.2641 -0.0238
  119OSM    HNF12495   4.152   6.066   6.269  0.3917  3.4823  0.7865
  119OSM    C2S12496   4.234   6.208   6.146  0.4330 -0.0938 -0.9282
  119OSM    H2S12497   4.336   6.203   6.102  0.9280  1.7369 -0.0519
  119OSM    C3S12498   4.234   6.316   6.258  0.2790 -0.0817  0.1471
  119OSM    H3S12499   4.137   6.318   6.312  0.3819  0.7084  0.3247
  119OSM     O312500   4.247   6.441   6.206  0.1283 -0.2889 -0.4415
  119OSM    HO312501   4.229   6.428   6.113  1.6532  1.3273 -1.0220
  119OSM    C4S12502   4.348   6.301   6.350 -0.2118 -0.2762  0.9237
  119OSM    H4S12503   4.447   6.297   6.303 -0.0042  0.2966  1.3074
  119OSM    C5S12504   4.345   6.306   6.481  0.3613  0.0071 -0.6081
  119OSM    H5S12505   4.248   6.307   6.534  0.8001 -0.9960  0.2630
  119OSM    C6S12506   4.461   6.319   6.574  0.3859 -0.2515 -0.7858
  119OSM    H6S12507   4.479   6.424   6.605  1.7813 -1.1796  1.9005
  119OSM    H6T12508   4.560   6.282   6.539  1.8664 -0.3216  2.9762
  119OSM    C7S12509   4.432   6.232   6.700 -0.4359 -1.1477 -0.2960
  119OSM    H7S12510   4.426   6.126   6.668 -1.1444 -0.8139 -1.3450
  119OSM    H7T12511   4.336   6.263   6.746  0.0601 -1.1287  0.7507
  119OSM    C8S12512   4.534   6.236   6.815 -0.4268 -0.0038 -0.4084
  119OSM    H8S12513   4.544   6.337   6.860  0.8989 -0.3642  0.1452
  119OSM    H8T12514   4.633   6.204   6.777 -0.2715  0.3485 -0.3083
  119OSM    C9S12515   4.499   6.143   6.926 -0.2283 -0.2456 -1.0688
  119OSM    H9S12516   4.484   6.040   6.886 -2.3013 -1.3827  2.2407
  119OSM    H9T12517   4.400   6.174   6.964  1.1911  1.3580  1.6126
  119OSM   C10S12518   4.605   6.153   7.040  0.1232  0.6196 -0.3779
  119OSM   H10S12519   4.617   6.258   7.072 -0.5114  0.8501 -0.8698
  119OSM   H10T12520   4.700   6.109   7.001  0.4420  0.9032  0.0854
  119OSM   C11S12521   4.565   6.053   7.158 -0.0348 -0.1141  0.4015
  119OSM   H11S12522   4.577   5.944   7.138  1.0849 -0.4147  2.4811
  119OSM   H11T12523   4.473   6.095   7.204 -0.0735  2.4576 -1.7683
  119OSM   C12S12524   4.658   6.065   7.279  0.0225  0.7685 -0.2938
  119OSM   H12S12525   4.664   6.170   7.316 -0.9907  0.4501  0.8664
  119OSM   H12T12526   4.756   6.035   7.238  1.0461 -1.2010  3.1685
  119OSM   C13S12527   4.616   5.962   7.391 -0.3975  0.1753  0.6973
  119OSM   H13S12528   4.589   5.865   7.344  0.7720  0.1804 -0.0185
  119OSM   H13T12529   4.525   6.010   7.432  0.3273  3.9704 -1.6025
  119OSM   C14S12530   4.708   5.956   7.510 -0.6459  0.7174 -0.5797
  119OSM   H14S12531   4.742   6.060   7.532  1.9709 -0.1202 -0.2977
  119OSM   H14T12532   4.794   5.900   7.467 -1.5562  1.9007 -4.2860
  119OSM   C15S12533   4.634   5.902   7.634 -0.1738 -0.3398 -0.3603
  119OSM   H15S12534   4.584   5.805   7.612 -1.0055 -0.1591  0.6157
  119OSM   H15T12535   4.545   5.968   7.643 -1.3679 -1.3680 -3.4223
  119OSM   C16S12536   4.705   5.903   7.770  0.3446  0.0262 -1.1600
  119OSM   H16S12537   4.738   6.005   7.797 -2.4784  0.1471  2.7198
  119OSM   H16T12538   4.792   5.835   7.766  0.3528 -0.0256 -0.4117
  119OSM   C17S12539   4.612   5.858   7.893 -0.1881 -0.8888 -0.2123
  119OSM   H17S12540   4.680   5.849   7.980 -0.0896 -1.1024 -0.3095
  119OSM   H17T12541   4.560   5.760   7.896 -2.4129  0.2098 -0.9613
  119OSM   C18S12542   4.511   5.963   7.935  0.2709  0.2011  0.3961
  119OSM   H18S12543   4.421   5.912   7.975  0.2596 -1.0718 -1.1815
  119OSM   H18T12544   4.473   6.015   7.845 -1.1569 -1.3252  0.0762
  119OSM   H18U12545   4.552   6.029   8.015  0.3646 -0.5875  1.0071
  119OSM    C1F12546   4.235   5.965   6.109 -0.1094 -0.0382  0.2806
  119OSM     OF12547   4.282   5.978   5.999 -0.3276 -0.1714 -0.4538
  119OSM    C2F12548   4.211   5.827   6.167  0.1682 -0.0331  0.5324
  119OSM    H2F12549   4.107   5.795   6.144 -0.1129  1.5606 -0.6137
  119OSM    H2G12550   4.219   5.831   6.277  0.3384 -1.1112  0.5749
  119OSM    C3F12551   4.313   5.719   6.113  0.2590  0.0859  0.8284
  119OSM    H3F12552   4.417   5.745   6.143  1.0059 -1.6401 -0.1163
  119OSM    H3G12553   4.317   5.716   6.002 -2.7693 -0.4371  0.6582
  119OSM    C4F12554   4.267   5.578   6.157  0.2021  0.4638 -0.0281
  119OSM    H4F12555   4.341   5.509   6.112 -0.9006 -0.7878  0.0221
  119OSM    H4G12556   4.169   5.558   6.108  0.8285  0.8260 -1.4574
  119OSM    C5F12557   4.243   5.565   6.307 -0.4216 -0.0040 -0.1026
  119OSM    H5F12558   4.213   5.458   6.312  0.1558 -0.2746 -1.8715
  119OSM    H5G12559   4.160   5.624   6.353 -2.2441 -2.0075 -0.6508
  119OSM    C6F12560   4.365   5.590   6.396 -0.3456  0.3011 -0.4294
  119OSM    H6F12561   4.380   5.700   6.406 -0.1117  0.3400 -1.1463
  119OSM    H6G12562   4.452   5.555   6.336 -0.0893 -0.7682  0.5273
  119OSM    C7F12563   4.361   5.512   6.527 -0.0840  0.4416 -0.2610
  119OSM    H7F12564   4.465   5.509   6.567 -0.2222 -1.4362  0.0282
  119OSM    H7G12565   4.332   5.407   6.507 -2.0102  0.1617  3.1885
  119OSM    C8F12566   4.266   5.567   6.631 -0.4449  0.4885 -0.4505
  119OSM    H8F12567   4.278   5.508   6.725  3.2048  1.6619  0.0041
  119OSM    H8G12568   4.162   5.554   6.595 -0.5018  1.5651 -0.6992
  119OSM    C9F12569   4.288   5.712   6.667 -0.0699  0.4302 -0.5751
  119OSM    H9F12570   4.357   5.775   6.608 -0.0637 -0.2138 -1.2709
  119OSM   C10F12571   4.241   5.766   6.779 -0.3240 -0.5168  0.8212
  119OSM   H10F12572   4.264   5.872   6.792  0.4841 -0.3632 -1.4752
  119OSM   C11F12573   4.179   5.702   6.902  0.3695 -0.2122 -0.4178
  119OSM   H11F12574   4.172   5.592   6.891 -1.7949 -0.3897  1.8290
  119OSM   H11G12575   4.076   5.743   6.913  1.6749  2.7289  2.8196
  119OSM   C12F12576   4.254   5.717   7.042 -0.0962  0.5579 -0.0289
  119OSM   H12F12577   4.238   5.817   7.089  2.3433  0.6103  0.8300
  119OSM   H12G12578   4.360   5.686   7.038  0.0409  0.9298  0.5730
  119OSM   C13F12579   4.192   5.610   7.148  0.3537 -0.8396  0.2034
  119OSM   H13F12580   4.207   5.506   7.112  1.7157 -0.7514  0.4462
  119OSM   H13G12581   4.084   5.625   7.166 -0.0261 -3.1619  0.1809
  119OSM   C14F12582   4.254   5.625   7.293  0.0866 -0.0975  0.2444
  119OSM   H14F12583   4.365   5.626   7.288  0.1501 -1.0673  1.2272
  119OSM   H14G12584   4.223   5.531   7.344 -1.5841  0.5607  0.5085
  119OSM   C15F12585   4.196   5.741   7.371  0.0833 -0.0847  0.7472
  119OSM   H15F12586   4.087   5.733   7.386  0.2427 -3.3710  0.9472
  119OSM   H15G12587   4.233   5.837   7.328  0.7530 -0.1650  1.1347
  119OSM   C16F12588   4.245   5.741   7.515  0.1107  0.0574 -0.1132
  119OSM   H16F12589   4.235   5.842   7.561 -1.3305  0.6920 -1.7192
  119OSM   H16G12590   4.351   5.707   7.514  0.6057  1.5131 -1.8666
  119OSM   C17F12591   4.162   5.640   7.593 -0.1969  0.2547 -0.0370
  119OSM   H17F12592   4.182   5.539   7.550 -0.3492 -0.1941  0.9048
  119OSM   H17G12593   4.053   5.658   7.607 -0.5802 -1.6046 -0.3036
  119OSM   C18F12594   4.203   5.621   7.743 -0.6292 -0.5394 -0.5069
  119OSM   H18F12595   4.312   5.641   7.754 -0.8411 -0.2712  1.3069
  119OSM   H18G12596   4.185   5.518   7.781 -0.3481  0.1871  1.6881
  119OSM   H18H12597   4.161   5.701   7.807  3.2466  1.0792  0.2605
  120OSM      N12598   3.865   2.858   5.961  0.6188  0.0698  0.7079
  120OSM    C1512599   3.759   2.810   5.865 -0.4794 -0.5537  0.3191
  120OSM   H15A12600   3.799   2.797   5.765 -0.0023  1.5564  0.1913
  120OSM   H15B12601   3.673   2.874   5.858 -2.5436 -3.3078 -1.8797
  120OSM   H15C12602   3.719   2.716   5.899 -0.1909 -0.2595  1.4977
  120OSM    C1412603   3.987   2.766   5.932  0.0629 -0.3715 -0.1152
  120OSM   H14A12604   3.962   2.666   5.965  2.2624 -1.7472 -2.2849
  120OSM   H14B12605   4.070   2.796   5.993 -0.0943 -3.5607  1.9142
  120OSM   H14C12606   4.004   2.749   5.827 -4.2871 -1.6738 -0.8316
  120OSM    C1312607   3.910   3.004   5.941 -0.3942  0.0373  0.4448
  120OSM   H13A12608   3.933   3.030   5.838  1.7671  0.6058  1.0228
  120OSM   H13B12609   3.991   3.038   6.003 -0.5058 -1.1188  1.2450
  120OSM   H13C12610   3.826   3.070   5.961  0.0918  0.6283  0.5617
  120OSM    C1212611   3.809   2.851   6.101  0.7621  0.0593 -0.1718
  120OSM   H12A12612   3.713   2.899   6.097  0.5932 -0.1976  0.6882
  120OSM   H12B12613   3.860   2.918   6.168  1.2889 -0.8746  0.3900
  120OSM    C1112614   3.789   2.715   6.167  0.1675  0.1177 -0.1151
  120OSM   H11A12615   3.767   2.721   6.275 -0.0437 -1.5932 -0.0275
  120OSM   H11B12616   3.884   2.658   6.153  0.1051 -0.0848  0.2685
  120OSM      P12617   3.538   2.621   6.129 -0.0527 -0.1122 -0.5459
  120OSM    O1312618   3.458   2.736   6.080 -0.6854  0.5353 -0.3249
  120OSM    O1412619   3.499   2.485   6.067  0.0543 -0.3130  0.4697
  120OSM    O1112620   3.539   2.618   6.287 -0.4546 -0.2851 -0.1918
  120OSM    O1212621   3.693   2.641   6.090  1.1840 -0.1429 -0.1726
  120OSM    C1S12622   3.592   2.517   6.375  0.6258 -0.3372  0.2456
  120OSM    H1S12623   3.690   2.475   6.346  1.5338 -0.2984  3.0254
  120OSM    H1T12624   3.516   2.437   6.365  0.6980 -0.3282 -0.4133
  120OSM     NF12625   3.657   2.483   6.616 -0.0799 -0.1300  0.6208
  120OSM    HNF12626   3.599   2.429   6.677 -1.2527 -0.2264 -0.5336
  120OSM    C2S12627   3.589   2.577   6.521 -0.0260 -0.4328 -0.9092
  120OSM    H2S12628   3.652   2.669   6.522 -1.1046  0.3680  1.8029
  120OSM    C3S12629   3.445   2.616   6.561  0.1729  0.5128 -0.0326
  120OSM    H3S12630   3.380   2.526   6.556 -1.2050  1.0742  3.9622
  120OSM     O312631   3.382   2.705   6.473  0.0949  0.2465 -0.3228
  120OSM    HO312632   3.425   2.688   6.389 -0.6447  0.3867 -0.7287
  120OSM    C4S12633   3.442   2.663   6.705 -0.4608  0.0199 -0.3711
  120OSM    H4S12634   3.405   2.590   6.779  0.4085 -2.4969 -2.2449
  120OSM    C5S12635   3.475   2.787   6.739  0.4144 -0.3205  0.2286
  120OSM    H5S12636   3.501   2.849   6.653  0.7322 -1.6663 -0.6765
  120OSM    C6S12637   3.481   2.855   6.875  0.5682 -0.3897  0.0024
  120OSM    H6S12638   3.393   2.920   6.892  1.9806  1.9664 -1.2200
  120OSM    H6T12639   3.569   2.921   6.887  0.4880 -0.0256 -1.2327
  120OSM    C7S12640   3.497   2.749   6.987 -0.1292 -0.3001 -0.2122
  120OSM    H7S12641   3.600   2.708   6.980 -0.2774 -0.3735 -4.2138
  120OSM    H7T12642   3.419   2.671   6.977 -0.8281  0.4152 -0.3432
  120OSM    C8S12643   3.482   2.822   7.126  0.2576  0.2272  1.0654
  120OSM    H8S12644   3.397   2.894   7.133 -0.1820 -0.3171  1.4902
  120OSM    H8T12645   3.576   2.872   7.156  0.6903 -0.3217  0.6315
  120OSM    C9S12646   3.471   2.712   7.233 -0.2666 -0.1163 -0.6164
  120OSM    H9S12647   3.560   2.647   7.221  0.1398 -0.0358  1.5851
  120OSM    H9T12648   3.383   2.648   7.208  0.5554 -1.6967  0.3368
  120OSM   C10S12649   3.456   2.769   7.377 -0.1011 -0.0993  0.3387
  120OSM   H10S12650   3.369   2.838   7.375  1.0372  1.4414  1.7145
  120OSM   H10T12651   3.543   2.832   7.403  0.2447 -0.1685 -0.6047
  120OSM   C11S12652   3.419   2.669   7.486  0.3366  0.4399  0.1458
  120OSM   H11S12653   3.498   2.591   7.487 -0.3368 -0.2838 -0.9544
  120OSM   H11T12654   3.313   2.634   7.480  0.3014  0.0777  2.0666
  120OSM   C12S12655   3.435   2.727   7.625 -0.5169  0.1596 -0.0904
  120OSM   H12S12656   3.404   2.834   7.618  0.3855  0.3285 -4.2398
  120OSM   H12T12657   3.541   2.714   7.653 -0.5605 -1.2374 -0.4820
  120OSM   C13S12658   3.367   2.649   7.729  0.0802 -0.0092 -0.0087
  120OSM   H13S12659   3.444   2.577   7.765  1.7757  1.8648  0.2681
  120OSM   H13T12660   3.272   2.602   7.694 -0.9839  1.0150  1.4043
  120OSM   C14S12661   3.313   2.737   7.846 -0.1625  0.2257  0.1966
  120OSM   H14S12662   3.246   2.672   7.905 -0.6307 -1.2352 -1.8419
  120OSM   H14T12663   3.261   2.825   7.802  0.8386  0.5828 -0.2989
  120OSM   C15S12664   3.424   2.797   7.941 -0.3296  0.1694 -0.1624
  120OSM   H15S12665   3.471   2.884   7.890 -0.0748 -0.0226 -0.2622
  120OSM   H15T12666   3.493   2.712   7.961 -0.5844  0.1258  0.5192
  120OSM   C16S12667   3.373   2.841   8.080  0.3298 -0.7346  0.0953
  120OSM   H16S12668   3.269   2.874   8.063  0.4349 -0.2955  0.2864
  120OSM   H16T12669   3.418   2.930   8.129 -0.7825  0.5935 -1.2115
  120OSM   C17S12670   3.381   2.737   8.185  0.4750  0.0895  0.2579
  120OSM   H17S12671   3.485   2.698   8.194  1.3813  1.8173 -1.9197
  120OSM   H17T12672   3.322   2.653   8.144 -0.1129 -0.7915  2.6901
  120OSM   C18S12673   3.312   2.775   8.319  0.3224 -0.0696  0.1829
  120OSM   H18S12674   3.204   2.800   8.311  0.1430 -1.0196 -0.6803
  120OSM   H18T12675   3.358   2.865   8.365  0.6954 -0.7152  1.0926
  120OSM   H18U12676   3.312   2.692   8.393 -1.0372  1.9752  2.6067
  120OSM    C1F12677   3.791   2.457   6.620  0.2611  0.9610 -0.1399
  120OSM     OF12678   3.866   2.483   6.531  0.0803  0.0302 -0.4774
  120OSM    C2F12679   3.838   2.387   6.741  0.1455  0.1159  0.0233
  120OSM    H2F12680   3.943   2.351   6.728  0.2063 -0.6429  2.1707
  120OSM    H2G12681   3.776   2.296   6.754 -0.4561  0.1031 -2.4527
  120OSM    C3F12682   3.820   2.471   6.873 -0.2883 -0.6586  0.4158
  120OSM    H3F12683   3.715   2.505   6.864  0.4507  1.5633 -0.7994
  120OSM    H3G12684   3.890   2.558   6.878  0.2456 -1.1034  0.8980
  120OSM    C4F12685   3.838   2.388   7.004 -0.0364 -0.5207 -0.1604
  120OSM    H4F12686   3.946   2.371   7.024 -0.2332 -0.2631  1.2396
  120OSM    H4G12687   3.783   2.293   6.991 -1.2203  0.0069  0.6981
  120OSM    C5F12688   3.781   2.455   7.134  0.3441  0.2865 -0.3609
  120OSM    H5F12689   3.670   2.459   7.127  0.4280  0.1227 -2.1761
  120OSM    H5G12690   3.812   2.561   7.142  0.4869  0.1570  1.1439
  120OSM    C6F12691   3.849   2.397   7.256  0.0202 -0.2623 -0.4331
  120OSM    H6F12692   3.957   2.420   7.242  0.0581  0.5017  0.9114
  120OSM    H6G12693   3.842   2.286   7.259  2.6711 -0.5000 -0.8156
  120OSM    C7F12694   3.806   2.465   7.389 -0.0218 -0.0106 -0.2544
  120OSM    H7F12695   3.696   2.465   7.406  0.0098 -2.7207  0.3899
  120OSM    H7G12696   3.838   2.571   7.399  0.5851 -0.3278  1.6980
  120OSM    C8F12697   3.877   2.397   7.506 -0.4103  0.6710 -0.2570
  120OSM    H8F12698   3.869   2.457   7.599  0.0558  1.0754 -0.4773
  120OSM    H8G12699   3.983   2.386   7.477 -0.6749 -4.0390 -0.2498
  120OSM    C9F12700   3.842   2.252   7.528 -0.3703 -0.2464  0.0127
  120OSM    H9F12701   3.906   2.177   7.478 -0.2124  0.5672 -1.0467
  120OSM   C10F12702   3.743   2.222   7.610 -0.5080 -0.3696  0.2525
  120OSM   H10F12703   3.721   2.116   7.632 -3.0400 -0.2622 -1.3148
  120OSM   C11F12704   3.661   2.306   7.703  0.0110  0.1598 -0.2361
  120OSM   H11F12705   3.552   2.290   7.686 -0.6244  0.2101  3.1827
  120OSM   H11G12706   3.676   2.415   7.690 -2.5231  0.6105  0.0856
  120OSM   C12F12707   3.694   2.279   7.851  0.7173 -0.5424 -0.9156
  120OSM   H12F12708   3.798   2.310   7.872  0.6511 -0.1636 -1.1394
  120OSM   H12G12709   3.684   2.170   7.870  2.1116 -0.9105 -2.1338
  120OSM   C13F12710   3.598   2.348   7.946  0.3795 -0.5861 -0.0431
  120OSM   H13F12711   3.502   2.363   7.892 -1.3815  0.6599  3.1504
  120OSM   H13G12712   3.632   2.449   7.977  0.6002 -0.0087 -2.0493
  120OSM   C14F12713   3.564   2.263   8.077  0.2966  0.2414 -0.5995
  120OSM   H14F12714   3.509   2.176   8.037 -0.4876  0.3639  0.1684
  120OSM   H14G12715   3.488   2.317   8.139  0.1945 -1.4901  0.8642
  120OSM   C15F12716   3.677   2.234   8.177 -1.2630 -0.1605 -0.1123
  120OSM   H15F12717   3.714   2.333   8.210  0.6637 -1.8296  3.1863
  120OSM   H15G12718   3.760   2.187   8.121  0.3937  2.9146 -0.4579
  120OSM   C16F12719   3.638   2.166   8.312 -0.2596  0.9472  0.8738
  120OSM   H16F12720   3.559   2.227   8.361  0.6246  1.3870  1.7998
  120OSM   H16G12721   3.724   2.177   8.382 -0.5617 -1.3099  1.6528
  120OSM   C17F12722   3.608   2.012   8.292  1.2137 -0.3194 -0.5984
  120OSM   H17F12723   3.693   1.967   8.236  2.9163  4.3078 -2.1472
  120OSM   H17G12724   3.516   1.996   8.232  0.5507  0.6162  0.1503
  120OSM   C18F12725   3.594   1.935   8.421 -0.2069  0.3104 -0.8218
  120OSM   H18F12726   3.531   1.990   8.494  0.5562 -1.6793  1.4830
  120OSM   H18G12727   3.691   1.905   8.466  0.3431 -1.3363 -2.9180
  120OSM   H18H12728   3.532   1.843   8.422 -0.1373  0.1665  2.5838
  121OSM      N12729   5.865   3.897   5.883  0.7729 -0.1229 -0.0297
  121OSM    C1512730   5.819   3.808   5.994  0.1904  0.4586  0.0137
  121OSM   H15A12731   5.726   3.849   6.031 -0.7713  0.6515 -2.4722
  121OSM   H15B12732   5.894   3.797   6.071  2.3166  2.5991 -1.5744
  121OSM   H15C12733   5.797   3.707   5.965  0.4203  1.3110 -3.5593
  121OSM    C1412734   5.975   3.834   5.807 -0.2461 -0.0214  0.1021
  121OSM   H14A12735   6.061   3.816   5.870  1.4651  2.5818 -1.3229
  121OSM   H14B12736   6.013   3.900   5.731 -0.3614 -0.0296  0.0367
  121OSM   H14C12737   5.949   3.739   5.762 -1.5908  0.5276 -0.3292
  121OSM    C1312738   5.747   3.912   5.787 -0.2264 -0.3729  0.2023
  121OSM   H13A12739   5.685   3.995   5.817  0.7557  0.7364 -0.7194
  121OSM   H13B12740   5.684   3.825   5.784 -1.3878  0.4157 -3.3524
  121OSM   H13C12741   5.776   3.932   5.685  1.1799  0.9824  0.8099
  121OSM    C1212742   5.909   4.033   5.939 -0.4618  0.0762  0.6073
  121OSM   H12A12743   5.930   4.101   5.857 -0.6595 -0.8450 -0.2241
  121OSM   H12B12744   6.003   4.023   5.991  0.3589  0.4034 -0.7550
  121OSM    C1112745   5.801   4.104   6.023  0.6005 -0.1294 -0.2071
  121OSM   H11A12746   5.786   4.047   6.118 -0.3640  0.7000  0.1499
  121OSM   H11B12747   5.703   4.115   5.974  0.3874  0.8983  0.4155
  121OSM      P12748   5.774   4.373   6.073  0.1255 -0.5110  0.3983
  121OSM    O1312749   5.841   4.472   6.156 -0.3822  0.8045 -0.5260
  121OSM    O1412750   5.740   4.411   5.936  0.1930 -0.3152  0.4588
  121OSM    O1112751   5.642   4.327   6.147 -0.2443  0.0400  0.5177
  121OSM    O1212752   5.855   4.239   6.061  0.1291  0.1666  0.6649
  121OSM    C1S12753   5.641   4.283   6.282  0.2781  0.5298 -0.0901
  121OSM    H1S12754   5.742   4.266   6.325  0.3089  1.3841  0.1959
  121OSM    H1T12755   5.584   4.188   6.290  0.4197  0.4542  0.0487
  121OSM     NF12756   5.573   4.330   6.518 -0.3254 -0.3801  0.4800
  121OSM    HNF12757   5.497   4.276   6.554  0.5366 -0.2826  2.5758
  121OSM    C2S12758   5.559   4.378   6.378  0.1459 -0.1099  0.1267
  121OSM    H2S12759   5.602   4.479   6.361  0.8628 -0.6340 -1.4500
  121OSM    C3S12760   5.415   4.387   6.324  0.8630 -0.3638 -0.0324
  121OSM    H3S12761   5.371   4.285   6.325  1.0812 -0.4991  2.5311
  121OSM     O312762   5.413   4.443   6.192  0.2338 -0.3947 -0.1954
  121OSM    HO312763   5.505   4.436   6.168  0.2978 -0.2261 -0.0024
  121OSM    C4S12764   5.329   4.485   6.406 -0.8111 -0.2299  0.2019
  121OSM    H4S12765   5.368   4.586   6.426  2.1370 -1.1415 -0.4659
  121OSM    C5S12766   5.213   4.455   6.463 -0.1781 -0.2067 -0.1646
  121OSM    H5S12767   5.183   4.350   6.451  1.3886 -0.5335 -1.6323
  121OSM    C6S12768   5.127   4.548   6.547  0.3408  0.2510  0.4369
  121OSM    H6S12769   5.040   4.492   6.586  0.6785 -0.1869  0.5712
  121OSM    H6T12770   5.094   4.631   6.480 -1.0320 -1.1465 -0.6904
  121OSM    C7S12771   5.189   4.609   6.667  0.0186 -0.1603  0.4882
  121OSM    H7S12772   5.257   4.690   6.634  0.3028  0.0228  1.4861
  121OSM    H7T12773   5.257   4.529   6.704 -1.9148 -1.2406  1.8848
  121OSM    C8S12774   5.091   4.659   6.767  0.3611  0.1191 -0.6214
  121OSM    H8S12775   5.024   4.728   6.712 -1.2096  0.2332  1.3017
  121OSM    H8T12776   5.132   4.717   6.853  0.4661  0.0612 -0.6325
  121OSM    C9S12777   5.004   4.561   6.841  0.2052  0.1348  0.0643
  121OSM    H9S12778   5.072   4.484   6.886 -0.1170  0.2506  0.7562
  121OSM    H9T12779   4.960   4.496   6.762 -0.7023 -0.0692  0.7278
  121OSM   C10S12780   4.900   4.617   6.937 -0.4842  0.4865 -0.3147
  121OSM   H10S12781   4.821   4.671   6.880 -0.1421  0.7535 -0.5337
  121OSM   H10T12782   4.947   4.680   7.015 -0.3052  1.1559 -0.9588
  121OSM   C11S12783   4.824   4.499   7.013 -0.5408  0.0597  0.1678
  121OSM   H11S12784   4.892   4.427   7.065 -1.1071 -0.2211  0.5410
  121OSM   H11T12785   4.767   4.430   6.947 -0.9723 -1.0225  1.6028
  121OSM   C12S12786   4.735   4.566   7.114 -0.3926 -0.1228  0.0883
  121OSM   H12S12787   4.668   4.643   7.068 -0.6195  1.6543  3.1044
  121OSM   H12T12788   4.804   4.625   7.179 -0.2772  1.1115 -1.0978
  121OSM   C13S12789   4.658   4.461   7.198 -0.5957 -0.3993  0.1991
  121OSM   H13S12790   4.733   4.402   7.256  0.4647  0.2108 -0.5204
  121OSM   H13T12791   4.601   4.394   7.130 -1.4163 -1.0649  1.5030
  121OSM   C14S12792   4.572   4.516   7.306 -0.1879  0.0853  0.2932
  121OSM   H14S12793   4.508   4.603   7.277 -0.2535  0.3079  1.0730
  121OSM   H14T12794   4.625   4.548   7.398 -1.2284 -0.6109  1.1482
  121OSM   C15S12795   4.487   4.400   7.371  0.0880  0.5866 -0.0014
  121OSM   H15S12796   4.572   4.334   7.396 -0.2029  0.1609 -0.1288
  121OSM   H15T12797   4.419   4.346   7.301  0.9799  0.2472 -0.6235
  121OSM   C16S12798   4.417   4.455   7.494 -0.1943 -0.9820  0.3046
  121OSM   H16S12799   4.340   4.532   7.471  1.0292 -0.2695 -1.6030
  121OSM   H16T12800   4.495   4.506   7.555 -0.0467  0.4129 -0.9923
  121OSM   C17S12801   4.366   4.346   7.576  0.1314  0.4082 -0.1050
  121OSM   H17S12802   4.445   4.268   7.585  1.4943  1.7851  0.2900
  121OSM   H17T12803   4.287   4.297   7.516  0.5857 -1.0668  0.4687
  121OSM   C18S12804   4.308   4.395   7.714  0.4129 -0.2111  0.1902
  121OSM   H18S12805   4.386   4.429   7.785  1.0024  0.2622 -0.6697
  121OSM   H18T12806   4.252   4.311   7.762  3.1553 -0.6076  3.0290
  121OSM   H18U12807   4.235   4.476   7.692 -0.1969 -0.6228  0.6402
  121OSM    C1F12808   5.690   4.351   6.580 -0.0891  0.3935 -0.7581
  121OSM     OF12809   5.780   4.416   6.531  0.3130  0.0849  0.4516
  121OSM    C2F12810   5.705   4.289   6.718 -0.2224  0.5500 -0.1211
  121OSM    H2F12811   5.802   4.236   6.722 -0.7147 -0.4140  3.7273
  121OSM    H2G12812   5.624   4.213   6.727 -0.4832  0.8734  0.3504
  121OSM    C3F12813   5.686   4.390   6.838 -0.2158 -0.3695  0.6531
  121OSM    H3F12814   5.750   4.479   6.824 -1.4238  1.0064  3.2005
  121OSM    H3G12815   5.714   4.335   6.930 -1.9685 -2.5628 -0.0341
  121OSM    C4F12816   5.544   4.429   6.861  1.2423  0.7381 -0.5216
  121OSM    H4F12817   5.485   4.336   6.850 -0.4510  1.8186 -0.9831
  121OSM    H4G12818   5.503   4.509   6.796  0.7015  0.3000 -0.7300
  121OSM    C5F12819   5.537   4.467   7.009  0.3374 -0.2662  0.6331
  121OSM    H5F12820   5.603   4.555   7.023  1.1461 -0.7544  0.0329
  121OSM    H5G12821   5.563   4.380   7.073  1.4956  0.2192  0.8447
  121OSM    C6F12822   5.394   4.513   7.038  0.1228 -0.3018  0.0513
  121OSM    H6F12823   5.323   4.428   7.032 -0.8717  0.4415  0.9663
  121OSM    H6G12824   5.346   4.593   6.978  1.7254  1.8971  1.5314
  121OSM    C7F12825   5.380   4.571   7.173  0.1209 -0.4871 -0.5765
  121OSM    H7F12826   5.438   4.666   7.172  0.5139 -0.5647  2.8604
  121OSM    H7G12827   5.439   4.516   7.249 -0.9032  1.1696  1.5251
  121OSM    C8F12828   5.238   4.589   7.234  0.1439 -0.4795  0.0093
  121OSM    H8F12829   5.187   4.659   7.164 -1.0736 -2.3846 -1.0867
  121OSM    H8G12830   5.259   4.641   7.330  4.0134  1.5728 -1.7161
  121OSM    C9F12831   5.139   4.480   7.244  0.0990 -0.0860 -0.1152
  121OSM    H9F12832   5.154   4.404   7.165 -1.5796 -0.0592 -0.4925
  121OSM   C10F12833   5.037   4.476   7.332  0.2105 -0.0721 -0.4074
  121OSM   H10F12834   4.968   4.391   7.341  0.8822 -0.6103 -0.3021
  121OSM   C11F12835   5.001   4.587   7.433  0.5781 -0.1547 -0.0894
  121OSM   H11F12836   4.892   4.603   7.424  0.6446 -0.4880 -1.9336
  121OSM   H11G12837   5.057   4.675   7.395  0.1948 -0.7574 -2.1503
  121OSM   C12F12838   5.021   4.566   7.588 -0.4817  0.4386 -0.0100
  121OSM   H12F12839   4.970   4.474   7.624 -0.4603  0.8575  1.1022
  121OSM   H12G12840   4.960   4.646   7.636 -1.6001  0.1975 -0.9653
  121OSM   C13F12841   5.175   4.589   7.634  1.0406  0.2866  0.4295
  121OSM   H13F12842   5.220   4.677   7.583 -2.7515  1.4628 -1.2980
  121OSM   H13G12843   5.237   4.503   7.600  0.9576 -0.7291  2.6929
  121OSM   C14F12844   5.190   4.591   7.785  0.0370 -0.3776 -0.1627
  121OSM   H14F12845   5.132   4.510   7.835  0.4527 -0.2138  0.5827
  121OSM   H14G12846   5.171   4.689   7.834 -1.0453 -0.8506  0.4101
  121OSM   C15F12847   5.337   4.560   7.834  0.6974  0.2236  0.3466
  121OSM   H15F12848   5.401   4.644   7.798 -1.2143  2.0874  1.1109
  121OSM   H15G12849   5.380   4.466   7.793 -0.9310  0.3284 -1.7412
  121OSM   C16F12850   5.350   4.545   7.984  0.0268 -0.2232  0.0801
  121OSM   H16F12851   5.433   4.471   7.985 -0.1447 -0.5804 -2.9674
  121OSM   H16G12852   5.257   4.496   8.022 -0.9354  0.1055 -1.7890
  121OSM   C17F12853   5.376   4.669   8.067  0.0408  0.4546 -0.1767
  121OSM   H17F12854   5.476   4.713   8.048 -0.9121  3.6573  1.5669
  121OSM   H17G12855   5.386   4.638   8.173  2.6196  0.5729 -0.3060
  121OSM   C18F12856   5.273   4.785   8.063 -0.4749  0.1195 -0.3337
  121OSM   H18F12857   5.170   4.761   8.098 -1.1705  2.4972 -0.5628
  121OSM   H18G12858   5.277   4.825   7.959 -1.0802  2.8672  0.6314
  121OSM   H18H12859   5.301   4.869   8.130 -2.6554  1.3359 -0.8432
  122OSM      N12860   2.841   6.391   6.230  0.5358  0.1820  0.3870
  122OSM    C1512861   2.981   6.429   6.250 -0.2825 -0.6479 -0.1048
  122OSM   H15A12862   3.031   6.362   6.318  0.3745  1.5767  1.7289
  122OSM   H15B12863   2.992   6.526   6.297  1.4898  0.2530 -2.2158
  122OSM   H15C12864   3.024   6.431   6.152 -1.0947  1.2319 -0.4737
  122OSM    C1412865   2.775   6.400   6.367  0.1661  0.5935 -0.5552
  122OSM   H14A12866   2.812   6.489   6.416  2.6464 -0.6530  0.0308
  122OSM   H14B12867   2.802   6.319   6.433 -4.1672 -0.3413  0.3966
  122OSM   H14C12868   2.668   6.410   6.365  0.0293  1.3753  3.1705
  122OSM    C1312869   2.785   6.504   6.146  0.2222  0.6748 -0.4788
  122OSM   H13A12870   2.792   6.591   6.209 -3.0066  0.1865  0.7268
  122OSM   H13B12871   2.684   6.474   6.122  0.9057 -2.3011 -0.0652
  122OSM   H13C12872   2.849   6.513   6.059 -0.4172 -1.6938 -1.2775
  122OSM    C1212873   2.827   6.254   6.166  0.3583 -0.1030 -0.7667
  122OSM   H12A12874   2.897   6.252   6.084  1.0776 -1.4981 -0.1510
  122OSM   H12B12875   2.729   6.248   6.120 -0.0350 -1.2230  0.1519
  122OSM    C1112876   2.849   6.128   6.258  0.2767 -0.2704  0.3800
  122OSM   H11A12877   2.828   6.039   6.194 -0.3819  1.8270 -2.5480
  122OSM   H11B12878   2.776   6.131   6.341 -0.2539 -0.7296 -0.0638
  122OSM      P12879   3.107   6.073   6.247  0.0794 -0.6515 -0.4525
  122OSM    O1312880   3.109   6.111   6.101  0.2549 -0.1129 -0.1324
  122OSM    O1412881   3.229   6.100   6.325 -0.6860 -0.2844 -0.5276
  122OSM    O1112882   3.071   5.916   6.271 -0.0509 -0.3439 -0.4830
  122OSM    O1212883   2.984   6.141   6.310 -0.7947  0.1062  0.5014
  122OSM    C1S12884   3.112   5.862   6.397 -0.0170 -0.3132 -0.0785
  122OSM    H1S12885   3.121   5.940   6.476 -0.2483 -0.1383 -0.2211
  122OSM    H1T12886   3.204   5.801   6.391  0.7024  0.6547  0.7560
  122OSM     NF12887   3.035   5.718   6.586  0.5312 -0.0279 -0.6211
  122OSM    HNF12888   3.055   5.621   6.594  0.9286  0.1517  1.2097
  122OSM    C2S12889   3.003   5.758   6.450 -0.3328  0.1916 -0.0231
  122OSM    H2S12890   2.902   5.804   6.456  0.5402  2.0462  1.9262
  122OSM    C3S12891   3.007   5.646   6.347 -0.4122 -0.4679  0.4081
  122OSM    H3S12892   3.109   5.603   6.350  0.0617  0.6418  0.7194
  122OSM     O312893   2.981   5.687   6.210  0.4247  0.9327  0.2142
  122OSM    HO312894   2.995   5.782   6.213 -1.5685  1.3263 -1.4056
  122OSM    C4S12895   2.903   5.547   6.388 -0.5192  0.6398 -0.4121
  122OSM    H4S12896   2.798   5.572   6.370 -1.3632 -0.3189  2.5899
  122OSM    C5S12897   2.922   5.434   6.459 -0.2926 -0.5575 -0.1377
  122OSM    H5S12898   3.019   5.409   6.504 -0.5581  1.1312  1.5075
  122OSM    C6S12899   2.801   5.347   6.496 -0.3465 -0.3009 -0.8921
  122OSM    H6S12900   2.823   5.244   6.531 -1.3247 -0.5480 -0.9589
  122OSM    H6T12901   2.728   5.325   6.415  0.8185 -1.4534 -1.6675
  122OSM    C7S12902   2.708   5.415   6.604 -0.1590  0.5517  0.3445
  122OSM    H7S12903   2.701   5.525   6.593 -1.8069  0.5436  0.9576
  122OSM    H7T12904   2.749   5.395   6.705  0.2429 -1.3900 -0.1584
  122OSM    C8S12905   2.564   5.353   6.592 -0.6973  0.1140  0.3445
  122OSM    H8S12906   2.563   5.242   6.589  1.9450  0.0247  0.8152
  122OSM    H8T12907   2.489   5.397   6.522 -0.6875  1.9390  1.4043
  122OSM    C9S12908   2.490   5.386   6.719  0.7590 -0.7047 -0.2477
  122OSM    H9S12909   2.538   5.317   6.791 -0.8936 -1.9085 -0.2534
  122OSM    H9T12910   2.383   5.356   6.720  0.6402 -0.2878 -0.1933
  122OSM   C10S12911   2.493   5.527   6.775  0.2316  0.2389  0.5278
  122OSM   H10S12912   2.479   5.590   6.685  0.2772 -1.6692 -0.8833
  122OSM   H10T12913   2.591   5.566   6.808  1.5271 -0.9708 -1.6707
  122OSM   C11S12914   2.388   5.558   6.887 -0.6874 -0.4986 -0.4295
  122OSM   H11S12915   2.284   5.544   6.851 -0.1948 -1.5788 -1.5109
  122OSM   H11T12916   2.395   5.665   6.913 -1.2739 -0.4888 -0.2886
  122OSM   C12S12917   2.401   5.479   7.020  0.3976 -0.2520  1.0151
  122OSM   H12S12918   2.505   5.489   7.059 -0.2316  1.3639  2.3873
  122OSM   H12T12919   2.375   5.372   7.001  1.2410 -0.0509 -1.7561
  122OSM   C13S12920   2.303   5.543   7.118 -0.1500  0.3265 -0.2225
  122OSM   H13S12921   2.197   5.541   7.084 -0.4893 -1.5271  0.8173
  122OSM   H13T12922   2.342   5.646   7.132  0.1669 -0.0461  1.9915
  122OSM   C14S12923   2.311   5.484   7.263 -0.1036  0.4528  0.1870
  122OSM   H14S12924   2.413   5.481   7.306 -0.2742  0.3164  0.5835
  122OSM   H14T12925   2.274   5.379   7.261  0.3045  0.3007  0.4671
  122OSM   C15S12926   2.241   5.574   7.372 -0.4328  0.5606 -0.3429
  122OSM   H15S12927   2.143   5.606   7.331 -1.2298  1.1660  1.8628
  122OSM   H15T12928   2.295   5.668   7.393  2.8082 -1.1695 -0.2025
  122OSM   C16S12929   2.227   5.498   7.502  0.6102 -0.2846 -0.4689
  122OSM   H16S12930   2.327   5.479   7.547 -0.6057 -0.9030  2.1457
  122OSM   H16T12931   2.181   5.402   7.471  1.3390 -0.1910 -1.8797
  122OSM   C17S12932   2.132   5.570   7.603  0.0192 -0.9661 -0.0134
  122OSM   H17S12933   2.038   5.588   7.546  0.9834 -2.9919 -2.4946
  122OSM   H17T12934   2.173   5.666   7.638 -2.0784 -0.4831  1.3299
  122OSM   C18S12935   2.091   5.486   7.722  0.2162 -0.7373 -0.3867
  122OSM   H18S12936   2.189   5.459   7.768 -0.6393 -1.7283  0.9406
  122OSM   H18T12937   2.050   5.383   7.711 -2.1023 -0.0586  1.1388
  122OSM   H18U12938   2.044   5.547   7.802 -0.2027 -1.0738 -0.3737
  122OSM    C1F12939   3.011   5.801   6.687  0.0158 -0.3102 -0.0379
  122OSM     OF12940   2.972   5.913   6.667  0.1071  0.5970 -0.0515
  122OSM    C2F12941   3.017   5.739   6.819  0.1834 -0.2010  0.6922
  122OSM    H2F12942   3.106   5.672   6.823  0.6572  0.1195 -2.3138
  122OSM    H2G12943   2.926   5.678   6.834 -0.7521  1.4631  2.0655
  122OSM    C3F12944   3.026   5.838   6.933  0.2522 -0.3076  0.0853
  122OSM    H3F12945   2.942   5.911   6.935  0.3357 -0.1681 -1.0634
  122OSM    H3G12946   3.120   5.897   6.929 -0.2493  0.8307  2.6080
  122OSM    C4F12947   3.034   5.775   7.073 -0.2518  0.0524 -0.4099
  122OSM    H4F12948   3.138   5.738   7.091 -0.4973 -0.6838 -0.4623
  122OSM    H4G12949   2.967   5.687   7.083 -2.6870  1.5127 -2.7564
  122OSM    C5F12950   3.015   5.886   7.186  0.0827 -0.4611 -0.6679
  122OSM    H5F12951   2.914   5.931   7.197  0.2787 -0.0203 -0.6591
  122OSM    H5G12952   3.076   5.971   7.151 -2.6264  0.3731 -3.9000
  122OSM    C6F12953   3.074   5.843   7.324 -0.0256 -0.9759  0.0891
  122OSM    H6F12954   3.183   5.822   7.319  0.2248  0.2257  0.2753
  122OSM    H6G12955   3.030   5.746   7.358  0.4161 -1.4094 -0.5589
  122OSM    C7F12956   3.046   5.955   7.435 -0.4374 -0.6042  0.0036
  122OSM    H7F12957   2.935   5.963   7.441 -0.5896 -0.9706 -1.5996
  122OSM    H7G12958   3.082   6.054   7.399 -1.0028 -0.5220 -0.3575
  122OSM    C8F12959   3.116   5.927   7.569 -0.2683  0.0200 -0.0330
  122OSM    H8F12960   3.075   5.835   7.615 -0.5530  0.0733 -0.1815
  122OSM    H8G12961   3.088   6.011   7.637 -1.9773 -1.0851  0.6917
  122OSM    C9F12962   3.269   5.915   7.560 -0.0493  1.1016  0.1775
  122OSM    H9F12963   3.313   5.843   7.490 -1.5681  2.1397 -1.9631
  122OSM   C10F12964   3.353   5.979   7.641  0.1388 -0.2237 -0.7434
  122OSM   H10F12965   3.462   5.969   7.628  0.8911  0.7913  3.3695
  122OSM   C11F12966   3.327   6.093   7.736 -0.2918  0.4610 -0.0295
  122OSM   H11F12967   3.236   6.148   7.704  1.1593  1.4873 -2.7045
  122OSM   H11G12968   3.410   6.166   7.725 -0.3059  0.8257  1.9433
  122OSM   C12F12969   3.325   6.055   7.883 -0.5975  0.4675  0.0259
  122OSM   H12F12970   3.419   5.997   7.896  0.2563  1.9420  0.8325
  122OSM   H12G12971   3.249   5.977   7.902  0.0636  0.4195  2.8667
  122OSM   C13F12972   3.309   6.171   7.970  0.0944 -0.4454 -0.4382
  122OSM   H13F12973   3.215   6.221   7.937  0.8497  1.3718  0.0508
  122OSM   H13G12974   3.391   6.244   7.959  2.3450 -2.5900  1.0438
  122OSM   C14F12975   3.302   6.128   8.116 -0.3049 -0.7517  0.2386
  122OSM   H14F12976   3.407   6.094   8.131  1.1613  2.9257 -0.5944
  122OSM   H14G12977   3.231   6.043   8.122  1.2005 -1.9527  1.8092
  122OSM   C15F12978   3.272   6.235   8.214 -0.3031  0.4899 -0.4269
  122OSM   H15F12979   3.346   6.318   8.210  2.3005 -1.7275 -2.5722
  122OSM   H15G12980   3.297   6.190   8.313 -1.3253  0.7278 -0.0500
  122OSM   C16F12981   3.124   6.270   8.220 -0.4559  0.3755  0.2013
  122OSM   H16F12982   3.074   6.172   8.203 -0.5361  0.7680 -2.1339
  122OSM   H16G12983   3.101   6.344   8.141 -0.7233  0.9993  0.8475
  122OSM   C17F12984   3.081   6.320   8.364 -0.8336  0.8478 -0.1071
  122OSM   H17F12985   3.090   6.225   8.420 -0.7194  0.6129 -0.5226
  122OSM   H17G12986   2.973   6.346   8.354 -0.7744  0.4560 -2.2798
  122OSM   C18F12987   3.164   6.427   8.427 -0.0384  0.2686  0.4066
  122OSM   H18F12988   3.150   6.427   8.538 -0.8620  3.0010  0.3750
  122OSM   H18G12989   3.127   6.525   8.391 -0.0521  0.5580  1.1766
  122OSM   H18H12990   3.270   6.416   8.396 -0.8636  0.3889 -2.7103
  123OSM      N12991   0.996   3.219   5.611 -0.3537 -0.1030 -0.1389
  123OSM    C1512992   0.856   3.201   5.544  0.1034 -0.1652  0.5058
  123OSM   H15A12993   0.797   3.132   5.603 -1.2649  0.1151 -0.4779
  123OSM   H15B12994   0.871   3.158   5.446  1.0711  1.3680 -0.0599
  123OSM   H15C12995   0.802   3.295   5.545 -2.9764 -1.7911  2.0300
  123OSM    C1412996   1.047   3.082   5.614 -0.5109 -0.3875  0.1973
  123OSM   H14A12997   0.984   3.029   5.684 -1.5002 -1.1138 -1.1975
  123OSM   H14B12998   1.150   3.077   5.645 -0.4108 -0.2884 -0.1168
  123OSM   H14C12999   1.016   3.032   5.524 -4.0235 -0.2228  1.1863
  123OSM    C1313000   1.086   3.302   5.524  0.1615  0.0583  0.0764
  123OSM   H13A13001   1.058   3.406   5.527  1.9835  0.5847  0.4861
  123OSM   H13B13002   1.079   3.261   5.424  1.2026 -0.7994  0.3293
  123OSM   H13C13003   1.186   3.286   5.564  0.6489  0.1980 -1.0469
  123OSM    C1213004   0.976   3.272   5.755 -0.2786  0.6199 -0.0874
  123OSM   H12A13005   0.927   3.192   5.808  0.6116 -0.6471 -1.1066
  123OSM   H12B13006   0.909   3.356   5.762 -2.3439 -1.0094  0.5161
  123OSM    C1113007   1.106   3.305   5.831  0.3225  0.2956 -0.1989
  123OSM   H11A13008   1.175   3.220   5.811 -2.6198 -2.2172 -0.4250
  123OSM   H11B13009   1.075   3.295   5.938  1.7970 -0.4106  0.1991
  123OSM      P13010   1.077   3.566   5.830 -0.5044  0.1598  0.2296
  123OSM    O1313011   1.162   3.684   5.812 -0.1490 -0.2047 -0.6321
  123OSM    O1413012   0.946   3.565   5.759 -0.5275  0.4624  0.0865
  123OSM    O1113013   1.048   3.537   5.978  0.6479 -0.9956  0.1192
  123OSM    O1213014   1.159   3.431   5.797  0.7091  0.0505  0.4345
  123OSM    C1S13015   1.156   3.538   6.074  0.6571 -0.6392 -0.0946
  123OSM    H1S13016   1.244   3.597   6.042 -0.4531  0.0666 -1.9944
  123OSM    H1T13017   1.183   3.431   6.090 -0.4345 -0.9988 -0.5599
  123OSM     NF13018   1.206   3.592   6.304 -0.7602  0.4868 -0.2781
  123OSM    HNF13019   1.227   3.522   6.371  0.8482  0.5919 -0.6242
  123OSM    C2S13020   1.100   3.580   6.215 -0.0713  0.0679 -1.6772
  123OSM    H2S13021   1.058   3.683   6.205  2.8979  1.5828 -0.0720
  123OSM    C3S13022   0.997   3.474   6.259 -0.0249 -0.3322  0.3659
  123OSM    H3S13023   1.040   3.374   6.276 -1.1068 -0.6276  1.5403
  123OSM     O313024   0.889   3.444   6.166 -0.2452 -0.2459  0.5948
  123OSM    HO313025   0.910   3.496   6.088 -1.6190 -0.9626 -0.2945
  123OSM    C4S13026   0.949   3.523   6.395  0.7742  0.2280 -0.3996
  123OSM    H4S13027   1.006   3.483   6.480  0.3362  1.1390  0.3332
  123OSM    C5S13028   0.832   3.582   6.422 -0.0004  0.3901 -0.3678
  123OSM    H5S13029   0.755   3.599   6.346  0.1938 -2.3556 -1.3091
  123OSM    C6S13030   0.792   3.615   6.568 -0.2895  0.2176 -0.6362
  123OSM    H6S13031   0.727   3.536   6.610  0.6793 -1.0237 -1.3812
  123OSM    H6T13032   0.733   3.708   6.560 -1.3310 -0.2281  1.2333
  123OSM    C7S13033   0.905   3.621   6.672 -0.5749  0.2416 -0.2634
  123OSM    H7S13034   0.990   3.686   6.642  1.2570 -0.9597  1.9913
  123OSM    H7T13035   0.949   3.521   6.695 -0.3509  0.7211  1.5522
  123OSM    C8S13036   0.850   3.680   6.805  0.5161  0.0004  0.4397
  123OSM    H8S13037   0.774   3.606   6.837  1.8357 -2.3998 -1.6649
  123OSM    H8T13038   0.802   3.777   6.781  0.2682  0.0958  1.2607
  123OSM    C9S13039   0.964   3.704   6.904 -0.6141  0.2573  0.3849
  123OSM    H9S13040   1.036   3.782   6.871  0.9663 -1.5385 -0.6116
  123OSM    H9T13041   1.028   3.614   6.908 -1.2900 -0.3183 -1.2254
  123OSM   C10S13042   0.917   3.732   7.047 -0.3574  0.0824 -0.5851
  123OSM   H10S13043   0.860   3.649   7.095 -0.6327  0.7644  0.3076
  123OSM   H10T13044   0.853   3.822   7.038 -0.3058  0.3218  1.0879
  123OSM   C11S13045   1.036   3.750   7.142 -0.1814 -0.4042  0.4689
  123OSM   H11S13046   1.087   3.845   7.117 -0.8484  0.1013  0.9720
  123OSM   H11T13047   1.102   3.661   7.143 -0.8045 -0.8920 -0.1736
  123OSM   C12S13048   0.980   3.769   7.284 -0.1020  0.1432 -0.2565
  123OSM   H12S13049   0.975   3.665   7.323 -0.1046  0.2467  0.0257
  123OSM   H12T13050   0.876   3.802   7.265  0.0163 -0.4135 -2.0734
  123OSM   C13S13051   1.066   3.860   7.371  0.8266  0.4038 -0.3469
  123OSM   H13S13052   1.068   3.963   7.328  0.7067 -0.8622 -3.6867
  123OSM   H13T13053   1.168   3.817   7.363  0.8268 -0.4611  2.9207
  123OSM   C14S13054   1.035   3.835   7.524  0.4619  0.3756  0.0532
  123OSM   H14S13055   1.041   3.729   7.555  0.0966  0.5658  0.8033
  123OSM   H14T13056   0.931   3.867   7.546  0.0883 -0.5629 -0.2974
  123OSM   C15S13057   1.126   3.902   7.613 -0.4524  0.1384 -0.1890
  123OSM   H15S13058   1.127   4.011   7.591  1.0257  0.0456 -0.7089
  123OSM   H15T13059   1.227   3.865   7.585 -0.0839  0.7682  0.2635
  123OSM   C16S13060   1.089   3.884   7.762 -0.4314 -0.1779 -0.4923
  123OSM   H16S13061   1.056   3.779   7.778  2.2755 -1.1597 -0.8950
  123OSM   H16T13062   1.006   3.955   7.782 -1.3579 -1.8278  2.2054
  123OSM   C17S13063   1.205   3.918   7.856 -0.6006 -0.2998  0.3789
  123OSM   H17S13064   1.275   3.834   7.839 -0.4082 -0.0671  0.0089
  123OSM   H17T13065   1.182   3.918   7.964  0.8078 -1.1083  0.6964
  123OSM   C18S13066   1.271   4.051   7.829 -0.0768  0.4747  0.2762
  123OSM   H18S13067   1.316   4.061   7.728  1.2725 -0.7695  0.7142
  123OSM   H18T13068   1.352   4.062   7.904 -1.2748  0.3475  1.6330
  123OSM   H18U13069   1.190   4.124   7.851 -0.8032 -0.2913  0.2255
  123OSM    C1F13070   1.289   3.700   6.307  0.5600  0.1762  0.0570
  123OSM     OF13071   1.295   3.788   6.225 -0.5232 -0.2173 -0.2554
  123OSM    C2F13072   1.373   3.703   6.429 -0.2373 -0.2390  0.0765
  123OSM    H2F13073   1.479   3.717   6.399 -0.5673  0.9950 -0.6013
  123OSM    H2G13074   1.362   3.612   6.492 -0.2216  0.2482  0.7817
  123OSM    C3F13075   1.320   3.818   6.520 -0.5923 -0.3452 -0.1883
  123OSM    H3F13076   1.217   3.788   6.551 -0.4530 -1.0344 -0.3849
  123OSM    H3G13077   1.305   3.914   6.466  0.9511 -0.6090 -1.1323
  123OSM    C4F13078   1.396   3.820   6.657  0.5252 -0.0530 -0.4793
  123OSM    H4F13079   1.363   3.911   6.710  1.1687 -0.4195  0.5781
  123OSM    H4G13080   1.501   3.836   6.626 -0.2454  2.9010 -1.9585
  123OSM    C5F13081   1.387   3.690   6.744 -0.3194  0.0390 -0.9839
  123OSM    H5F13082   1.428   3.598   6.696  1.9155  0.6476 -0.3268
  123OSM    H5G13083   1.279   3.682   6.767  0.2438 -0.4228  1.7629
  123OSM    C6F13084   1.455   3.700   6.878  0.4648 -0.4898 -0.1538
  123OSM    H6F13085   1.559   3.737   6.871 -0.1567  1.7603  1.2087
  123OSM    H6G13086   1.465   3.600   6.926  1.3520 -0.7548 -0.8827
  123OSM    C7F13087   1.378   3.789   6.978  0.1219  0.0775 -0.4370
  123OSM    H7F13088   1.272   3.757   6.982  0.4007 -1.0442 -1.3551
  123OSM    H7G13089   1.381   3.896   6.945  1.2362  0.2104  0.0692
  123OSM    C8F13090   1.435   3.791   7.121  0.1833  0.5071  0.2802
  123OSM    H8F13091   1.407   3.692   7.164 -2.4738 -1.1495 -4.4903
  123OSM    H8G13092   1.361   3.863   7.163 -1.3637 -0.7948 -0.0885
  123OSM    C9F13093   1.580   3.834   7.143  0.9641  0.2899  0.0990
  123OSM    H9F13094   1.592   3.932   7.096  0.2115  1.0910  1.5216
  123OSM   C10F13095   1.677   3.776   7.214  0.7942 -0.8657 -0.0484
  123OSM   H10F13096   1.777   3.822   7.206  0.5262  0.5292  3.1012
  123OSM   C11F13097   1.660   3.656   7.294  0.4434 -0.2544  0.2964
  123OSM   H11F13098   1.751   3.593   7.283  2.1625  2.1294 -0.0258
  123OSM   H11G13099   1.572   3.599   7.259  0.3251  0.4562 -0.6155
  123OSM   C12F13100   1.640   3.687   7.447  0.2674  0.4786 -0.1139
  123OSM   H12F13101   1.579   3.780   7.451  2.0040  1.6617 -0.0952
  123OSM   H12G13102   1.734   3.699   7.505  0.2804 -1.7663  0.4146
  123OSM   C13F13103   1.557   3.571   7.518 -0.3992  0.1259  0.2041
  123OSM   H13F13104   1.625   3.483   7.522 -1.8374 -1.0523 -0.0925
  123OSM   H13G13105   1.465   3.548   7.460  0.2498 -1.1505 -0.3821
  123OSM   C14F13106   1.510   3.600   7.659  0.1686 -0.9160 -0.2223
  123OSM   H14F13107   1.439   3.686   7.663  0.6214 -0.2881 -2.9640
  123OSM   H14G13108   1.596   3.637   7.718  1.3153 -1.5292 -1.4420
  123OSM   C15F13109   1.453   3.486   7.741 -0.7219  0.5920  0.1859
  123OSM   H15F13110   1.540   3.421   7.765  0.6767  2.2608 -0.0965
  123OSM   H15G13111   1.380   3.435   7.675  1.0224  0.1614 -1.4872
  123OSM   C16F13112   1.366   3.519   7.866 -0.3523 -0.1717 -0.7871
  123OSM   H16F13113   1.328   3.422   7.904 -0.1858  0.0885  0.0678
  123OSM   H16G13114   1.280   3.582   7.836 -1.6075 -2.7145 -2.8692
  123OSM   C17F13115   1.443   3.596   7.985  0.7816  0.1349  0.0132
  123OSM   H17F13116   1.493   3.683   7.936  1.1692 -0.9661 -1.6342
  123OSM   H17G13117   1.518   3.530   8.033  0.8883  0.0769 -0.2339
  123OSM   C18F13118   1.344   3.629   8.099  0.2647 -0.3867  1.1507
  123OSM   H18F13119   1.271   3.710   8.083  1.8095  0.4951 -2.3797
  123OSM   H18G13120   1.392   3.654   8.196 -1.1000 -0.6668  1.9243
  123OSM   H18H13121   1.286   3.535   8.112 -0.1043 -0.4105 -0.4371
  124OSM      N13122   0.937   6.661   5.848  0.2238 -0.1546  0.5429
  124OSM    C1513123   0.817   6.745   5.804 -0.4773  0.2197 -0.1201
  124OSM   H15A13124   0.754   6.694   5.734  0.5429 -0.4626 -0.5633
  124OSM   H15B13125   0.848   6.846   5.779  1.4671 -0.0238  1.0847
  124OSM   H15C13126   0.749   6.757   5.887 -0.4842 -0.5124 -0.0145
  124OSM    C1413127   1.032   6.647   5.730  0.3669 -0.3615 -0.8267
  124OSM   H14A13128   1.124   6.595   5.755  2.1914  2.2600 -1.6344
  124OSM   H14B13129   1.058   6.744   5.691 -0.9843  0.5769  0.5163
  124OSM   H14C13130   0.985   6.583   5.656  1.2122 -1.0841 -0.7578
  124OSM    C1313131   1.001   6.727   5.962  1.0696  0.1879  0.4102
  124OSM   H13A13132   1.016   6.831   5.939 -2.6014  1.2606  2.1948
  124OSM   H13B13133   1.096   6.679   5.984  1.0569 -0.7079 -1.3379
  124OSM   H13C13134   0.938   6.730   6.050  0.0410 -1.0897 -0.2528
  124OSM    C1213135   0.883   6.525   5.889 -0.4158 -0.5950 -0.1771
  124OSM   H12A13136   0.828   6.484   5.806  0.2978 -2.7442  0.3357
  124OSM   H12B13137   0.811   6.548   5.966 -0.6642  0.9830 -0.8452
  124OSM    C1113138   0.984   6.422   5.936 -1.0068  0.5700  0.1404
  124OSM   H11A13139   0.920   6.336   5.967 -0.8290  0.0440 -0.9047
  124OSM   H11B13140   1.049   6.452   6.021 -0.1830 -2.2435  0.6377
  124OSM      P13141   1.030   6.286   5.707  0.4839  0.1865 -0.0678
  124OSM    O1313142   0.920   6.354   5.637 -0.1034 -0.2240 -0.1670
  124OSM    O1413143   1.142   6.249   5.626 -0.2534 -0.1157  0.0286
  124OSM    O1113144   0.969   6.149   5.778  0.8606 -0.2988  0.6895
  124OSM    O1213145   1.073   6.376   5.833  0.2659 -0.4051 -0.2081
  124OSM    C1S13146   1.041   6.045   5.835 -0.5070 -0.1120  0.1810
  124OSM    H1S13147   1.145   6.051   5.796  0.2812  1.5281  2.3357
  124OSM    H1T13148   1.002   5.947   5.800  1.4207  0.1760 -3.1428
  124OSM     NF13149   1.149   5.937   6.038  0.2208 -0.6650 -0.0015
  124OSM    HNF13150   1.121   5.847   6.071 -2.0034 -0.1746 -0.3527
  124OSM    C2S13151   1.050   6.041   5.988  0.5075 -0.0864 -0.4240
  124OSM    H2S13152   1.078   6.143   6.021 -3.7129  0.9061  0.6880
  124OSM    C3S13153   0.906   6.023   6.056 -0.4215  0.0486  0.3601
  124OSM    H3S13154   0.878   5.917   6.039  0.0528 -0.4459  2.3841
  124OSM     O313155   0.798   6.085   5.987 -0.2149  0.0702  0.1336
  124OSM    HO313156   0.838   6.096   5.900 -0.0735  0.7196  0.2723
  124OSM    C4S13157   0.910   6.032   6.204 -0.3680 -0.3747  0.1671
  124OSM    H4S13158   0.928   5.934   6.250  0.4701 -0.5095 -0.4190
  124OSM    C5S13159   0.873   6.132   6.287 -0.4084 -0.1065 -0.1761
  124OSM    H5S13160   0.844   6.226   6.238  2.4255  0.1912 -1.4815
  124OSM    C6S13161   0.902   6.143   6.433  0.1700 -0.0460 -0.0244
  124OSM    H6S13162   0.805   6.160   6.485  0.9902 -1.1493  1.9903
  124OSM    H6T13163   0.974   6.224   6.455  0.2848  0.0388 -0.6956
  124OSM    C7S13164   0.962   6.014   6.501  0.3771  0.2558 -0.3970
  124OSM    H7S13165   1.066   5.991   6.468  0.1415 -0.6185 -0.5639
  124OSM    H7T13166   0.899   5.926   6.474 -0.3506  0.1639  1.4956
  124OSM    C8S13167   0.961   6.034   6.651 -0.3568 -0.2568  0.4193
  124OSM    H8S13168   0.852   6.023   6.671 -0.4800  0.3158  0.0851
  124OSM    H8T13169   1.001   6.136   6.672  0.4270  0.0683 -2.2953
  124OSM    C9S13170   1.039   5.927   6.728 -0.0638  0.0350 -1.0538
  124OSM    H9S13171   1.149   5.926   6.710 -0.0403  1.0335 -1.0137
  124OSM    H9T13172   0.989   5.833   6.695  0.0909 -0.3966 -0.0856
  124OSM   C10S13173   1.013   5.946   6.875 -0.1379 -0.4532  0.1423
  124OSM   H10S13174   0.906   5.968   6.899 -0.7229 -1.3621 -1.5002
  124OSM   H10T13175   1.069   6.036   6.907 -2.9398  0.9671  1.4534
  124OSM   C11S13176   1.068   5.827   6.955 -0.0146 -0.3751  0.4491
  124OSM   H11S13177   1.173   5.810   6.923 -0.3817 -1.1549 -0.4009
  124OSM   H11T13178   1.002   5.742   6.930 -1.4202  0.5973  0.7417
  124OSM   C12S13179   1.066   5.870   7.099  0.2325  0.3026 -0.0285
  124OSM   H12S13180   0.961   5.882   7.134  0.2082 -1.1630  0.4569
  124OSM   H12T13181   1.105   5.972   7.117  1.4635  0.0667 -1.2058
  124OSM   C13S13182   1.137   5.763   7.196 -0.3095 -0.1298  0.6766
  124OSM   H13S13183   1.240   5.766   7.153 -0.8403  1.6069 -0.6161
  124OSM   H13T13184   1.072   5.676   7.171  0.6308 -0.2366 -1.6674
  124OSM   C14S13185   1.137   5.803   7.352  0.9009  0.7778  0.3664
  124OSM   H14S13186   1.027   5.810   7.361  0.9808  1.3918  0.9364
  124OSM   H14T13187   1.178   5.906   7.362  2.8821  0.0399  0.4544
  124OSM   C15S13188   1.191   5.698   7.448 -0.0649  0.2411 -0.5040
  124OSM   H15S13189   1.301   5.683   7.436  0.1721  2.6999 -2.3902
  124OSM   H15T13190   1.143   5.603   7.417  0.3377 -0.4718  0.9762
  124OSM   C16S13191   1.157   5.711   7.599 -0.2646 -0.4439  0.8483
  124OSM   H16S13192   1.046   5.716   7.598 -0.3183 -1.4857 -0.1061
  124OSM   H16T13193   1.200   5.805   7.640  1.9409 -1.3639  0.7886
  124OSM   C17S13194   1.198   5.594   7.688 -1.4885  0.3872  0.0594
  124OSM   H17S13195   1.306   5.574   7.703 -1.4179  1.1802  0.6764
  124OSM   H17T13196   1.151   5.512   7.630  0.0754  0.4176 -1.3284
  124OSM   C18S13197   1.134   5.626   7.827 -0.3738 -0.0396  0.0440
  124OSM   H18S13198   1.168   5.719   7.879 -1.4185  0.1930  0.3492
  124OSM   H18T13199   1.161   5.545   7.898 -0.4824  0.7137  0.9835
  124OSM   H18U13200   1.026   5.631   7.803 -0.4428 -0.6769  0.2161
  124OSM    C1F13201   1.280   5.956   6.029  0.0246 -1.0899  0.1395
  124OSM     OF13202   1.333   6.057   5.974 -0.4507 -0.4273  0.1068
  124OSM    C2F13203   1.372   5.845   6.073 -0.4609 -0.4973 -0.0924
  124OSM    H2F13204   1.466   5.855   6.015  0.0959 -1.2472  0.6585
  124OSM    H2G13205   1.329   5.746   6.049  0.4378 -1.2417  1.2209
  124OSM    C3F13206   1.408   5.869   6.222 -0.0793  0.0861 -0.3779
  124OSM    H3F13207   1.317   5.890   6.282  0.0587 -3.2938  1.2494
  124OSM    H3G13208   1.455   5.967   6.242 -1.1294  0.5170  0.0432
  124OSM    C4F13209   1.483   5.748   6.286 -0.4943  0.5784 -0.3118
  124OSM    H4F13210   1.581   5.747   6.235 -1.1215 -0.3964 -1.5439
  124OSM    H4G13211   1.433   5.651   6.268 -1.6142  0.4688  2.8093
  124OSM    C5F13212   1.520   5.760   6.430  0.4793  0.2374 -0.8118
  124OSM    H5F13213   1.534   5.866   6.460  1.4330 -0.1515  0.1911
  124OSM    H5G13214   1.618   5.717   6.461 -0.5241 -1.9576 -0.4415
  124OSM    C6F13215   1.410   5.719   6.532 -0.2093  0.4891 -0.3539
  124OSM    H6F13216   1.309   5.751   6.499 -0.1570  1.4633  0.3809
  124OSM    H6G13217   1.443   5.765   6.627  0.0743 -2.6995  1.2160
  124OSM    C7F13218   1.411   5.570   6.562 -0.2936  0.4554  0.3835
  124OSM    H7F13219   1.505   5.538   6.611  0.4375 -0.3122 -1.4349
  124OSM    H7G13220   1.401   5.526   6.461 -1.3818  1.6853 -0.0820
  124OSM    C8F13221   1.295   5.533   6.649  0.1498 -0.2651  1.0567
  124OSM    H8F13222   1.284   5.422   6.656 -1.1266 -0.1071  1.8163
  124OSM    H8G13223   1.207   5.547   6.583  0.7449 -0.9499  0.0793
  124OSM    C9F13224   1.299   5.595   6.787  0.8298 -0.5713  1.2280
  124OSM    H9F13225   1.284   5.704   6.783 -0.0281 -0.7174 -0.2717
  124OSM   C10F13226   1.312   5.541   6.905 -0.0477  0.0802  0.3664
  124OSM   H10F13227   1.287   5.608   6.989 -0.3193  1.6469 -0.8996
  124OSM   C11F13228   1.342   5.397   6.927 -0.0782  0.1981  0.1034
  124OSM   H11F13229   1.407   5.356   6.846 -1.4925 -1.0870 -0.4184
  124OSM   H11G13230   1.258   5.326   6.935  2.0421 -2.5597 -0.4748
  124OSM   C12F13231   1.426   5.380   7.055 -0.5171 -0.1569 -0.4390
  124OSM   H12F13232   1.512   5.449   7.043 -0.5388  0.4843  2.3837
  124OSM   H12G13233   1.479   5.283   7.047  1.1263  0.8033 -1.8709
  124OSM   C13F13234   1.368   5.409   7.186 -0.1747 -0.4244 -0.5166
  124OSM   H13F13235   1.280   5.477   7.187  0.4523  0.4448  1.8457
  124OSM   H13G13236   1.449   5.458   7.244  0.5363  1.8299 -3.1749
  124OSM   C14F13237   1.314   5.290   7.264 -0.2116 -0.9122  0.7381
  124OSM   H14F13238   1.398   5.218   7.273 -0.0869 -0.8077  0.3874
  124OSM   H14G13239   1.230   5.231   7.221 -1.3134 -0.0223  1.5992
  124OSM   C15F13240   1.269   5.322   7.410  0.0546  0.3792 -0.3320
  124OSM   H15F13241   1.180   5.387   7.420 -0.0552  0.2022 -0.1335
  124OSM   H15G13242   1.351   5.372   7.467 -0.9259  2.6151 -0.7886
  124OSM   C16F13243   1.237   5.192   7.489 -0.1482  0.3486  0.0302
  124OSM   H16F13244   1.241   5.202   7.600 -2.4256  0.3574  0.1474
  124OSM   H16G13245   1.317   5.118   7.468 -1.1016 -0.7546  0.1767
  124OSM   C17F13246   1.103   5.122   7.445  0.3717 -0.2939 -0.7911
  124OSM   H17F13247   1.088   5.021   7.489  1.2602 -0.3916 -0.6946
  124OSM   H17G13248   1.130   5.101   7.340  2.8996 -0.8511 -0.0919
  124OSM   C18F13249   0.985   5.210   7.475  0.3696 -0.2257  0.4537
  124OSM   H18F13250   0.980   5.268   7.570 -2.2410  0.4303 -0.0232
  124OSM   H18G13251   0.892   5.149   7.476  0.8756 -1.2312 -2.7238
  124OSM   H18H13252   0.973   5.285   7.394 -0.1485 -1.0223 -0.2215
  125OSM      N13253   6.292   4.252   6.066  0.6537  0.5997 -0.2571
  125OSM    C1513254   6.417   4.333   6.076 -0.5290 -0.1207  0.9917
  125OSM   H15A13255   6.496   4.267   6.042 -0.2976  0.1352  1.0236
  125OSM   H15B13256   6.436   4.381   6.171 -1.9391  0.0005  1.2262
  125OSM   H15C13257   6.416   4.411   6.002 -0.9159 -0.7392  0.3279
  125OSM    C1413258   6.177   4.347   6.098  0.0454  0.1382 -0.2672
  125OSM   H14A13259   6.186   4.409   6.186  0.7249  0.0189 -0.2498
  125OSM   H14B13260   6.085   4.292   6.113 -0.8582  2.1592  2.3234
  125OSM   H14C13261   6.168   4.410   6.010  0.2585  0.7740  0.1558
  125OSM    C1313262   6.283   4.187   5.929  0.1968 -0.5104  0.1454
  125OSM   H13A13263   6.199   4.121   5.912  0.5959 -1.5334  1.9003
  125OSM   H13B13264   6.369   4.124   5.912 -0.4415 -0.9369 -1.8084
  125OSM   H13C13265   6.284   4.260   5.850  1.5998 -2.7645 -2.0683
  125OSM    C1213266   6.297   4.139   6.172  0.6997  0.4718 -0.0289
  125OSM   H12A13267   6.308   4.181   6.271  1.2416  1.1054 -0.3464
  125OSM   H12B13268   6.387   4.083   6.152  0.1948 -0.4911  0.3446
  125OSM    C1113269   6.167   4.049   6.179  0.1695 -0.2345  0.3897
  125OSM   H11A13270   6.077   4.110   6.159  2.3720  3.0841 -0.1843
  125OSM   H11B13271   6.157   4.011   6.283  0.5930 -0.6145  0.2956
  125OSM      P13272   6.239   3.820   6.081  0.3095 -0.3534 -0.2172
  125OSM    O1313273   6.161   3.720   6.001  0.2830 -0.3774 -0.4981
  125OSM    O1413274   6.377   3.853   6.045 -0.5010  0.2153 -0.3916
  125OSM    O1113275   6.231   3.785   6.237 -0.3399  0.4129 -0.0546
  125OSM    O1213276   6.165   3.951   6.071 -0.7958  0.1177  0.0517
  125OSM    C1S13277   6.122   3.727   6.305 -1.2023  0.1508  0.4319
  125OSM    H1S13278   6.072   3.653   6.239 -1.1587  0.2119  0.3295
  125OSM    H1T13279   6.041   3.802   6.314 -1.3932  0.0079 -0.0557
  125OSM     NF13280   6.054   3.593   6.514 -0.1788 -0.4282 -0.3454
  125OSM    HNF13281   6.008   3.640   6.588 -1.8106  0.5070 -1.8849
  125OSM    C2S13282   6.156   3.671   6.453 -0.1598 -0.2663 -0.3779
  125OSM    H2S13283   6.241   3.600   6.441 -0.4292 -0.7806  0.6393
  125OSM    C3S13284   6.213   3.779   6.548  0.2414  0.3898 -0.1412
  125OSM    H3S13285   6.128   3.839   6.586 -0.5632  0.1868 -1.5339
  125OSM     O313286   6.295   3.878   6.492 -0.5294 -0.1364 -0.3528
  125OSM    HO313287   6.297   3.845   6.402  1.0520 -0.5091 -0.2071
  125OSM    C4S13288   6.279   3.716   6.671  0.4875 -0.3510  0.3306
  125OSM    H4S13289   6.197   3.681   6.736 -1.6362  0.1040 -1.9353
  125OSM    C5S13290   6.401   3.697   6.709  0.2289 -0.6313  0.2192
  125OSM    H5S13291   6.486   3.714   6.641  0.7452 -2.2966  0.3918
  125OSM    C6S13292   6.442   3.602   6.822  0.4552  0.9510  0.3626
  125OSM    H6S13293   6.526   3.531   6.808 -0.4678 -1.1190  3.9941
  125OSM    H6T13294   6.356   3.538   6.848  0.9708  0.3980  0.7279
  125OSM    C7S13295   6.477   3.682   6.945  0.7764  0.2659 -0.2864
  125OSM    H7S13296   6.387   3.739   6.977  1.6572  1.1106  0.7151
  125OSM    H7T13297   6.542   3.768   6.920 -0.7492  1.7582  0.6711
  125OSM    C8S13298   6.535   3.600   7.062 -0.2681 -0.5299  0.0458
  125OSM    H8S13299   6.626   3.543   7.035  0.7365  1.5294 -1.1257
  125OSM    H8T13300   6.456   3.534   7.104 -0.5849 -0.5622 -0.5936
  125OSM    C9S13301   6.569   3.699   7.177 -0.6704 -0.4042 -0.3459
  125OSM    H9S13302   6.476   3.747   7.214 -0.9772 -2.4950  1.9057
  125OSM    H9T13303   6.630   3.783   7.137 -0.3314  0.2023  1.3709
  125OSM   C10S13304   6.635   3.633   7.296 -0.2442  0.0433 -0.0868
  125OSM   H10S13305   6.681   3.710   7.361 -1.1025 -0.2209  0.8625
  125OSM   H10T13306   6.714   3.568   7.253 -0.0330  0.3938 -0.2264
  125OSM   C11S13307   6.543   3.557   7.387 -0.3484  0.8672 -0.2030
  125OSM   H11S13308   6.597   3.489   7.457 -0.6380 -1.0753 -1.7944
  125OSM   H11T13309   6.481   3.495   7.319 -0.8035  1.6100 -0.4768
  125OSM   C12S13310   6.463   3.653   7.479 -0.1758 -0.3305  0.6263
  125OSM   H12S13311   6.388   3.581   7.518  0.2182 -1.8893 -1.3223
  125OSM   H12T13312   6.412   3.737   7.427  3.4817  2.4638  1.1306
  125OSM   C13S13313   6.543   3.705   7.598  0.8019  0.5779 -0.1051
  125OSM   H13S13314   6.638   3.748   7.559  1.5059 -0.0518  0.8371
  125OSM   H13T13315   6.558   3.623   7.672  0.7037  1.0560  0.4496
  125OSM   C14S13316   6.459   3.806   7.674 -0.1356 -0.7930 -0.3172
  125OSM   H14S13317   6.361   3.758   7.694 -0.9668  0.7658 -0.4735
  125OSM   H14T13318   6.434   3.884   7.599 -1.0672 -2.4357 -1.7986
  125OSM   C15S13319   6.543   3.860   7.792 -0.0088 -0.4177 -0.1644
  125OSM   H15S13320   6.506   3.961   7.821  1.1962  0.4418 -1.4933
  125OSM   H15T13321   6.648   3.884   7.766  0.5854  0.6350  2.8310
  125OSM   C16S13322   6.545   3.784   7.929  0.1267 -0.1699  0.6369
  125OSM   H16S13323   6.583   3.683   7.905 -0.8541 -0.5014  0.4391
  125OSM   H16T13324   6.445   3.782   7.977  0.3179 -0.8148  1.0137
  125OSM   C17S13325   6.654   3.858   8.020 -0.2736  0.8889 -0.4718
  125OSM   H17S13326   6.627   3.965   8.007  1.1944  1.3536  0.1414
  125OSM   H17T13327   6.757   3.842   7.984 -0.7396  0.8631 -1.8416
  125OSM   C18S13328   6.644   3.817   8.167  0.0074 -0.6696  0.0453
  125OSM   H18S13329   6.740   3.836   8.219  0.6496  2.6304 -2.0679
  125OSM   H18T13330   6.614   3.711   8.183 -4.1706  0.2147 -0.6968
  125OSM   H18U13331   6.556   3.869   8.210 -0.6152  0.8575 -2.7888
  125OSM    C1F13332   6.018   3.472   6.477  0.3494 -0.0104  0.1132
  125OSM     OF13333   6.084   3.401   6.405  0.4788 -0.1530  0.0432
  125OSM    C2F13334   5.883   3.435   6.515 -0.0604  0.5303  0.6157
  125OSM    H2F13335   5.842   3.373   6.434  2.5974 -1.1778  0.4470
  125OSM    H2G13336   5.832   3.531   6.538 -0.0133  0.7152 -0.0432
  125OSM    C3F13337   5.900   3.351   6.641 -0.1159  0.1711  0.3344
  125OSM    H3F13338   5.982   3.279   6.619 -2.0780 -1.7704 -1.1712
  125OSM    H3G13339   5.813   3.283   6.656  0.0280 -0.4315 -1.2872
  125OSM    C4F13340   5.930   3.431   6.775 -0.0784  0.3670 -0.6165
  125OSM    H4F13341   5.836   3.489   6.788 -0.4222  0.0110 -1.4103
  125OSM    H4G13342   6.015   3.503   6.763 -0.6191  1.2547  0.6945
  125OSM    C5F13343   5.955   3.344   6.899  0.2248 -0.3413 -0.2670
  125OSM    H5F13344   6.048   3.289   6.873  1.2571  0.5450  1.3601
  125OSM    H5G13345   5.878   3.265   6.912  0.9349 -0.9715  0.2241
  125OSM    C6F13346   5.961   3.423   7.028 -0.5204  0.5066 -0.6285
  125OSM    H6F13347   5.869   3.479   7.055 -0.5427  1.0612 -1.7888
  125OSM    H6G13348   6.039   3.499   7.005  2.0038 -1.8153 -0.1893
  125OSM    C7F13349   6.015   3.336   7.143  0.7666 -0.1460 -0.8425
  125OSM    H7F13350   6.099   3.269   7.115  0.5144 -0.4896 -0.7835
  125OSM    H7G13351   5.938   3.265   7.180  0.9296 -1.0041 -2.1046
  125OSM    C8F13352   6.059   3.413   7.272 -0.2793 -0.8950  0.0474
  125OSM    H8F13353   6.087   3.330   7.340  1.5678 -1.7175 -1.6073
  125OSM    H8G13354   5.976   3.470   7.319  1.1062  0.5399  0.8283
  125OSM    C9F13355   6.172   3.502   7.230 -0.0442 -0.0354  0.2107
  125OSM    H9F13356   6.264   3.443   7.236 -0.7502 -1.2371 -0.3565
  125OSM   C10F13357   6.188   3.633   7.242  0.1455 -0.5158  0.1498
  125OSM   H10F13358   6.285   3.675   7.211 -0.5485  1.6264  0.7359
  125OSM   C11F13359   6.072   3.732   7.271  0.4057 -0.6329  0.0375
  125OSM   H11F13360   5.973   3.683   7.273  0.3541 -0.5118  1.6112
  125OSM   H11G13361   6.073   3.814   7.197 -1.5449 -0.9074 -0.3520
  125OSM   C12F13362   6.096   3.795   7.411 -0.7035 -0.2198  0.5398
  125OSM   H12F13363   6.016   3.869   7.435 -0.5961  0.0114  0.1815
  125OSM   H12G13364   6.198   3.839   7.416 -1.1586  0.9107  0.2788
  125OSM   C13F13365   6.095   3.701   7.527 -0.3149  0.2470  0.2936
  125OSM   H13F13366   6.184   3.635   7.520  0.4057  1.3661 -1.7344
  125OSM   H13G13367   6.013   3.626   7.521  1.6398 -1.8832 -1.7217
  125OSM   C14F13368   6.089   3.763   7.665  0.8155 -0.4885 -0.4336
  125OSM   H14F13369   5.989   3.806   7.687  1.5112  1.1665 -0.3601
  125OSM   H14G13370   6.157   3.851   7.673 -2.2944  1.9087  2.4908
  125OSM   C15F13371   6.110   3.658   7.779  0.3174  0.1837  0.0659
  125OSM   H15F13372   6.162   3.716   7.859  0.4599 -1.2528  1.0390
  125OSM   H15G13373   6.190   3.587   7.748  1.7693  1.9746 -0.5563
  125OSM   C16F13374   5.979   3.607   7.838 -0.4618 -0.0409  0.4014
  125OSM   H16F13375   5.932   3.552   7.754  2.1093 -0.6829 -0.7253
  125OSM   H16G13376   5.918   3.691   7.876  0.4610  0.0747  1.7090
  125OSM   C17F13377   5.994   3.523   7.961 -0.2430 -0.2442 -0.2129
  125OSM   H17F13378   5.898   3.538   8.015 -0.7006 -2.3702 -0.3419
  125OSM   H17G13379   6.072   3.562   8.030  1.3278 -0.6048 -1.7260
  125OSM   C18F13380   6.019   3.375   7.942  0.5531 -0.2610 -0.7450
  125OSM   H18F13381   6.095   3.361   7.862  0.8524  1.2246 -0.7436
  125OSM   H18G13382   5.929   3.322   7.903 -1.0942  0.4979  1.7995
  125OSM   H18H13383   6.064   3.311   8.022 -2.7258 -1.2313  0.5173
  126OSM      N13384   1.530   2.533   5.831  0.2395 -0.1101  0.2453
  126OSM    C1513385   1.423   2.637   5.806 -0.1126 -0.2619 -0.7402
  126OSM   H15A13386   1.457   2.737   5.829  2.2381 -1.1853  0.1600
  126OSM   H15B13387   1.342   2.618   5.874  1.1379 -1.8975  0.3630
  126OSM   H15C13388   1.383   2.630   5.706  0.9166 -0.8702 -1.1307
  126OSM    C1413389   1.478   2.405   5.781  0.1197 -0.2676  0.2167
  126OSM   H14A13390   1.452   2.411   5.677  0.4436 -2.9000 -0.0650
  126OSM   H14B13391   1.393   2.375   5.841  0.9687 -1.6868  0.7480
  126OSM   H14C13392   1.548   2.323   5.778  0.6975  0.2493 -2.3100
  126OSM    C1313393   1.655   2.558   5.746  0.3395 -0.0768 -0.1300
  126OSM   H13A13394   1.642   2.534   5.641 -3.7989 -3.4925  0.8668
  126OSM   H13B13395   1.737   2.498   5.782 -0.3854 -0.6445  0.6277
  126OSM   H13C13396   1.691   2.659   5.753 -0.4293  0.2990 -1.2625
  126OSM    C1213397   1.561   2.527   5.978  0.3800 -0.2678 -0.1727
  126OSM   H12A13398   1.476   2.484   6.028 -0.6176  1.3750 -0.3813
  126OSM   H12B13399   1.587   2.629   6.003  1.2512 -0.6152  0.3762
  126OSM    C1113400   1.681   2.430   6.021  0.1117  0.2955 -0.2205
  126OSM   H11A13401   1.668   2.331   5.973  0.3059 -0.2379  0.7980
  126OSM   H11B13402   1.692   2.406   6.129 -0.4647 -2.7177 -0.7369
  126OSM      P13403   1.937   2.415   5.939 -0.4778  0.3506  0.2853
  126OSM    O1313404   1.910   2.330   5.816  0.7217  0.2723 -0.8948
  126OSM    O1413405   2.060   2.501   5.925 -0.5384  0.1821 -0.4418
  126OSM    O1113406   1.959   2.317   6.061  0.1193 -0.3869  0.4703
  126OSM    O1213407   1.802   2.494   5.979  0.1368 -0.1855 -0.2233
  126OSM    C1S13408   1.991   2.375   6.191 -0.5657 -0.3286 -0.4343
  126OSM    H1S13409   1.955   2.479   6.204  0.7326  0.0605  0.1557
  126OSM    H1T13410   2.100   2.387   6.209 -1.2413  0.9748  4.0218
  126OSM     NF13411   1.931   2.351   6.428  0.7188  0.4875  0.0585
  126OSM    HNF13412   2.015   2.352   6.481 -0.1385  2.8330  1.5909
  126OSM    C2S13413   1.936   2.281   6.303  0.2471 -0.3359 -0.7302
  126OSM    H2S13414   1.833   2.257   6.269 -0.7000 -0.1507  1.7230
  126OSM    C3S13415   2.018   2.154   6.322 -0.5385 -0.6105  0.5877
  126OSM    H3S13416   2.123   2.187   6.332 -0.1962 -0.1791 -3.0828
  126OSM     O313417   2.016   2.087   6.203 -0.1259  0.0634  0.3754
  126OSM    HO313418   1.994   2.154   6.137 -0.0632  0.6600  0.9574
  126OSM    C4S13419   1.975   2.067   6.443 -0.8622  0.6794  0.6462
  126OSM    H4S13420   1.868   2.045   6.455 -0.7463 -0.0307  0.4133
  126OSM    C5S13421   2.062   2.026   6.539  0.0791  0.5725 -0.3174
  126OSM    H5S13422   2.166   2.061   6.547 -0.3292  2.3437 -2.1067
  126OSM    C6S13423   2.009   1.957   6.664 -0.0738 -0.0955  0.7012
  126OSM    H6S13424   2.072   1.867   6.681 -0.7263 -0.9194 -1.0209
  126OSM    H6T13425   1.901   1.931   6.662 -0.2017  0.4593  0.2475
  126OSM    C7S13426   2.005   2.036   6.797  0.5498  0.1041  0.2349
  126OSM    H7S13427   1.940   2.125   6.783  0.3182 -0.3638 -2.1057
  126OSM    H7T13428   2.108   2.076   6.812  0.5400 -0.0066  0.6067
  126OSM    C8S13429   1.979   1.941   6.914 -0.1973 -0.0685  0.2731
  126OSM    H8S13430   2.060   1.867   6.897  0.9729  1.6509 -2.2805
  126OSM    H8T13431   1.888   1.881   6.895 -0.4549 -0.1060  1.5519
  126OSM    C9S13432   1.987   2.000   7.055 -0.1025  0.8554 -0.9891
  126OSM    H9S13433   1.891   2.052   7.076 -0.1047  0.4894 -0.0451
  126OSM    H9T13434   2.077   2.061   7.079  0.7215 -0.5301 -0.4200
  126OSM   C10S13435   1.997   1.900   7.173 -1.1562 -0.0845  0.4360
  126OSM   H10S13436   2.086   1.836   7.153 -0.8991 -0.1633  1.7509
  126OSM   H10T13437   1.908   1.834   7.168 -0.5180 -0.8622 -2.5207
  126OSM   C11S13438   2.012   1.976   7.312 -0.1330 -0.1766 -0.1928
  126OSM   H11S13439   1.939   2.057   7.335  0.7577 -0.0280  2.4882
  126OSM   H11T13440   2.101   2.041   7.301 -0.2198 -0.1961 -1.0468
  126OSM   C12S13441   2.046   1.878   7.422  0.2889  0.2233 -0.5484
  126OSM   H12S13442   2.140   1.826   7.396 -0.2046 -0.9212 -0.0925
  126OSM   H12T13443   1.960   1.808   7.424  0.1361  0.4058 -0.6415
  126OSM   C13S13444   2.078   1.960   7.555  0.6304 -0.1331  0.1178
  126OSM   H13S13445   1.983   2.013   7.576  0.4143  0.1662 -1.4647
  126OSM   H13T13446   2.159   2.034   7.539  1.0324 -0.6061 -0.0544
  126OSM   C14S13447   2.113   1.864   7.674  0.5592 -0.2509  0.0491
  126OSM   H14S13448   2.192   1.789   7.648  0.8199 -0.2783  0.8904
  126OSM   H14T13449   2.027   1.805   7.713 -0.0110 -2.4951 -4.0323
  126OSM   C15S13450   2.171   1.942   7.797  0.4787 -0.0711 -0.2528
  126OSM   H15S13451   2.108   2.029   7.824  1.6413 -0.3253  4.0009
  126OSM   H15T13452   2.272   1.970   7.759  1.0827 -1.4586  0.2332
  126OSM   C16S13453   2.185   1.857   7.921 -0.0703 -0.2780  0.0626
  126OSM   H16S13454   2.246   1.770   7.891 -0.6862 -0.1536 -1.6423
  126OSM   H16T13455   2.087   1.818   7.958 -0.3039  0.5646  0.3665
  126OSM   C17S13456   2.252   1.935   8.034 -0.4158 -0.2151 -0.7327
  126OSM   H17S13457   2.192   2.021   8.072  1.1188  0.1531  1.0457
  126OSM   H17T13458   2.345   1.989   8.006 -0.2616 -0.6318 -1.0356
  126OSM   C18S13459   2.284   1.845   8.153  0.5134 -0.2685 -0.2615
  126OSM   H18S13460   2.193   1.781   8.166  0.6603 -0.2957  0.6830
  126OSM   H18T13461   2.298   1.920   8.233  0.8404  2.0397 -2.3638
  126OSM   H18U13462   2.376   1.783   8.147 -0.6516 -2.0321 -0.6226
  126OSM    C1F13463   1.853   2.456   6.451  0.0208  0.7555  0.3353
  126OSM     OF13464   1.763   2.482   6.370 -0.1521 -0.2069 -0.1754
  126OSM    C2F13465   1.882   2.539   6.571  0.7818 -0.4342 -0.1308
  126OSM    H2F13466   1.949   2.621   6.536 -0.4164  1.4632  1.8213
  126OSM    H2G13467   1.943   2.484   6.646  0.1815 -0.1970  0.5348
  126OSM    C3F13468   1.748   2.592   6.643 -0.3613  0.0126  0.6317
  126OSM    H3F13469   1.676   2.508   6.657 -0.3492  0.0038  0.6420
  126OSM    H3G13470   1.696   2.665   6.578 -1.1666 -0.0619  1.1768
  126OSM    C4F13471   1.756   2.678   6.775 -0.1043 -0.2178  0.3443
  126OSM    H4F13472   1.777   2.614   6.864  0.7990 -0.8697 -0.3124
  126OSM    H4G13473   1.651   2.711   6.785  0.3425  0.8979  1.5614
  126OSM    C5F13474   1.846   2.799   6.753 -0.1032  0.2884 -0.8129
  126OSM    H5F13475   1.792   2.869   6.686  0.4112 -1.1296 -2.8097
  126OSM    H5G13476   1.944   2.778   6.705 -0.1746  0.6886 -1.1330
  126OSM    C6F13477   1.873   2.881   6.891  0.0873  0.2472  0.7306
  126OSM    H6F13478   1.930   2.974   6.868  1.8412  0.2194  4.2680
  126OSM    H6G13479   1.944   2.819   6.950  1.4313  0.2289 -0.8355
  126OSM    C7F13480   1.746   2.918   6.961 -0.1033 -0.2929  0.3194
  126OSM    H7F13481   1.692   2.825   6.987  0.4070 -0.4014  1.0429
  126OSM    H7G13482   1.679   2.972   6.892 -0.0792 -1.4244 -0.6223
  126OSM    C8F13483   1.760   2.992   7.103  0.1784  0.6203  0.3175
  126OSM    H8F13484   1.655   3.021   7.125 -0.0747 -0.5922  0.7835
  126OSM    H8G13485   1.815   3.082   7.070 -0.1020  0.5567 -0.3426
  126OSM    C9F13486   1.822   2.908   7.216  0.7851  0.6832 -0.1059
  126OSM    H9F13487   1.765   2.820   7.250 -0.2285  1.6023  0.6212
  126OSM   C10F13488   1.935   2.947   7.273  0.1469  0.2105  0.3608
  126OSM   H10F13489   1.987   2.883   7.346  0.6705 -0.0950 -0.2682
  126OSM   C11F13490   2.009   3.073   7.237 -0.4742 -0.0321  0.3774
  126OSM   H11F13491   2.017   3.077   7.127 -0.0722  0.5854  0.4267
  126OSM   H11G13492   2.116   3.062   7.265 -0.4500  2.6208  1.6701
  126OSM   C12F13493   1.962   3.202   7.308 -0.1819  0.0932  0.0909
  126OSM   H12F13494   1.858   3.214   7.270 -0.1803 -2.6092 -0.9746
  126OSM   H12G13495   2.023   3.287   7.271 -0.0909  0.1802  0.4351
  126OSM   C13F13496   1.961   3.213   7.462 -0.1264 -0.3032 -0.2049
  126OSM   H13F13497   2.067   3.186   7.482  0.2395  1.6363  0.6057
  126OSM   H13G13498   1.890   3.142   7.510  0.5852 -0.3016  0.8791
  126OSM   C14F13499   1.922   3.355   7.515  0.0014  0.2669 -0.0403
  126OSM   H14F13500   1.813   3.375   7.516  0.2183  1.5279  1.0770
  126OSM   H14G13501   1.977   3.434   7.460  0.4142 -0.0674 -0.1145
  126OSM   C15F13502   1.979   3.370   7.655  0.6213 -0.5879  0.2926
  126OSM   H15F13503   2.090   3.358   7.657  0.6615 -0.2028  0.4320
  126OSM   H15G13504   1.941   3.290   7.722 -0.4586  0.4704  0.9676
  126OSM   C16F13505   1.945   3.498   7.719 -0.2172  0.0874  0.3612
  126OSM   H16F13506   1.842   3.536   7.706 -0.1704  1.0103  2.2622
  126OSM   H16G13507   2.018   3.567   7.672  1.5228 -2.0611 -0.2901
  126OSM   C17F13508   1.983   3.497   7.866  0.6110  0.2230 -0.1567
  126OSM   H17F13509   1.997   3.603   7.895 -0.7621 -0.4747  3.6892
  126OSM   H17G13510   2.083   3.449   7.879  0.8191  0.5763 -0.4407
  126OSM   C18F13511   1.885   3.440   7.968  0.2827 -0.5504 -0.0529
  126OSM   H18F13512   1.898   3.332   7.990  1.6875 -0.6140 -1.0420
  126OSM   H18G13513   1.781   3.460   7.932 -0.3115 -0.2485  1.6971
  126OSM   H18H13514   1.889   3.488   8.068 -1.6160 -2.3215  0.9467
  127OSM      N13515   0.751   4.384   5.368 -1.3943 -0.1168 -0.7782
  127OSM    C1513516   0.748   4.248   5.310  0.7701 -0.0588 -0.0143
  127OSM   H15A13517   0.799   4.178   5.375  1.5889 -0.2479 -0.8513
  127OSM   H15B13518   0.787   4.248   5.210 -1.4863  2.5912 -1.0242
  127OSM   H15C13519   0.647   4.209   5.317  0.8154 -0.9821 -3.0672
  127OSM    C1413520   0.897   4.428   5.364 -0.1276 -0.5966  0.0521
  127OSM   H14A13521   0.946   4.445   5.270  3.4292 -0.7033  1.7109
  127OSM   H14B13522   0.956   4.356   5.418 -0.2703 -1.3291 -0.7574
  127OSM   H14C13523   0.905   4.519   5.423 -1.9090 -0.4283  0.0820
  127OSM    C1313524   0.662   4.473   5.295 -0.2904  0.1704 -0.7226
  127OSM   H13A13525   0.559   4.449   5.315  0.5532 -1.4271  2.2366
  127OSM   H13B13526   0.682   4.465   5.189  0.2932 -3.0826 -0.4810
  127OSM   H13C13527   0.672   4.578   5.317  0.4322  0.3086 -1.6486
  127OSM    C1213528   0.708   4.380   5.511 -0.5734 -0.5468 -0.7805
  127OSM   H12A13529   0.766   4.306   5.564 -0.4135  0.4465  0.4658
  127OSM   H12B13530   0.605   4.350   5.521  0.1533 -3.2887 -0.8585
  127OSM    C1113531   0.719   4.510   5.609 -0.1558  0.0914 -0.0452
  127OSM   H11A13532   0.656   4.501   5.699  0.6728 -1.3634  0.4178
  127OSM   H11B13533   0.678   4.597   5.553 -0.0497 -0.4042 -0.9092
  127OSM      P13534   0.924   4.449   5.759  0.0210 -0.4963 -0.1993
  127OSM    O1313535   1.002   4.349   5.679  0.6262 -0.3467  0.0571
  127OSM    O1413536   1.007   4.541   5.838  0.6917 -0.3379  0.5456
  127OSM    O1113537   0.813   4.384   5.846  0.0011  0.5648 -0.2032
  127OSM    O1213538   0.853   4.534   5.650  0.1086 -0.6967  0.1726
  127OSM    C1S13539   0.849   4.260   5.923 -0.0222 -0.0401 -0.5386
  127OSM    H1S13540   0.949   4.219   5.896 -0.5443 -0.8818 -1.2639
  127OSM    H1T13541   0.776   4.178   5.906 -0.9101  0.7508 -0.6053
  127OSM     NF13542   0.853   4.152   6.150 -0.3394  0.1976  0.5279
  127OSM    HNF13543   0.768   4.104   6.165 -1.1944  2.2962  3.0758
  127OSM    C2S13544   0.838   4.279   6.080 -0.3097  0.0211 -0.1434
  127OSM    H2S13545   0.924   4.344   6.108 -0.4505  0.0381  0.2620
  127OSM    C3S13546   0.716   4.367   6.123  0.3101  0.1738  0.3773
  127OSM    H3S13547   0.621   4.312   6.104  0.5467  0.1965 -0.9425
  127OSM     O313548   0.706   4.498   6.058 -0.3632 -0.1095 -0.2853
  127OSM    HO313549   0.760   4.486   5.980 -0.6085 -0.0741 -0.4618
  127OSM    C4S13550   0.727   4.376   6.274  0.1303  0.7681  0.3823
  127OSM    H4S13551   0.776   4.462   6.322 -0.5548  1.0837  0.5367
  127OSM    C5S13552   0.673   4.285   6.357  0.2958  1.4684  0.0015
  127OSM    H5S13553   0.615   4.199   6.321  0.5251  0.6888  1.4110
  127OSM    C6S13554   0.673   4.292   6.510 -0.3083 -1.1703 -0.3992
  127OSM    H6S13555   0.693   4.194   6.559  0.4093 -0.6045  0.4627
  127OSM    H6T13556   0.571   4.313   6.548  0.2241 -0.3778  0.6298
  127OSM    C7S13557   0.776   4.391   6.578  0.3831 -0.3055 -0.0535
  127OSM    H7S13558   0.760   4.500   6.560  4.3029  0.5075  0.3023
  127OSM    H7T13559   0.873   4.373   6.526  0.6662 -3.5908  1.4174
  127OSM    C8S13560   0.787   4.358   6.728  0.2631  0.0873 -0.3793
  127OSM    H8S13561   0.817   4.252   6.739  0.2239 -0.0993 -1.9755
  127OSM    H8T13562   0.686   4.370   6.774  0.0386  2.4275 -1.3439
  127OSM    C9S13563   0.895   4.435   6.801 -0.6388  0.2400  0.1216
  127OSM    H9S13564   0.964   4.477   6.725  2.4871 -0.9539  2.0459
  127OSM    H9T13565   0.965   4.365   6.853  0.2308  1.2296  0.3385
  127OSM   C10S13566   0.855   4.548   6.895  0.1412 -0.2622  0.4651
  127OSM   H10S13567   0.950   4.580   6.941  0.3746 -0.4411  0.1101
  127OSM   H10T13568   0.791   4.510   6.978 -2.2858 -2.0496 -2.0170
  127OSM   C11S13569   0.783   4.667   6.813 -0.6488  0.7484  0.5327
  127OSM   H11S13570   0.673   4.649   6.811 -0.3193 -1.6201  1.1556
  127OSM   H11T13571   0.834   4.662   6.714 -1.6248  0.0515  0.0438
  127OSM   C12S13572   0.819   4.800   6.880  0.1174 -0.0020 -0.0689
  127OSM   H12S13573   0.802   4.881   6.806 -1.2605 -2.6735 -2.9156
  127OSM   H12T13574   0.927   4.808   6.905  0.3150  3.3010 -1.4331
  127OSM   C13S13575   0.737   4.833   7.006  0.7719 -0.7089  0.2739
  127OSM   H13S13576   0.781   4.776   7.090 -0.6976  0.4537  1.9160
  127OSM   H13T13577   0.637   4.786   6.995  0.9649 -1.1248  0.2796
  127OSM   C14S13578   0.707   4.982   7.034 -0.7184  0.5822  0.3044
  127OSM   H14S13579   0.654   4.998   7.130  2.6561 -0.3239  2.5164
  127OSM   H14T13580   0.677   5.035   6.941  1.9278  2.0582  0.1728
  127OSM   C15S13581   0.845   5.056   7.046 -0.0587 -0.0435  0.9168
  127OSM   H15S13582   0.896   5.050   6.948 -2.5389  0.6174 -0.5086
  127OSM   H15T13583   0.900   5.011   7.131 -0.9946  0.1879  1.6669
  127OSM   C16S13584   0.831   5.205   7.065 -0.1230  0.5716 -0.6705
  127OSM   H16S13585   0.756   5.232   7.142 -0.2224 -1.0065 -0.1705
  127OSM   H16T13586   0.790   5.258   6.977 -2.7359 -1.9307 -1.1066
  127OSM   C17S13587   0.961   5.273   7.105 -0.1520 -0.2738 -0.2369
  127OSM   H17S13588   1.040   5.217   7.051 -1.3660 -1.8289 -0.4963
  127OSM   H17T13589   0.973   5.261   7.215 -2.2763 -0.1497  0.0487
  127OSM   C18S13590   0.972   5.420   7.074 -0.3689  0.1233  1.1924
  127OSM   H18S13591   0.894   5.476   7.129 -1.1501 -0.1614  0.4062
  127OSM   H18T13592   0.949   5.439   6.967 -1.7541 -2.0009  1.0486
  127OSM   H18U13593   1.074   5.460   7.090 -0.4816  0.6785  0.5742
  127OSM    C1F13594   0.961   4.073   6.143 -0.6312  0.4556 -0.8653
  127OSM     OF13595   1.063   4.112   6.088 -0.2082  0.0444 -0.8392
  127OSM    C2F13596   0.948   3.940   6.202 -0.2443  0.6886  1.3875
  127OSM    H2F13597   1.010   3.879   6.132 -1.6020  1.5777 -0.6750
  127OSM    H2G13598   0.843   3.905   6.193  0.0073  0.3713 -0.9644
  127OSM    C3F13599   0.997   3.918   6.348  0.3214 -0.5185  0.1893
  127OSM    H3F13600   1.104   3.940   6.367  0.0820  0.1013  0.8976
  127OSM    H3G13601   0.975   3.813   6.374 -0.0363  0.1624  2.9476
  127OSM    C4F13602   0.913   4.005   6.445  0.3893  0.4051 -0.3862
  127OSM    H4F13603   0.816   3.953   6.451  1.6333 -2.0245 -0.1307
  127OSM    H4G13604   0.895   4.111   6.417  1.1012  0.9352  1.0434
  127OSM    C5F13605   0.968   4.003   6.589  0.0247 -0.9790 -0.5544
  127OSM    H5F13606   0.995   3.898   6.613 -1.9183 -1.3718  0.0828
  127OSM    H5G13607   0.879   4.021   6.654 -0.3632 -0.5983 -1.1811
  127OSM    C6F13608   1.092   4.093   6.626  0.3159  0.3563  0.0432
  127OSM    H6F13609   1.064   4.198   6.602 -1.7704 -0.1028  0.2717
  127OSM    H6G13610   1.176   4.063   6.561 -0.1715 -1.5305  0.2368
  127OSM    C7F13611   1.138   4.083   6.767  0.0023  0.2905  0.2612
  127OSM    H7F13612   1.162   3.975   6.776 -0.0178  0.2333 -0.3752
  127OSM    H7G13613   1.052   4.108   6.834 -1.0323 -1.3683 -0.3958
  127OSM    C8F13614   1.258   4.174   6.795  0.5909  0.2870 -0.2773
  127OSM    H8F13615   1.235   4.272   6.749  0.4139 -0.7365 -2.5211
  127OSM    H8G13616   1.344   4.141   6.734  0.1959 -0.6096 -0.3604
  127OSM    C9F13617   1.299   4.186   6.936 -0.1064 -0.4467 -1.2207
  127OSM    H9F13618   1.296   4.091   6.990  0.9481 -0.0736 -0.4637
  127OSM   C10F13619   1.332   4.309   6.997 -0.3440  1.6834  0.0306
  127OSM   H10F13620   1.370   4.304   7.100 -0.1351 -0.0700 -0.1036
  127OSM   C11F13621   1.344   4.444   6.930  0.1247 -0.4472  0.3690
  127OSM   H11F13622   1.343   4.448   6.819 -0.4085  2.0693  0.4193
  127OSM   H11G13623   1.442   4.478   6.968 -0.7836  1.3018  1.2545
  127OSM   C12F13624   1.249   4.561   6.966  0.5911 -0.4141 -0.2575
  127OSM   H12F13625   1.269   4.598   7.069  2.5129 -0.5827 -0.5302
  127OSM   H12G13626   1.144   4.525   6.963  0.5496 -0.4702  1.1626
  127OSM   C13F13627   1.264   4.686   6.874 -0.8236  0.0512  0.2646
  127OSM   H13F13628   1.179   4.754   6.893 -0.9061  0.8864 -2.6081
  127OSM   H13G13629   1.246   4.660   6.768 -0.7393 -0.9540  0.4887
  127OSM   C14F13630   1.397   4.770   6.886  0.9714  0.2275 -0.8369
  127OSM   H14F13631   1.493   4.717   6.868 -0.1694 -2.9109  1.3406
  127OSM   H14G13632   1.403   4.796   6.993 -1.6371 -1.1397 -0.2687
  127OSM   C15F13633   1.382   4.893   6.801  0.8292 -0.0935 -0.3010
  127OSM   H15F13634   1.289   4.950   6.824 -0.0216  0.4930 -4.3950
  127OSM   H15G13635   1.373   4.863   6.694 -0.1903  1.7299 -0.7793
  127OSM   C16F13636   1.509   4.974   6.815 -0.4778 -0.3055  0.5580
  127OSM   H16F13637   1.599   4.909   6.803 -1.4601 -2.2501  2.8672
  127OSM   H16G13638   1.516   5.004   6.922 -1.3677  0.2141  0.4733
  127OSM   C17F13639   1.517   5.095   6.719  0.2080  0.2899  0.0871
  127OSM   H17F13640   1.433   5.165   6.741  0.3136  0.6920 -0.7830
  127OSM   H17G13641   1.503   5.055   6.617 -1.4047 -0.6697  0.6349
  127OSM   C18F13642   1.645   5.178   6.727 -0.5843 -0.1423  0.0760
  127OSM   H18F13643   1.663   5.219   6.828 -1.9701  1.7760 -0.4108
  127OSM   H18G13644   1.638   5.266   6.660  0.0076 -0.8859 -0.9939
  127OSM   H18H13645   1.733   5.119   6.693  0.7201  2.5395 -1.4602
  128OSM      N13646   6.746   1.301   5.859  0.1377 -0.0776  0.6036
  128OSM    C1513647   6.864   1.277   5.764  0.0573  1.4070 -0.6125
  128OSM   H15A13648   6.935   1.204   5.800  0.4006  1.3755 -1.3271
  128OSM   H15B13649   6.920   1.368   5.748  1.4366  0.9890  1.4445
  128OSM   H15C13650   6.840   1.226   5.672  1.3028 -1.0406  0.3283
  128OSM    C1413651   6.643   1.375   5.777  0.4829 -0.0666 -0.3720
  128OSM   H14A13652   6.608   1.307   5.701  2.0624  0.8504 -1.9812
  128OSM   H14B13653   6.674   1.468   5.732  1.3078 -0.9747 -1.7521
  128OSM   H14C13654   6.554   1.403   5.832  0.0088  0.0680 -1.1907
  128OSM    C1313655   6.682   1.173   5.894 -0.0485  0.1161 -0.1919
  128OSM   H13A13656   6.652   1.118   5.806  0.1034  1.1595 -0.9214
  128OSM   H13B13657   6.593   1.180   5.954  0.3280 -0.6389  0.4778
  128OSM   H13C13658   6.752   1.116   5.954  0.9280  0.2083 -1.2156
  128OSM    C1213659   6.782   1.382   5.989  0.2245  0.4540  0.5785
  128OSM   H12A13660   6.691   1.394   6.046  0.5205 -0.1300  1.1966
  128OSM   H12B13661   6.809   1.483   5.961  1.2664  0.1680  0.5001
  128OSM    C1113662   6.893   1.328   6.083  0.2143 -0.3638 -0.8688
  128OSM   H11A13663   6.860   1.230   6.123  0.6269 -0.0445  0.3197
  128OSM   H11B13664   6.902   1.397   6.169  1.2056 -0.0170 -1.2356
  128OSM      P13665   7.104   1.444   5.996 -0.1929 -0.0295  0.0343
  128OSM    O1313666   7.239   1.412   5.940  0.1934  0.3488 -0.2429
  128OSM    O1413667   7.029   1.552   5.932 -0.7519 -0.2524  0.3265
  128OSM    O1113668   7.134   1.496   6.144 -0.2014 -0.7471  0.1991
  128OSM    O1213669   7.025   1.316   6.022  0.5503  0.5116  0.3026
  128OSM    C1S13670   7.232   1.434   6.237  0.2382 -0.3324 -0.1586
  128OSM    H1S13671   7.285   1.349   6.189 -1.2830 -2.3558  1.5384
  128OSM    H1T13672   7.185   1.393   6.329 -3.5856  1.7506 -0.9699
  128OSM     NF13673   7.451   1.456   6.350  0.0303 -0.1871 -0.0044
  128OSM    HNF13674   7.459   1.479   6.446 -0.7168 -3.2522  0.9167
  128OSM    C2S13675   7.347   1.531   6.278  0.2293  0.6902 -0.2002
  128OSM    H2S13676   7.402   1.570   6.190  2.1320  1.7533  1.3739
  128OSM    C3S13677   7.294   1.665   6.345 -0.8499  0.9782 -0.3285
  128OSM    H3S13678   7.227   1.647   6.432 -1.3844  1.2223 -0.6857
  128OSM     O313679   7.217   1.743   6.259  0.0304 -0.4208 -0.2623
  128OSM    HO313680   7.193   1.683   6.188  1.3299 -2.3887  0.8675
  128OSM    C4S13681   7.407   1.744   6.396  0.1433  0.0998  0.1823
  128OSM    H4S13682   7.458   1.795   6.312 -0.0514 -1.7477 -1.1077
  128OSM    C5S13683   7.436   1.788   6.518 -0.2108  0.5530 -0.6624
  128OSM    H5S13684   7.367   1.765   6.601  2.5354 -0.6167  1.4722
  128OSM    C6S13685   7.546   1.889   6.544  0.6871 -0.2810  0.5383
  128OSM    H6S13686   7.577   1.934   6.447 -1.9602 -0.5670 -0.5158
  128OSM    H6T13687   7.630   1.838   6.596  0.5329 -0.1590  0.9057
  128OSM    C7S13688   7.509   2.015   6.632 -0.4337  0.0790 -0.4562
  128OSM    H7S13689   7.409   2.060   6.616  0.2726  2.0888  0.5241
  128OSM    H7T13690   7.577   2.097   6.600 -1.1213  0.2752 -1.4358
  128OSM    C8S13691   7.531   1.995   6.782  0.1099  0.8232  0.3532
  128OSM    H8S13692   7.625   1.938   6.797 -1.1193 -1.0981  1.3177
  128OSM    H8T13693   7.444   1.938   6.822  0.4764  0.1276  0.1689
  128OSM    C9S13694   7.545   2.125   6.862  0.2470  0.4452 -0.6518
  128OSM    H9S13695   7.467   2.197   6.829  1.2482  1.8376 -0.0785
  128OSM    H9T13696   7.633   2.185   6.828 -0.0463  0.4450 -1.4138
  128OSM   C10S13697   7.546   2.110   7.013 -0.4920 -0.0467  0.3031
  128OSM   H10S13698   7.634   2.053   7.050  0.1309  0.7568  0.0790
  128OSM   H10T13699   7.459   2.048   7.044 -1.6515  0.4311 -1.8487
  128OSM   C11S13700   7.536   2.241   7.090 -0.0803 -0.3213 -0.2115
  128OSM   H11S13701   7.448   2.304   7.063  0.4121  0.4597 -0.0256
  128OSM   H11T13702   7.628   2.296   7.061 -0.9874  0.3524 -1.9348
  128OSM   C12S13703   7.531   2.213   7.237  0.0729 -1.2423  0.6616
  128OSM   H12S13704   7.626   2.169   7.274  0.7887 -0.7233 -0.4972
  128OSM   H12T13705   7.447   2.144   7.260 -1.5062  0.8049  1.4185
  128OSM   C13S13706   7.511   2.352   7.305  0.0861  0.8161  0.2211
  128OSM   H13S13707   7.404   2.380   7.313 -0.2170 -0.5265  1.3889
  128OSM   H13T13708   7.580   2.429   7.265  0.3986  0.8308  0.7736
  128OSM   C14S13709   7.544   2.341   7.460 -0.4300 -0.1062 -0.2469
  128OSM   H14S13710   7.651   2.316   7.473 -0.6521 -1.1236 -0.2982
  128OSM   H14T13711   7.492   2.253   7.504  3.2794 -0.3281  4.6474
  128OSM   C15S13712   7.505   2.468   7.536  0.2608 -0.3489  0.3300
  128OSM   H15S13713   7.395   2.477   7.526  0.0541 -2.5512  0.0520
  128OSM   H15T13714   7.551   2.555   7.485 -0.0884  0.4771  1.4077
  128OSM   C16S13715   7.540   2.461   7.683  0.0959  0.4020 -0.1989
  128OSM   H16S13716   7.650   2.474   7.694 -0.1164  1.0051  1.4439
  128OSM   H16T13717   7.516   2.362   7.728  0.3740  0.2927 -0.2876
  128OSM   C17S13718   7.460   2.563   7.758 -0.5915  0.0176 -0.6429
  128OSM   H17S13719   7.352   2.552   7.737 -1.0897 -0.5523  1.9165
  128OSM   H17T13720   7.485   2.666   7.723 -0.6381  1.0783  2.1688
  128OSM   C18S13721   7.477   2.568   7.906  0.1859  0.8936 -0.1675
  128OSM   H18S13722   7.478   2.462   7.937 -0.2101  0.3956 -1.7966
  128OSM   H18T13723   7.407   2.626   7.970 -0.6899  0.6394 -0.8954
  128OSM   H18U13724   7.580   2.599   7.937  0.3213 -1.0336  1.5266
  128OSM    C1F13725   7.543   1.375   6.292  0.0789  0.2485  0.3516
  128OSM     OF13726   7.530   1.350   6.170 -0.2158  0.0161 -0.0917
  128OSM    C2F13727   7.649   1.324   6.383 -0.6293  0.1152 -0.8300
  128OSM    H2F13728   7.745   1.319   6.328  0.2365 -1.7533  0.7256
  128OSM    H2G13729   7.646   1.215   6.405  1.6444  0.2569  0.4557
  128OSM    C3F13730   7.655   1.402   6.516 -0.3608 -0.7288 -0.4427
  128OSM    H3F13731   7.572   1.378   6.587 -0.2619 -1.6218 -0.6228
  128OSM    H3G13732   7.648   1.512   6.501  1.8733 -0.5157 -0.2623
  128OSM    C4F13733   7.786   1.378   6.591  0.1921  0.6142  0.1189
  128OSM    H4F13734   7.875   1.407   6.531 -0.9433  2.2358 -0.8512
  128OSM    H4G13735   7.794   1.267   6.593  1.2488  0.6773  1.5418
  128OSM    C5F13736   7.800   1.438   6.737 -0.0178  0.4619  0.4683
  128OSM    H5F13737   7.789   1.549   6.729 -0.2951  0.7974  3.9785
  128OSM    H5G13738   7.906   1.424   6.766  0.7381 -1.1569 -2.6782
  128OSM    C6F13739   7.698   1.377   6.830  0.7063  0.2496  0.6636
  128OSM    H6F13740   7.713   1.267   6.825 -2.1436 -0.3480  2.4441
  128OSM    H6G13741   7.592   1.394   6.801  1.0094  0.3459 -0.4428
  128OSM    C7F13742   7.732   1.409   6.972  0.1932  0.0598 -0.2306
  128OSM    H7F13743   7.841   1.395   6.987  0.0057  0.5542  1.8919
  128OSM    H7G13744   7.679   1.335   7.037  2.4056 -0.1627  1.4455
  128OSM    C8F13745   7.703   1.548   7.025  0.2574  0.1909 -0.3200
  128OSM    H8F13746   7.733   1.627   6.953 -1.5595  1.9469  0.7293
  128OSM    H8G13747   7.758   1.554   7.122  0.2382 -3.2971  0.0478
  128OSM    C9F13748   7.562   1.574   7.064  0.0824 -0.9131  0.1590
  128OSM    H9F13749   7.488   1.569   6.982 -0.4595 -3.3631  0.6928
  128OSM   C10F13750   7.522   1.624   7.187  0.7880  0.3281  0.3349
  128OSM   H10F13751   7.412   1.626   7.195  0.5673 -3.6316  0.5188
  128OSM   C11F13752   7.600   1.651   7.315  1.0685 -0.6673 -0.3622
  128OSM   H11F13753   7.688   1.717   7.299  0.1258  1.4773  2.4527
  128OSM   H11G13754   7.632   1.549   7.343 -0.0022 -0.6094  1.1916
  128OSM   C12F13755   7.513   1.710   7.426 -0.2016 -0.2865 -0.0479
  128OSM   H12F13756   7.562   1.692   7.524 -1.4259 -0.6334  0.5131
  128OSM   H12G13757   7.414   1.661   7.434  0.0248 -0.5368  1.7394
  128OSM   C13F13758   7.480   1.857   7.397  0.6703 -0.1627  0.2044
  128OSM   H13F13759   7.420   1.870   7.304  1.7284  0.8015 -0.3613
  128OSM   H13G13760   7.576   1.908   7.376  0.1339  0.0488 -1.9475
  128OSM   C14F13761   7.398   1.926   7.514 -0.3577  0.2318 -0.1788
  128OSM   H14F13762   7.306   1.870   7.541 -0.3700  1.6113  3.0352
  128OSM   H14G13763   7.366   2.027   7.481 -1.3754 -0.9344 -3.2051
  128OSM   C15F13764   7.463   1.943   7.653  0.6131 -0.1410 -0.6413
  128OSM   H15F13765   7.549   2.014   7.648  1.5841 -1.3415 -1.4467
  128OSM   H15G13766   7.504   1.844   7.681 -2.5780 -0.7693  2.3932
  128OSM   C16F13767   7.365   1.984   7.766  0.0706  0.1359  0.0986
  128OSM   H16F13768   7.411   1.980   7.867  0.9739  2.3725 -0.1804
  128OSM   H16G13769   7.287   1.905   7.774  0.4045 -0.4604 -1.9087
  128OSM   C17F13770   7.299   2.123   7.744  0.1791 -0.4433 -0.2482
  128OSM   H17F13771   7.251   2.125   7.644 -0.5503  1.0744  0.1048
  128OSM   H17G13772   7.383   2.195   7.759 -0.3781 -0.2843  2.5658
  128OSM   C18F13773   7.184   2.143   7.845  0.2363  0.3171 -0.1325
  128OSM   H18F13774   7.118   2.058   7.820  0.4701  0.7014 -2.2885
  128OSM   H18G13775   7.122   2.234   7.829 -2.3607 -1.2759  0.2777
  128OSM   H18H13776   7.212   2.133   7.952  1.0134 -1.0994 -0.4407
  129OSM      N13777   5.459   2.770   5.713  0.6805 -0.3710  0.7261
  129OSM    C1513778   5.439   2.811   5.565 -0.2016  0.0380  0.6599
  129OSM   H15A13779   5.474   2.911   5.546 -2.0057  0.1889 -2.5004
  129OSM   H15B13780   5.337   2.818   5.532  0.4659  0.3386 -1.4762
  129OSM   H15C13781   5.488   2.752   5.489 -0.5072  1.2070 -0.4656
  129OSM    C1413782   5.594   2.808   5.761  0.4197 -1.1119  0.8240
  129OSM   H14A13783   5.666   2.742   5.716  0.0850  0.5318 -2.4128
  129OSM   H14B13784   5.596   2.798   5.869 -0.7390 -0.3563  0.9328
  129OSM   H14C13785   5.626   2.903   5.722 -0.7226 -1.1084 -0.1535
  129OSM    C1313786   5.361   2.857   5.778 -0.9003  0.0507 -0.2949
  129OSM   H13A13787   5.355   2.829   5.882  0.6437 -2.2706 -0.7623
  129OSM   H13B13788   5.260   2.844   5.742 -1.8637  2.2335  1.3223
  129OSM   H13C13789   5.379   2.964   5.781 -1.0536  0.0725 -0.1441
  129OSM    C1213790   5.417   2.627   5.727 -0.2444  0.3232 -0.8503
  129OSM   H12A13791   5.480   2.577   5.655  1.3691  3.0023 -1.4335
  129OSM   H12B13792   5.314   2.621   5.693 -0.3565  0.1538 -0.4845
  129OSM    C1113793   5.444   2.564   5.869  0.1452 -0.3199  0.3425
  129OSM   H11A13794   5.374   2.478   5.866 -0.6410  0.3209 -0.5555
  129OSM   H11B13795   5.411   2.633   5.949  1.3894 -0.4114  0.9444
  129OSM      P13796   5.657   2.555   6.019 -0.4213  0.3387 -0.3059
  129OSM    O1313797   5.722   2.425   6.051 -0.5299 -0.5290  0.3177
  129OSM    O1413798   5.753   2.665   6.001 -0.2147 -0.0574 -0.1206
  129OSM    O1113799   5.564   2.595   6.136  0.3553 -0.1750  0.5805
  129OSM    O1213800   5.578   2.531   5.889 -0.5586 -0.0225 -0.3031
  129OSM    C1S13801   5.617   2.612   6.270  0.6655  0.7695  0.8592
  129OSM    H1S13802   5.682   2.702   6.273 -0.3580  1.5341  0.7637
  129OSM    H1T13803   5.669   2.521   6.307  1.1743  0.3316 -0.8792
  129OSM     NF13804   5.566   2.702   6.495  0.6066  0.0219 -0.1780
  129OSM    HNF13805   5.566   2.636   6.569  1.1062  1.4128  1.1240
  129OSM    C2S13806   5.508   2.654   6.371  0.6597 -0.3762  0.6371
  129OSM    H2S13807   5.455   2.740   6.324 -1.7549 -1.5401  1.0745
  129OSM    C3S13808   5.402   2.546   6.381  1.0839  0.4796 -0.1672
  129OSM    H3S13809   5.439   2.465   6.447 -2.0434 -0.0282  1.1329
  129OSM     O313810   5.362   2.496   6.255 -0.2907  0.0006  0.0318
  129OSM    HO313811   5.424   2.529   6.190  0.2692 -1.7971 -0.4018
  129OSM    C4S13812   5.277   2.599   6.455  0.0699  0.6558 -0.3247
  129OSM    H4S13813   5.254   2.706   6.445 -3.9566  0.7886  5.6103
  129OSM    C5S13814   5.197   2.527   6.540  0.1060  0.5538  1.1929
  129OSM    H5S13815   5.226   2.423   6.560 -1.2497 -0.0659  0.0688
  129OSM    C6S13816   5.076   2.573   6.603 -0.5501 -0.1825 -0.2517
  129OSM    H6S13817   4.990   2.507   6.579 -0.4419 -0.8687  1.1171
  129OSM    H6T13818   5.063   2.677   6.567  1.0119 -0.1622 -0.8197
  129OSM    C7S13819   5.088   2.582   6.758 -0.0083  0.1023  0.2601
  129OSM    H7S13820   5.179   2.639   6.788 -1.8815  1.9670  2.9673
  129OSM    H7T13821   5.096   2.479   6.797  0.3369 -0.4632 -1.2707
  129OSM    C8S13822   4.969   2.651   6.825 -0.3555 -0.4703 -0.1724
  129OSM    H8S13823   4.870   2.607   6.797  0.0733 -1.4545 -0.1598
  129OSM    H8T13824   4.966   2.757   6.792  0.6739 -0.0731  0.9468
  129OSM    C9S13825   4.972   2.649   6.980  0.2180 -0.0730  0.2699
  129OSM    H9S13826   5.072   2.692   7.004 -0.9420  2.1596  1.2973
  129OSM    H9T13827   4.972   2.548   7.026 -0.1541  0.1228  0.6989
  129OSM   C10S13828   4.869   2.744   7.044 -0.4429  0.5177  0.0621
  129OSM   H10S13829   4.761   2.719   7.031 -0.6468  1.0195  0.7592
  129OSM   H10T13830   4.880   2.838   6.985  1.1391 -0.6871 -1.6586
  129OSM   C11S13831   4.917   2.762   7.186 -0.5862  0.3672  0.1721
  129OSM   H11S13832   4.854   2.849   7.215  0.2224  0.8040  0.6586
  129OSM   H11T13833   5.025   2.787   7.195 -0.5290  0.6479 -1.0565
  129OSM   C12S13834   4.879   2.646   7.282  0.2278  0.0152  1.0238
  129OSM   H12S13835   4.931   2.548   7.270  0.4212  0.0568  1.5323
  129OSM   H12T13836   4.771   2.625   7.262  0.5790  0.5583 -1.9054
  129OSM   C13S13837   4.908   2.680   7.429 -0.0043 -0.5325 -0.5256
  129OSM   H13S13838   4.840   2.625   7.498 -0.1467  0.3961  0.0928
  129OSM   H13T13839   4.886   2.788   7.445 -2.3288 -1.2021  1.2296
  129OSM   C14S13840   5.053   2.650   7.475  0.4596 -0.0346 -0.2125
  129OSM   H14S13841   5.130   2.720   7.435  0.0277  0.5662 -0.0101
  129OSM   H14T13842   5.068   2.546   7.438  0.1617 -0.7861  1.6784
  129OSM   C15S13843   5.078   2.641   7.626 -0.0523  0.1599 -0.3346
  129OSM   H15S13844   5.188   2.643   7.634  0.1714 -2.7740 -1.3486
  129OSM   H15T13845   5.037   2.544   7.661 -0.2655  0.8692  1.4790
  129OSM   C16S13846   5.012   2.753   7.705 -0.4390  0.6707  0.4090
  129OSM   H16S13847   4.902   2.746   7.695 -0.2685 -3.6145 -0.5048
  129OSM   H16T13848   5.052   2.846   7.658  0.3259 -0.0708 -0.4376
  129OSM   C17S13849   5.054   2.746   7.851 -0.0773  0.6305 -0.6806
  129OSM   H17S13850   5.053   2.847   7.897 -0.2024  0.0372  0.6853
  129OSM   H17T13851   5.158   2.710   7.864 -0.8119 -2.6781 -2.6289
  129OSM   C18S13852   4.950   2.664   7.933 -0.1930  0.4872 -0.0733
  129OSM   H18S13853   4.957   2.554   7.918  0.0813  0.2496  1.5386
  129OSM   H18T13854   4.847   2.698   7.912 -0.4117  0.1002  0.3464
  129OSM   H18U13855   4.963   2.681   8.042 -0.4262  0.8739 -0.1037
  129OSM    C1F13856   5.634   2.812   6.506  0.7337 -0.7845 -0.1687
  129OSM     OF13857   5.617   2.908   6.427 -0.1357 -0.3528  0.0139
  129OSM    C2F13858   5.734   2.818   6.622  0.2410  0.4282 -0.1252
  129OSM    H2F13859   5.821   2.754   6.597  0.8893  1.5636 -0.8912
  129OSM    H2G13860   5.694   2.774   6.715  2.1082  0.2549  0.6374
  129OSM    C3F13861   5.765   2.971   6.651 -0.7187  0.1239 -0.3868
  129OSM    H3F13862   5.672   3.031   6.643 -0.2056  0.8831 -0.7772
  129OSM    H3G13863   5.833   3.012   6.573  1.0445  1.5795  1.7781
  129OSM    C4F13864   5.851   2.996   6.776  0.0420  0.4016  0.2753
  129OSM    H4F13865   5.911   3.089   6.763 -0.8209  0.9325  0.0299
  129OSM    H4G13866   5.918   2.908   6.776 -1.2438 -0.6103  1.7898
  129OSM    C5F13867   5.779   2.998   6.909  0.6765 -0.2146  0.1889
  129OSM    H5F13868   5.685   2.940   6.901 -0.7513  2.1620 -1.3405
  129OSM    H5G13869   5.740   3.101   6.925  1.2231 -0.2548  2.0399
  129OSM    C6F13870   5.858   2.976   7.041  0.9392  0.2807  0.0344
  129OSM    H6F13871   5.790   2.989   7.128  0.4139  2.0009 -0.5745
  129OSM    H6G13872   5.925   3.063   7.061 -1.7888  2.3310  0.8508
  129OSM    C7F13873   5.917   2.835   7.060  0.4479  0.3150 -1.0142
  129OSM    H7F13874   5.945   2.827   7.167 -0.1319  0.1681 -0.8733
  129OSM    H7G13875   6.012   2.817   7.005  2.6459  0.3889  2.4505
  129OSM    C8F13876   5.818   2.717   7.030 -0.4434 -0.1702 -0.6849
  129OSM    H8F13877   5.804   2.706   6.921 -1.8785 -1.4159 -0.4077
  129OSM    H8G13878   5.718   2.743   7.069  0.7780  1.8369  1.3477
  129OSM    C9F13879   5.867   2.579   7.080 -0.6128  0.5798  0.4474
  129OSM    H9F13880   5.930   2.516   7.016 -0.5059 -1.4108  2.3880
  129OSM   C10F13881   5.845   2.522   7.201  0.4377 -0.8193  0.1120
  129OSM   H10F13882   5.897   2.429   7.229  0.2363 -1.3149 -1.0766
  129OSM   C11F13883   5.781   2.588   7.315  0.3605 -0.6354  0.1943
  129OSM   H11F13884   5.685   2.534   7.330  1.1839 -1.8561  1.3295
  129OSM   H11G13885   5.774   2.696   7.288  0.4181 -0.7350 -0.2243
  129OSM   C12F13886   5.859   2.577   7.450  0.4520  0.1416 -0.2575
  129OSM   H12F13887   5.965   2.607   7.434  0.9910 -0.3898  1.9709
  129OSM   H12G13888   5.865   2.469   7.472  2.5307  0.5016  1.2684
  129OSM   C13F13889   5.810   2.647   7.582 -0.1233  0.0629  0.4996
  129OSM   H13F13890   5.721   2.588   7.612 -0.5693 -0.4237 -1.6212
  129OSM   H13G13891   5.791   2.755   7.565  1.2734 -0.0882 -2.7751
  129OSM   C14F13892   5.915   2.637   7.691 -0.0983  0.8868 -0.1952
  129OSM   H14F13893   6.019   2.661   7.660  0.3702  0.7286  1.1940
  129OSM   H14G13894   5.921   2.533   7.730 -2.0398  0.4599 -0.9010
  129OSM   C15F13895   5.879   2.720   7.811  0.9630  0.5603  0.6888
  129OSM   H15F13896   5.788   2.673   7.855  1.3112  0.8531  1.7376
  129OSM   H15G13897   5.854   2.827   7.791  2.8947  0.6815 -1.5008
  129OSM   C16F13898   6.003   2.737   7.905 -0.2952  0.3910  0.6212
  129OSM   H16F13899   6.072   2.808   7.855 -0.1529 -0.3957 -0.3285
  129OSM   H16G13900   6.063   2.644   7.910 -0.1402  0.4100 -0.6070
  129OSM   C17F13901   5.965   2.785   8.050 -0.8097 -0.6984  0.1088
  129OSM   H17F13902   6.061   2.791   8.106 -0.9482  1.2205  0.1824
  129OSM   H17G13903   5.902   2.707   8.099 -0.0404 -1.0277  0.6008
  129OSM   C18F13904   5.892   2.917   8.062  0.5661 -0.0863 -0.0024
  129OSM   H18F13905   5.923   2.988   7.982  0.1960 -0.9835 -0.9756
  129OSM   H18G13906   5.902   2.966   8.161 -1.0645 -0.9795  0.6495
  129OSM   H18H13907   5.783   2.898   8.048  0.3784  0.8494  0.0759
  130OSM      N13908   4.879   4.976   5.415 -1.2163  0.2657 -0.3732
  130OSM    C1513909   4.939   5.110   5.410  0.3083 -0.0173  0.2266
  130OSM   H15A13910   5.008   5.128   5.329 -0.8546 -0.6467 -0.9355
  130OSM   H15B13911   4.986   5.140   5.503  2.7164  2.3092 -1.5841
  130OSM   H15C13912   4.857   5.180   5.403  0.1266 -0.3235 -0.9528
  130OSM    C1413913   4.813   4.946   5.282 -0.1765  0.3249 -0.8881
  130OSM   H14A13914   4.721   5.001   5.274 -0.5159 -0.4558 -3.3239
  130OSM   H14B13915   4.801   4.839   5.271  0.3750  0.0238  1.1843
  130OSM   H14C13916   4.877   4.992   5.208 -0.7202  2.0747 -0.3172
  130OSM    C1313917   4.998   4.883   5.422 -0.1484 -0.1262 -0.1536
  130OSM   H13A13918   4.959   4.783   5.413  1.5053 -0.7059 -1.1190
  130OSM   H13B13919   5.040   4.902   5.520 -2.9713 -0.2542  1.1903
  130OSM   H13C13920   5.071   4.909   5.347 -0.0310  2.3668  0.7346
  130OSM    C1213921   4.787   4.957   5.528  0.0445 -0.3209  0.0822
  130OSM   H12A13922   4.760   4.853   5.533  0.6467 -0.4892 -0.1520
  130OSM   H12B13923   4.693   5.008   5.514 -0.8599 -1.5650  1.3199
  130OSM    C1113924   4.840   5.011   5.668  0.4573  0.1139 -0.4605
  130OSM   H11A13925   4.938   4.964   5.688  0.0507 -0.7224 -0.3739
  130OSM   H11B13926   4.770   4.971   5.744 -0.7553  2.3060 -0.3346
  130OSM      P13927   4.718   5.239   5.695  0.1836  0.2845 -0.4226
  130OSM    O1313928   4.750   5.374   5.736  1.1704  0.2302 -0.6164
  130OSM    O1413929   4.639   5.219   5.567 -0.0842  0.4782  0.4181
  130OSM    O1113930   4.641   5.166   5.814 -0.0531  0.1692  0.0554
  130OSM    O1213931   4.848   5.153   5.681  0.2957 -0.0791 -0.2406
  130OSM    C1S13932   4.686   5.170   5.954 -0.1604 -0.5465  0.2089
  130OSM    H1S13933   4.764   5.246   5.976 -1.7142  1.3293 -0.5012
  130OSM    H1T13934   4.722   5.069   5.984  0.1727  0.3314  3.0149
  130OSM     NF13935   4.625   5.241   6.185  0.0477  0.0681  0.8060
  130OSM    HNF13936   4.601   5.182   6.262 -0.8230  0.3651  0.7674
  130OSM    C2S13937   4.569   5.212   6.053 -1.2210  0.6624 -0.0498
  130OSM    H2S13938   4.526   5.305   6.010  0.1462  0.6957 -1.4403
  130OSM    C3S13939   4.453   5.107   6.054  0.6455  0.9130 -0.4449
  130OSM    H3S13940   4.492   5.009   6.090 -1.3607  0.0089 -0.6105
  130OSM     O313941   4.403   5.076   5.923 -0.1260 -0.5718  0.5304
  130OSM    HO313942   4.457   5.127   5.863 -0.3374  1.2097  1.7753
  130OSM    C4S13943   4.342   5.134   6.146 -0.0103  0.6294 -0.0337
  130OSM    H4S13944   4.371   5.092   6.243  0.1044  0.6986 -0.0367
  130OSM    C5S13945   4.220   5.190   6.125  0.7431 -0.1305 -0.6880
  130OSM    H5S13946   4.187   5.198   6.020 -1.3967  1.6946  0.0227
  130OSM    C6S13947   4.106   5.212   6.220 -1.1119  0.5957 -0.3451
  130OSM    H6S13948   4.016   5.158   6.186 -0.5768 -0.9929  0.6416
  130OSM    H6T13949   4.074   5.318   6.221 -1.2013  0.7175  3.8216
  130OSM    C7S13950   4.137   5.172   6.370 -0.1599  0.6323  0.1971
  130OSM    H7S13951   4.228   5.227   6.400  0.3571  0.1183 -0.4049
  130OSM    H7T13952   4.146   5.062   6.382  0.7619  0.8074  1.2685
  130OSM    C8S13953   4.022   5.221   6.462  0.8489  0.0173  0.4207
  130OSM    H8S13954   3.936   5.157   6.434  0.6865  0.9758 -1.4290
  130OSM    H8T13955   4.001   5.326   6.432  0.8833 -0.5031 -1.5689
  130OSM    C9S13956   4.071   5.204   6.609 -0.6736 -0.1015 -0.7760
  130OSM    H9S13957   4.162   5.266   6.621 -2.0085  1.6138  1.0012
  130OSM    H9T13958   4.095   5.096   6.626  2.5276  0.7714  1.2423
  130OSM   C10S13959   3.964   5.244   6.709  1.0694 -0.2856  0.0665
  130OSM   H10S13960   3.878   5.177   6.684  0.8304 -0.1389  0.4933
  130OSM   H10T13961   3.929   5.345   6.676  1.8049 -0.5422 -1.6042
  130OSM   C11S13962   4.006   5.246   6.854 -0.0625  0.4126  0.4874
  130OSM   H11S13963   4.098   5.308   6.858  0.4187 -0.2684  0.2309
  130OSM   H11T13964   4.031   5.140   6.878  0.9828  0.1587 -1.5465
  130OSM   C12S13965   3.895   5.302   6.953 -0.3935 -0.2123 -0.3291
  130OSM   H12S13966   3.802   5.241   6.957 -1.9391  2.0615  2.0390
  130OSM   H12T13967   3.881   5.408   6.925  2.9478  0.1017 -1.1470
  130OSM   C13S13968   3.942   5.296   7.099 -0.2917  0.6640  0.3603
  130OSM   H13S13969   4.044   5.339   7.112  0.4602 -0.8400 -0.2762
  130OSM   H13T13970   3.940   5.187   7.124 -3.8731  0.6475  0.4282
  130OSM   C14S13971   3.839   5.358   7.190  0.7360  0.0139 -0.4400
  130OSM   H14S13972   3.746   5.297   7.185 -0.5092  1.8947 -1.8005
  130OSM   H14T13973   3.799   5.449   7.140 -1.9327 -0.7528  0.1420
  130OSM   C15S13974   3.890   5.369   7.332  0.8703 -0.2782 -0.3412
  130OSM   H15S13975   3.968   5.446   7.350  0.9744 -0.8521  1.9449
  130OSM   H15T13976   3.933   5.272   7.366  0.1908 -0.0901  1.1086
  130OSM   C16S13977   3.780   5.420   7.431  0.0678 -0.7057 -0.1084
  130OSM   H16S13978   3.689   5.372   7.390 -0.4279 -2.4214  2.6874
  130OSM   H16T13979   3.770   5.528   7.408 -1.1639 -0.9243 -0.6761
  130OSM   C17S13980   3.801   5.384   7.577 -0.4580  0.1730  0.6918
  130OSM   H17S13981   3.891   5.439   7.610  1.7335 -1.9091 -1.4134
  130OSM   H17T13982   3.820   5.275   7.583 -3.7778 -0.4862  1.5595
  130OSM   C18S13983   3.674   5.414   7.663  0.0586 -0.1851  0.2586
  130OSM   H18S13984   3.635   5.517   7.656 -0.6047 -0.3071  1.7853
  130OSM   H18T13985   3.691   5.389   7.770 -2.2213 -1.3179  0.4100
  130OSM   H18U13986   3.590   5.352   7.624  2.1183 -3.1167  0.0854
  130OSM    C1F13987   4.659   5.368   6.211  0.4330 -0.2706  0.3526
  130OSM     OF13988   4.626   5.457   6.136 -0.0158 -0.4241 -0.8521
  130OSM    C2F13989   4.725   5.398   6.337  0.3681  0.2452  0.4880
  130OSM    H2F13990   4.792   5.313   6.364  0.5849 -0.6097 -2.3583
  130OSM    H2G13991   4.637   5.412   6.402  0.8916 -1.5077  1.6431
  130OSM    C3F13992   4.815   5.526   6.325  0.1710  0.8485  0.5518
  130OSM    H3F13993   4.760   5.611   6.281 -0.5012  0.1611  0.0244
  130OSM    H3G13994   4.904   5.493   6.268 -0.5055 -1.9401  0.9281
  130OSM    C4F13995   4.865   5.571   6.465  0.1672 -0.3690 -0.3604
  130OSM    H4F13996   4.779   5.600   6.530 -2.1983 -2.1767 -2.4664
  130OSM    H4G13997   4.925   5.662   6.444  1.3896 -0.8977  0.7026
  130OSM    C5F13998   4.956   5.478   6.554  0.0277 -0.4113  0.4772
  130OSM    H5F13999   5.041   5.441   6.492  0.4366  0.5254  0.4652
  130OSM    H5G14000   4.898   5.390   6.590  2.3828 -2.4206 -0.3972
  130OSM    C6F14001   5.005   5.553   6.674  0.4725 -0.2643  0.3790
  130OSM    H6F14002   5.064   5.637   6.631  0.0725 -1.0844 -1.8760
  130OSM    H6G14003   5.084   5.492   6.723  2.4194  1.6097 -0.2561
  130OSM    C7F14004   4.911   5.596   6.780 -0.1042 -0.4539 -0.0954
  130OSM    H7F14005   4.835   5.668   6.742  0.8227  0.6127  0.0237
  130OSM    H7G14006   4.964   5.659   6.854  1.1935  2.9528 -3.5737
  130OSM    C8F14007   4.844   5.473   6.858  0.2232 -0.2975 -0.0448
  130OSM    H8F14008   4.911   5.447   6.943 -0.7779  0.5952  1.0277
  130OSM    H8G14009   4.840   5.394   6.779  1.0874 -0.6793  0.2759
  130OSM    C9F14010   4.707   5.513   6.903  0.4762  0.0571  0.0207
  130OSM    H9F14011   4.647   5.551   6.819 -0.1630 -2.7521 -0.8787
  130OSM   C10F14012   4.657   5.497   7.026  0.1382 -0.5796  0.4135
  130OSM   H10F14013   4.551   5.522   7.045  0.7466  0.9804  1.9529
  130OSM   C11F14014   4.724   5.458   7.155  0.1941  0.8825  0.9396
  130OSM   H11F14015   4.832   5.480   7.153  0.0074  1.9864  1.8240
  130OSM   H11G14016   4.718   5.347   7.163 -0.4772  0.7925 -0.5377
  130OSM   C12F14017   4.659   5.516   7.282 -0.3939 -0.1199 -0.1538
  130OSM   H12F14018   4.552   5.489   7.275 -0.9399  1.5532  1.2224
  130OSM   H12G14019   4.687   5.624   7.282  0.0464 -0.1953 -2.1246
  130OSM   C13F14020   4.717   5.455   7.407 -0.2059  0.3762 -0.4917
  130OSM   H13F14021   4.826   5.455   7.387 -0.2706  1.9821 -0.9326
  130OSM   H13G14022   4.704   5.346   7.426 -1.7170  0.6804  0.4496
  130OSM   C14F14023   4.670   5.518   7.536  0.2543 -0.1347 -0.1949
  130OSM   H14F14024   4.560   5.528   7.536  0.2342  0.1962  2.0305
  130OSM   H14G14025   4.714   5.620   7.537  0.8144 -0.3728  0.2933
  130OSM   C15F14026   4.707   5.432   7.658 -0.5047 -0.1828  0.0235
  130OSM   H15F14027   4.814   5.405   7.662  0.3137  2.6237 -0.2970
  130OSM   H15G14028   4.647   5.339   7.651  2.5538 -2.4739  1.7362
  130OSM   C16F14029   4.677   5.500   7.787  0.4644  0.0044 -0.7714
  130OSM   H16F14030   4.572   5.535   7.790  0.3494 -0.3382 -0.8037
  130OSM   H16G14031   4.738   5.593   7.786  2.0140 -0.9303  0.8738
  130OSM   C17F14032   4.718   5.414   7.913 -0.0853 -0.0146  0.2562
  130OSM   H17F14033   4.826   5.391   7.900 -0.1143  0.3900 -0.8672
  130OSM   H17G14034   4.654   5.323   7.911 -1.0380  0.6318  0.3200
  130OSM   C18F14035   4.691   5.482   8.042  0.1552  0.3161 -0.1893
  130OSM   H18F14036   4.733   5.415   8.120  1.7329 -0.9552 -2.0480
  130OSM   H18G14037   4.581   5.496   8.053  0.1441 -1.0297  1.9036
  130OSM   H18H14038   4.745   5.579   8.040  0.6551  0.0536  0.2909
  131OSM      N14039   0.326   3.734   5.576  0.7390  0.1481  0.1934
  131OSM    C1514040   0.471   3.730   5.584 -0.1407 -0.0693  0.1235
  131OSM   H15A14041   0.516   3.803   5.650  0.8407  1.2558 -1.9047
  131OSM   H15B14042   0.517   3.728   5.487  0.7866 -0.0538  0.5456
  131OSM   H15C14043   0.497   3.634   5.627 -1.0153 -0.9783 -1.3122
  131OSM    C1414044   0.281   3.630   5.477  0.2029  0.1066 -1.2142
  131OSM   H14A14045   0.332   3.535   5.484 -0.7144 -0.2981  0.6445
  131OSM   H14B14046   0.304   3.667   5.378  2.2329  2.4452  0.0055
  131OSM   H14C14047   0.174   3.625   5.490  0.4565 -1.8975  0.5742
  131OSM    C1314048   0.282   3.706   5.713 -0.4171  0.1341 -0.7194
  131OSM   H13A14049   0.175   3.703   5.722 -0.3264  0.7108  0.7935
  131OSM   H13B14050   0.319   3.781   5.781  0.0909  1.4743 -2.4003
  131OSM   H13C14051   0.310   3.606   5.743 -1.1530 -0.4842 -1.9845
  131OSM    C1214052   0.264   3.875   5.532  0.0636  0.1063 -0.3140
  131OSM   H12A14053   0.157   3.869   5.536  0.1250 -0.8786 -0.0341
  131OSM   H12B14054   0.300   3.905   5.434  1.7985 -2.2776 -0.4864
  131OSM    C1114055   0.292   4.001   5.614  0.2554  0.4693  0.0929
  131OSM   H11A14056   0.262   3.966   5.715 -2.3273  1.5193 -0.2332
  131OSM   H11B14057   0.224   4.083   5.584 -0.6019 -0.2312  0.0601
  131OSM      P14058   0.474   4.122   5.721  0.1379  0.0289 -0.1141
  131OSM    O1314059   0.590   4.051   5.782 -0.0266 -0.4133 -0.0413
  131OSM    O1414060   0.494   4.260   5.665 -0.4163  0.0921 -0.3850
  131OSM    O1114061   0.369   4.123   5.833 -0.4143 -0.0744  0.1816
  131OSM    O1214062   0.421   4.028   5.608 -0.2287  0.3842  0.1232
  131OSM    C1S14063   0.356   4.042   5.954 -0.1139  0.3356 -0.4230
  131OSM    H1S14064   0.445   3.977   5.962 -1.2103 -1.3224 -1.1928
  131OSM    H1T14065   0.266   3.977   5.952  0.8772 -1.0804 -1.4777
  131OSM     NF14066   0.368   4.040   6.192 -0.4815 -0.0760  0.6857
  131OSM    HNF14067   0.287   4.007   6.239  0.4618 -0.2688  2.2755
  131OSM    C2S14068   0.364   4.133   6.086  0.6152  0.0976  0.3363
  131OSM    H2S14069   0.461   4.187   6.090  0.5306  0.2876 -0.1789
  131OSM    C3S14070   0.255   4.230   6.102  1.0491  0.4703  0.2639
  131OSM    H3S14071   0.162   4.169   6.111  0.8545  0.7455  0.1280
  131OSM     O314072   0.233   4.309   5.985  0.3989  0.2163 -0.2970
  131OSM    HO314073   0.281   4.259   5.918 -0.3078 -0.5090 -0.2796
  131OSM    C4S14074   0.268   4.309   6.225 -0.7384 -0.0155 -0.2610
  131OSM    H4S14075   0.222   4.265   6.315 -1.8030 -0.2968 -0.9341
  131OSM    C5S14076   0.350   4.419   6.252 -0.4713  0.5448  0.8575
  131OSM    H5S14077   0.407   4.458   6.166 -2.3693  1.0342 -0.2397
  131OSM    C6S14078   0.364   4.480   6.392 -0.0077  0.2316  0.1338
  131OSM    H6S14079   0.334   4.586   6.397  1.2832  0.5993  0.3888
  131OSM    H6T14080   0.472   4.496   6.410 -0.0604  1.6328 -0.7034
  131OSM    C7S14081   0.293   4.400   6.497  0.7135  0.1520 -0.1561
  131OSM    H7S14082   0.312   4.291   6.489  0.9705  0.0869  1.0907
  131OSM    H7T14083   0.183   4.415   6.487  0.5043  0.0627  1.6171
  131OSM    C8S14084   0.332   4.453   6.642  0.0081 -0.2906 -0.7715
  131OSM    H8S14085   0.319   4.563   6.645  1.5374  0.2490  6.9634
  131OSM    H8T14086   0.440   4.436   6.661  0.0363 -0.0982 -0.7659
  131OSM    C9S14087   0.250   4.404   6.759  0.0348 -0.1051 -0.8869
  131OSM    H9S14088   0.268   4.295   6.775 -0.7921 -0.0238  0.7141
  131OSM    H9T14089   0.140   4.405   6.746 -0.2863  1.4439  1.4746
  131OSM   C10S14090   0.287   4.471   6.891 -0.3232 -0.1329 -0.1063
  131OSM   H10S14091   0.219   4.443   6.974  1.5996  1.8357  2.3000
  131OSM   H10T14092   0.267   4.579   6.879  2.5536  0.4675 -0.1680
  131OSM   C11S14093   0.422   4.461   6.944 -0.4548  0.4452  0.1674
  131OSM   H11S14094   0.483   4.546   6.906  0.4905  0.0819  0.8213
  131OSM   H11T14095   0.462   4.363   6.910  0.0177  0.3045  1.1113
  131OSM   C12S14096   0.449   4.477   7.095 -0.3361 -0.4808 -0.1754
  131OSM   H12S14097   0.557   4.497   7.112 -0.9072  0.0075  3.8740
  131OSM   H12T14098   0.423   4.381   7.143  0.4495 -0.4125  0.3922
  131OSM   C13S14099   0.371   4.596   7.158  0.4498 -0.1706  0.6593
  131OSM   H13S14100   0.263   4.574   7.147  0.8392 -1.1314 -2.2949
  131OSM   H13T14101   0.401   4.689   7.105 -0.5311 -0.6935 -0.8772
  131OSM   C14S14102   0.410   4.615   7.303 -0.9383  0.3541 -0.0320
  131OSM   H14S14103   0.399   4.724   7.317 -2.7697  0.2487 -0.3067
  131OSM   H14T14104   0.517   4.585   7.308 -1.0160  0.2673  2.9003
  131OSM   C15S14105   0.329   4.543   7.407  0.4447  0.5140  0.2747
  131OSM   H15S14106   0.351   4.434   7.406  1.2696  0.6673  0.7166
  131OSM   H15T14107   0.222   4.556   7.381  1.0005 -1.0436 -3.3210
  131OSM   C16S14108   0.354   4.590   7.551  0.3611 -0.1537 -0.1809
  131OSM   H16S14109   0.273   4.545   7.613  0.3718  0.3253  0.1856
  131OSM   H16T14110   0.337   4.700   7.558 -0.1094 -0.2780  0.9652
  131OSM   C17S14111   0.495   4.558   7.607 -0.1713  0.2395 -0.6267
  131OSM   H17S14112   0.566   4.636   7.573  0.4906  0.5198  1.2858
  131OSM   H17T14113   0.525   4.456   7.573 -1.9468  0.3456 -2.7452
  131OSM   C18S14114   0.492   4.561   7.758  0.2689  0.0229  0.5542
  131OSM   H18S14115   0.430   4.476   7.794  0.6372 -1.2251 -1.6068
  131OSM   H18T14116   0.455   4.661   7.792  0.2363 -0.0356  0.6901
  131OSM   H18U14117   0.595   4.551   7.798 -0.0520 -1.1044  1.1201
  131OSM    C1F14118   0.486   3.972   6.221 -0.4725 -0.0810  0.8622
  131OSM     OF14119   0.600   3.996   6.176 -0.4531 -0.0782  0.6978
  131OSM    C2F14120   0.473   3.849   6.302 -0.5108 -1.2603  0.7382
  131OSM    H2F14121   0.558   3.835   6.372  0.4071  1.2327  0.2063
  131OSM    H2G14122   0.467   3.761   6.234  1.1875 -0.5761 -0.3682
  131OSM    C3F14123   0.354   3.841   6.401  0.3746  0.3240 -0.8996
  131OSM    H3F14124   0.364   3.738   6.441 -0.0022  0.7599  0.3835
  131OSM    H3G14125   0.257   3.853   6.348 -0.8966  3.2881  1.6894
  131OSM    C4F14126   0.347   3.938   6.523 -0.4619 -0.7934 -0.5319
  131OSM    H4F14127   0.254   3.915   6.579  0.6237  0.2053  1.8259
  131OSM    H4G14128   0.337   4.042   6.485  0.4354 -1.3643 -2.4473
  131OSM    C5F14129   0.464   3.932   6.617  0.6630  0.0853  0.2401
  131OSM    H5F14130   0.554   3.962   6.560  2.8254 -1.0657  2.8089
  131OSM    H5G14131   0.485   3.827   6.649 -1.2641 -0.5417 -0.4333
  131OSM    C6F14132   0.458   4.034   6.734 -0.0762  0.5820 -0.5038
  131OSM    H6F14133   0.361   4.016   6.786 -0.5613  0.3426 -1.4738
  131OSM    H6G14134   0.442   4.137   6.694 -1.8947  0.2492 -0.7182
  131OSM    C7F14135   0.579   4.017   6.830  0.6633  0.2565  0.7464
  131OSM    H7F14136   0.676   4.042   6.780  0.9418 -0.3106  0.9955
  131OSM    H7G14137   0.596   3.909   6.847 -0.5128 -0.2274 -0.8917
  131OSM    C8F14138   0.559   4.079   6.971  0.2742 -0.5753  0.3913
  131OSM    H8F14139   0.456   4.056   7.006 -0.3883  2.5709  0.7873
  131OSM    H8G14140   0.558   4.189   6.961 -0.8899 -0.5804  0.2986
  131OSM    C9F14141   0.659   4.036   7.070 -0.7759  0.2428 -0.8713
  131OSM    H9F14142   0.638   3.934   7.108 -1.4407 -0.0157 -1.9091
  131OSM   C10F14143   0.757   4.115   7.131 -0.2389 -0.0926  0.2818
  131OSM   H10F14144   0.837   4.066   7.187  0.5407  1.3496  0.4950
  131OSM   C11F14145   0.784   4.261   7.101  0.3124 -0.3633  1.2642
  131OSM   H11F14146   0.689   4.313   7.078 -0.1258 -1.5818  0.1480
  131OSM   H11G14147   0.827   4.279   7.000 -1.4394  4.3318  1.1203
  131OSM   C12F14148   0.865   4.316   7.212  0.5545 -0.0297 -0.1550
  131OSM   H12F14149   0.817   4.306   7.311  0.9337 -0.8619 -0.0425
  131OSM   H12G14150   0.886   4.425   7.203  0.2426  0.1011  0.6250
  131OSM   C13F14151   1.007   4.255   7.234  0.5870  0.4769  0.2546
  131OSM   H13F14152   1.049   4.251   7.131 -0.7304  0.0090 -0.2786
  131OSM   H13G14153   1.004   4.150   7.270 -1.7795 -0.4581 -2.3351
  131OSM   C14F14154   1.087   4.323   7.340  0.1148 -0.1604  0.5592
  131OSM   H14F14155   1.046   4.317   7.443  0.6688  0.8973  0.8582
  131OSM   H14G14156   1.114   4.427   7.308  0.0666 -0.3403 -0.0809
  131OSM   C15F14157   1.218   4.245   7.352  0.5087 -0.4690 -0.0052
  131OSM   H15F14158   1.265   4.212   7.258  1.4682 -0.2586  0.3910
  131OSM   H15G14159   1.180   4.160   7.414  0.1024  0.4995  1.1244
  131OSM   C16F14160   1.327   4.325   7.435 -0.1515 -0.1874 -0.0778
  131OSM   H16F14161   1.279   4.378   7.520 -0.1900 -0.0966 -0.1567
  131OSM   H16G14162   1.377   4.407   7.378  0.2635 -1.3753 -1.4967
  131OSM   C17F14163   1.438   4.224   7.492  0.2798 -0.1836 -0.0899
  131OSM   H17F14164   1.400   4.166   7.579  2.7593 -0.1357  1.1103
  131OSM   H17G14165   1.514   4.294   7.534 -0.7018  0.6325  0.3717
  131OSM   C18F14166   1.503   4.139   7.384  0.4709 -0.8111  0.5278
  131OSM   H18F14167   1.541   4.216   7.314  2.0455  0.0983  2.2790
  131OSM   H18G14168   1.441   4.055   7.347 -1.1034  0.2827  0.5912
  131OSM   H18H14169   1.594   4.084   7.417  0.5795 -2.6964 -2.5558
  132OSM      N14170   1.568   0.268   5.755 -0.2340 -0.3536  0.0819
  132OSM    C1514171   1.436   0.330   5.737  0.4646  0.1343  0.3128
  132OSM   H15A14172   1.352   0.266   5.761  0.9443 -0.4911  0.3693
  132OSM   H15B14173   1.411   0.358   5.636  0.1467  1.8059  0.8359
  132OSM   H15C14174   1.425   0.417   5.800  1.2667 -0.0230  0.6790
  132OSM    C1414175   1.554   0.126   5.708  0.7149 -0.0293  0.6531
  132OSM   H14A14176   1.529   0.128   5.603  0.2889  1.1066  0.7676
  132OSM   H14B14177   1.481   0.068   5.762 -0.3874 -0.2644 -1.0099
  132OSM   H14C14178   1.652   0.080   5.715  1.6460  1.9894  1.9707
  132OSM    C1314179   1.663   0.345   5.665 -1.0518  0.5253 -0.5540
  132OSM   H13A14180   1.641   0.342   5.560  0.5361  2.0051 -0.9758
  132OSM   H13B14181   1.761   0.300   5.673 -0.4221  2.1511  2.0694
  132OSM   H13C14182   1.673   0.447   5.699  1.4773 -0.0906  0.8070
  132OSM    C1214183   1.612   0.278   5.899  0.7317  0.3473  0.2139
  132OSM   H12A14184   1.708   0.230   5.908 -0.0186 -0.8425  2.8744
  132OSM   H12B14185   1.545   0.231   5.970  0.9469 -1.1096 -0.5180
  132OSM    C1114186   1.642   0.423   5.962 -0.7599  0.6440  0.2496
  132OSM   H11A14187   1.721   0.462   5.895 -1.6482  2.3088  0.1250
  132OSM   H11B14188   1.674   0.402   6.066 -1.0662 -0.7022  0.0965
  132OSM      P14189   1.522   0.655   5.920  0.1476 -0.1024 -0.0869
  132OSM    O1314190   1.647   0.697   5.855 -0.0318 -0.1586  0.2903
  132OSM    O1414191   1.406   0.682   5.834 -0.5606  0.7320 -0.0089
  132OSM    O1114192   1.499   0.729   6.061  0.2587 -0.3583  0.2973
  132OSM    O1214193   1.525   0.503   5.964  0.3802 -0.5513  0.5625
  132OSM    C1S14194   1.467   0.644   6.179 -0.1902 -0.2737  0.1440
  132OSM    H1S14195   1.555   0.582   6.205  0.0229  1.0939  3.0151
  132OSM    H1T14196   1.379   0.584   6.145 -2.1447  2.9601 -0.9961
  132OSM     NF14197   1.475   0.618   6.417 -0.3789  0.2263 -0.0303
  132OSM    HNF14198   1.400   0.593   6.477  1.8212 -0.8928  2.4192
  132OSM    C2S14199   1.452   0.714   6.315  0.2451 -0.0342 -0.3041
  132OSM    H2S14200   1.541   0.780   6.326 -0.3930  0.5519  1.7259
  132OSM    C3S14201   1.318   0.805   6.322 -0.1802 -0.5404  0.6929
  132OSM    H3S14202   1.231   0.736   6.321 -0.5055 -0.1304  0.6127
  132OSM     O314203   1.313   0.864   6.194  0.0442  0.7378  0.0555
  132OSM    HO314204   1.387   0.826   6.146  0.2262  1.4269 -0.2286
  132OSM    C4S14205   1.294   0.894   6.438  0.5424 -0.1065  0.4067
  132OSM    H4S14206   1.247   0.845   6.524 -1.9703  1.8258  0.2434
  132OSM    C5S14207   1.298   1.033   6.438  0.3687 -0.0861 -0.1132
  132OSM    H5S14208   1.342   1.087   6.354  0.3385 -2.1450 -1.5259
  132OSM    C6S14209   1.251   1.114   6.557  0.6584  0.3639 -0.2588
  132OSM    H6S14210   1.171   1.182   6.521 -0.2334  0.9827  2.6312
  132OSM    H6T14211   1.331   1.182   6.595 -0.9794  1.7464  0.8436
  132OSM    C7S14212   1.192   1.040   6.680 -0.4581  0.3557 -0.8300
  132OSM    H7S14213   1.265   0.985   6.743  1.0216  1.5670 -1.4247
  132OSM    H7T14214   1.117   0.966   6.645  0.0609  0.5066 -2.3242
  132OSM    C8S14215   1.115   1.137   6.764 -0.5796  0.3650  0.1777
  132OSM    H8S14216   1.011   1.155   6.730 -1.7012 -2.0834  1.9810
  132OSM    H8T14217   1.160   1.238   6.764 -1.3609  0.7368 -1.0958
  132OSM    C9S14218   1.097   1.105   6.911 -0.0264 -0.2688  0.1714
  132OSM    H9S14219   1.050   1.188   6.968  1.2405  0.0790  0.7559
  132OSM    H9T14220   1.188   1.093   6.974 -1.0015  0.0740  1.7033
  132OSM   C10S14221   1.025   0.973   6.933 -0.0497 -0.0602 -0.4659
  132OSM   H10S14222   1.103   0.895   6.946  0.1522  0.0612 -0.9400
  132OSM   H10T14223   0.970   0.948   6.840 -1.5276 -0.4768  0.4791
  132OSM   C11S14224   0.931   0.959   7.050  0.4498  0.1130 -0.3552
  132OSM   H11S14225   0.882   0.860   7.044 -1.5892  0.9947  0.7015
  132OSM   H11T14226   0.852   1.037   7.044  0.1467 -0.0468  1.1887
  132OSM   C12S14227   1.005   0.985   7.185 -0.0264 -0.5007 -0.1529
  132OSM   H12S14228   1.033   1.092   7.198  2.8296 -1.1392 -0.3702
  132OSM   H12T14229   1.098   0.925   7.197  1.2747  0.9869 -2.1851
  132OSM   C13S14230   0.919   0.937   7.311  0.7294  0.0854 -0.0254
  132OSM   H13S14231   0.981   0.973   7.396 -1.5400  2.3905  0.8070
  132OSM   H13T14232   0.915   0.826   7.313  1.9944  0.0387  1.2077
  132OSM   C14S14233   0.780   0.990   7.313  0.0705  0.0461 -0.1817
  132OSM   H14S14234   0.728   0.968   7.218  1.7342  1.0119 -1.3613
  132OSM   H14T14235   0.783   1.101   7.314  1.8690  0.0398 -1.0107
  132OSM   C15S14236   0.684   0.962   7.433  0.0134  0.2533  0.3682
  132OSM   H15S14237   0.660   0.854   7.437 -0.3139  0.3472  1.0054
  132OSM   H15T14238   0.588   1.016   7.418  0.0234 -0.2853 -2.2387
  132OSM   C16S14239   0.740   1.010   7.564 -0.2586  0.7179 -0.0329
  132OSM   H16S14240   0.757   1.120   7.570  3.8318  0.4360 -2.4326
  132OSM   H16T14241   0.844   0.972   7.572 -1.0144 -1.6949 -0.8154
  132OSM   C17S14242   0.656   0.954   7.681 -0.2454  0.2345 -0.2893
  132OSM   H17S14243   0.663   0.844   7.668 -0.8960  0.1290  0.2305
  132OSM   H17T14244   0.551   0.986   7.667 -0.2773 -0.6903 -2.6586
  132OSM   C18S14245   0.697   0.987   7.824 -0.0683 -0.0814  0.2197
  132OSM   H18S14246   0.637   0.932   7.899  1.1338  0.7114  1.8438
  132OSM   H18T14247   0.687   1.095   7.850  4.3092  1.0176 -1.7925
  132OSM   H18U14248   0.803   0.961   7.844 -0.4274 -0.9721  1.0630
  132OSM    C1F14249   1.599   0.557   6.446  0.0539  0.1742  0.2967
  132OSM     OF14250   1.703   0.591   6.392 -0.2982  0.6376 -0.0603
  132OSM    C2F14251   1.606   0.458   6.557 -0.4705 -0.7134 -0.4590
  132OSM    H2F14252   1.622   0.363   6.500 -1.4390 -1.9011  1.1632
  132OSM    H2G14253   1.505   0.452   6.603 -0.0794 -1.4381  0.3419
  132OSM    C3F14254   1.710   0.485   6.663  0.2789 -0.2918  0.0295
  132OSM    H3F14255   1.693   0.587   6.704  0.5248  0.3805 -1.4638
  132OSM    H3G14256   1.806   0.494   6.608 -0.7046  2.3034 -1.4338
  132OSM    C4F14257   1.720   0.396   6.785  0.6827  0.5537 -0.0785
  132OSM    H4F14258   1.822   0.427   6.814  0.7172 -0.3768  0.8546
  132OSM    H4G14259   1.708   0.288   6.760  0.7632  0.5899 -0.2713
  132OSM    C5F14260   1.617   0.439   6.893 -0.3112 -0.6574 -0.1449
  132OSM    H5F14261   1.519   0.446   6.840 -0.4301 -1.8664 -0.1134
  132OSM    H5G14262   1.633   0.542   6.931 -2.2780 -0.3287 -0.0966
  132OSM    C6F14263   1.600   0.344   7.010 -0.3649  0.1578 -0.9301
  132OSM    H6F14264   1.633   0.244   6.974  0.0070  0.5079 -1.5687
  132OSM    H6G14265   1.494   0.344   7.043  0.7053  1.3697  3.1325
  132OSM    C7F14266   1.691   0.380   7.136  0.3978 -0.1843  0.0072
  132OSM    H7F14267   1.714   0.488   7.141  0.2365 -0.1847  1.1968
  132OSM    H7G14268   1.788   0.330   7.117  0.1864 -1.0450  1.0449
  132OSM    C8F14269   1.625   0.350   7.266 -0.0416  0.9682 -0.6640
  132OSM    H8F14270   1.684   0.379   7.356 -1.5663 -0.2414  0.7866
  132OSM    H8G14271   1.604   0.243   7.285 -2.0780  1.2871 -0.9309
  132OSM    C9F14272   1.489   0.417   7.294 -0.4740  0.1930 -0.1044
  132OSM    H9F14273   1.426   0.420   7.205 -1.5810  1.1865  0.6796
  132OSM   C10F14274   1.437   0.463   7.409 -0.2380  0.2233 -1.0129
  132OSM   H10F14275   1.339   0.512   7.412  1.9477  5.6305  4.1649
  132OSM   C11F14276   1.504   0.475   7.541 -0.3724 -0.3024 -0.8749
  132OSM   H11F14277   1.500   0.578   7.583  0.0396 -0.0316 -1.4744
  132OSM   H11G14278   1.611   0.446   7.531  0.3743  0.8843  2.4525
  132OSM   C12F14279   1.455   0.382   7.654  0.0781  0.0290  0.5499
  132OSM   H12F14280   1.515   0.403   7.745  2.5305  0.6298 -1.0938
  132OSM   H12G14281   1.455   0.274   7.628 -1.5616  0.0954  0.1928
  132OSM   C13F14282   1.302   0.397   7.689  0.0107  0.1449  0.2095
  132OSM   H13F14283   1.285   0.332   7.777  0.6433 -0.9864 -0.4860
  132OSM   H13G14284   1.244   0.363   7.601 -2.1854  1.1944  1.1813
  132OSM   C14F14285   1.272   0.546   7.726  0.0919  0.9089  0.2413
  132OSM   H14F14286   1.280   0.614   7.638 -0.4039 -0.4184 -0.8792
  132OSM   H14G14287   1.345   0.570   7.806  0.7656 -1.4512  0.4093
  132OSM   C15F14288   1.124   0.553   7.768 -0.5475  0.2124 -0.8033
  132OSM   H15F14289   1.122   0.485   7.856  0.4449  3.1294  1.6523
  132OSM   H15G14290   1.055   0.517   7.689  0.6876  0.7960 -2.2022
  132OSM   C16F14291   1.091   0.697   7.814  0.0594  0.3031  0.3277
  132OSM   H16F14292   0.981   0.707   7.822  0.1101  0.0467  1.4613
  132OSM   H16G14293   1.134   0.780   7.753  1.6865  0.1718  1.2548
  132OSM   C17F14294   1.136   0.742   7.956  0.0674  0.3492  0.0827
  132OSM   H17F14295   1.246   0.747   7.967 -0.0419  1.1059  0.8852
  132OSM   H17G14296   1.098   0.660   8.022  0.6472 -2.5071 -2.8593
  132OSM   C18F14297   1.064   0.871   7.995  0.2955  0.0482 -0.1632
  132OSM   H18F14298   1.103   0.899   8.096  1.2231  1.7028 -0.9413
  132OSM   H18G14299   0.957   0.846   8.008  0.3554 -0.8611 -1.2847
  132OSM   H18H14300   1.073   0.957   7.926  0.0722  0.3642  0.1944
  133SAPE     N14301   0.191   0.511  10.092 -0.3743 -0.3535 -0.2462
  133SAPE   HN114302   0.230   0.422  10.127 -1.6434 -1.7482 -2.1599
  133SAPE   HN214303   0.240   0.591  10.137  1.1950 -0.3716 -1.7835
  133SAPE   HN314304   0.091   0.506  10.121 -0.2048 -1.4325  0.1759
  133SAPE   C1214305   0.209   0.496   9.946  0.7997 -0.0365 -0.5074
  133SAPE  H12A14306   0.176   0.589   9.895 -0.4407  0.3237  0.9038
  133SAPE  H12B14307   0.150   0.408   9.913 -0.1972 -0.3621  1.9323
  133SAPE   C1114308   0.360   0.476   9.918 -0.1996  0.1287 -0.2754
  133SAPE  H11A14309   0.411   0.571   9.945  1.8991 -1.2326  0.8386
  133SAPE  H11B14310   0.389   0.477   9.810  1.1677  0.3410  0.0672
  133SAPE     P14311   0.431   0.209   9.951  0.1980 -0.1740  0.0679
  133SAPE   O1314312   0.544   0.157  10.031  0.8194  0.2802 -0.0499
  133SAPE   O1414313   0.298   0.138   9.949 -0.1654  0.5045  0.3202
  133SAPE   O1214314   0.413   0.360   9.990 -0.1281 -0.4256 -0.2077
  133SAPE   O1114315   0.478   0.219   9.799  0.0532  0.4578 -0.3558
  133SAPE    C114316   0.613   0.253   9.769  0.1508  0.3148 -0.7786
  133SAPE    HA14317   0.623   0.361   9.746  2.7018  0.0696 -1.1349
  133SAPE    HB14318   0.684   0.229   9.852 -2.2519  0.1985  1.3754
  133SAPE    C214319   0.671   0.169   9.653 -0.4540 -0.4245  0.5811
  133SAPE    HS14320   0.776   0.195   9.626 -0.6233 -0.5416 -0.2253
  133SAPE   O2114321   0.582   0.210   9.551 -0.2468 -0.0299 -0.4505
  133SAPE   C2114322   0.635   0.209   9.427 -0.2244  0.6178 -0.0940
  133SAPE   O2214323   0.752   0.190   9.400 -0.1718  0.0737 -0.2587
  133SAPE   C2214324   0.520   0.207   9.324  0.1005  0.0706  0.2265
  133SAPE   H2R14325   0.439   0.141   9.361 -0.0088  0.7003  1.1491
  133SAPE   H2S14326   0.487   0.313   9.338 -1.2381 -0.1045 -1.2945
  133SAPE    C314327   0.663   0.016   9.665  0.0875 -0.1931  0.7281
  133SAPE    HX14328   0.554  -0.006   9.669  0.1942 -0.8287  0.2234
  133SAPE    HY14329   0.707  -0.020   9.760 -0.8238 -2.5805  0.3102
  133SAPE   O3114330   0.708  -0.053   9.551  0.3041  0.2887 -0.4206
  133SAPE   C3114331   0.838  -0.067   9.534 -0.4097 -0.3491  0.1299
  133SAPE   O3214332   0.917  -0.028   9.616 -0.2126 -0.3286  0.2978
  133SAPE   C3214333   0.868  -0.138   9.402  0.8066  0.8867 -0.3160
  133SAPE   H2X14334   0.780  -0.141   9.334  2.0859 -2.2288 -2.0410
  133SAPE   H2Y14335   0.898  -0.242   9.429 -0.4393  0.2882 -1.1141
  133SAPE   C2314336   0.543   0.184   9.177 -0.2665 -0.0235  0.3451
  133SAPE   H3R14337   0.609   0.096   9.161  1.8028  1.9131 -3.0956
  133SAPE   H3S14338   0.603   0.273   9.146  0.2600 -0.9265 -1.3368
  133SAPE   C2414339   0.415   0.160   9.109  0.2362  0.0216  0.8689
  133SAPE   H4R14340   0.377   0.079   9.173 -2.0960  1.5933  1.6132
  133SAPE   H4S14341   0.431   0.115   9.009 -0.3362 -0.1741  0.8592
  133SAPE   C2514342   0.312   0.270   9.115  0.6437  0.4954 -0.2318
  133SAPE   H5R14343   0.302   0.306   9.218 -2.0392 -1.1237  0.1801
  133SAPE   C2614344   0.240   0.331   9.024  0.1216  0.1651 -0.0546
  133SAPE   H6R14345   0.176   0.415   9.055  1.7135  1.5912 -0.4884
  133SAPE   C2714346   0.241   0.297   8.877  0.1425  0.0613  0.3957
  133SAPE   H7R14347   0.140   0.257   8.853 -0.2922 -0.2654  2.5234
  133SAPE   H7S14348   0.311   0.217   8.845 -0.2967 -0.5412  0.9136
  133SAPE   C2814349   0.272   0.410   8.781 -0.0245  0.1983  0.3616
  133SAPE   H8R14350   0.276   0.510   8.828  0.5327  0.4542 -0.2093
  133SAPE   C2914351   0.283   0.388   8.647 -0.0662 -0.3273 -0.3229
  133SAPE   H9R14352   0.303   0.477   8.587  0.3706  0.8251  1.4563
  133SAPE  C21014353   0.272   0.259   8.574  0.4240  0.2003  0.5671
  133SAPE  H10R14354   0.245   0.178   8.646  2.6222  0.1488  1.4360
  133SAPE  H10S14355   0.370   0.241   8.523 -0.0672 -0.3477 -0.2037
  133SAPE  C21114356   0.164   0.264   8.457 -0.1393 -0.1134  0.4101
  133SAPE  H11R14357   0.087   0.343   8.460  0.1384  0.1654  3.6063
  133SAPE  C21214358   0.162   0.191   8.348 -0.7547 -0.7228  0.4459
  133SAPE  H12R14359   0.077   0.207   8.280  0.4846 -0.6772 -1.1621
  133SAPE  C21314360   0.251   0.080   8.297  0.2257  0.1718 -0.0546
  133SAPE  H13R14361   0.188   0.024   8.225  1.5797  0.8827 -1.8669
  133SAPE  H13S14362   0.272   0.003   8.374  1.1983  0.7307  0.2564
  133SAPE  C21414363   0.378   0.129   8.237  0.3311 -0.7017  0.6176
  133SAPE  H14R14364   0.415   0.217   8.292 -0.3837 -0.0638  0.0911
  133SAPE  C21514365   0.451   0.084   8.133 -0.5003 -0.2045 -0.3152
  133SAPE  H15R14366   0.534   0.152   8.109  1.1985 -2.0353  0.0713
  133SAPE  C21614367   0.416  -0.036   8.049 -0.5433  0.2396 -0.2419
  133SAPE  H16R14368   0.311  -0.068   8.069 -1.0544  1.5843 -0.6704
  133SAPE  H16S14369   0.472  -0.122   8.092  1.3869  2.3079  1.6042
  133SAPE  C21714370   0.448  -0.025   7.896 -0.1159  0.5571 -0.4533
  133SAPE  H17R14371   0.429  -0.119   7.840 -0.8594  0.1922  0.3947
  133SAPE  H17S14372   0.556  -0.014   7.874 -0.1588  0.2035 -0.8665
  133SAPE  C21814373   0.366   0.074   7.819 -0.3980  0.1711 -0.4124
  133SAPE  H18R14374   0.407   0.171   7.856  0.3199  0.2638 -1.4117
  133SAPE  H18S14375   0.260   0.066   7.853  0.3492 -1.5495  1.6975
  133SAPE  C21914376   0.374   0.066   7.667 -1.0156 -0.5606 -0.5209
  133SAPE  H19R14377   0.343  -0.034   7.628 -1.2307 -0.5554 -0.3672
  133SAPE  H19S14378   0.473   0.090   7.623 -0.3487  1.0155  1.6741
  133SAPE  C22014379   0.272   0.157   7.606 -0.1753 -0.4559  1.0930
  133SAPE  H20R14380   0.176   0.107   7.634 -0.0910  0.0890  2.3918
  133SAPE  H20S14381   0.274   0.157   7.495  0.2040  0.9928  1.0833
  133SAPE  H20T14382   0.284   0.258   7.648 -0.2519 -0.3524  0.8695
  133SAPE   C3314383   0.988  -0.060   9.342  0.5415  0.4514  0.0960
  133SAPE   H3X14384   1.073  -0.067   9.413  0.2553 -0.9818  0.3391
  133SAPE   H3Y14385   0.961   0.047   9.328 -0.8124 -0.0276 -1.2813
  133SAPE   C3414386   1.032  -0.119   9.211  0.6515 -0.3639  0.3493
  133SAPE   H4X14387   1.046  -0.229   9.217 -2.2007 -0.7640  1.1386
  133SAPE   H4Y14388   1.129  -0.069   9.189  0.0403  1.4820  1.5567
  133SAPE   C3514389   0.933  -0.097   9.094 -0.2687 -0.0748  0.1371
  133SAPE   H5X14390   0.839  -0.154   9.106  0.0992 -0.8282 -0.4294
  133SAPE   H5Y14391   0.980  -0.156   9.012 -0.8060 -1.1893  0.6175
  133SAPE   C3614392   0.904   0.048   9.072 -0.5698 -0.0908  0.1945
  133SAPE   H6X14393   0.997   0.108   9.071  1.6392 -3.2456  0.9317
  133SAPE   H6Y14394   0.842   0.082   9.158  1.3042 -0.6029  1.8114
  133SAPE   C3714395   0.818   0.052   8.939 -1.0996 -0.1959 -0.7064
  133SAPE   H7X14396   0.717   0.018   8.971 -1.1026 -0.3930 -0.9283
  133SAPE   H7Y14397   0.865  -0.001   8.854  2.0367  0.8374  0.2359
  133SAPE   C3814398   0.798   0.205   8.907  0.2976  0.0352 -0.0607
  133SAPE   H8X14399   0.886   0.246   8.852  1.0964 -1.3280  0.1590
  133SAPE   H8Y14400   0.793   0.260   9.003 -1.8852 -0.9939  0.4653
  133SAPE   C3914401   0.678   0.234   8.818  0.0649 -0.1373  0.3774
  133SAPE   H9X14402   0.659   0.344   8.808 -2.3200 -0.4805  0.5525
  133SAPE   H9Y14403   0.588   0.186   8.862 -1.0672 -0.0224 -1.6574
  133SAPE  C31014404   0.689   0.173   8.677 -0.3689 -0.1278  0.8502
  133SAPE  H10X14405   0.602   0.217   8.623  0.9741  0.4870 -0.8825
  133SAPE  H10Y14406   0.669   0.064   8.668 -0.7695 -0.0137  0.3017
  133SAPE  C31114407   0.815   0.214   8.601 -0.3059 -0.1518  0.3353
  133SAPE  H11X14408   0.897   0.141   8.617 -0.2947 -0.2478 -0.1448
  133SAPE  H11Y14409   0.836   0.315   8.643 -0.5338  0.0787 -0.0976
  133SAPE  C31214410   0.797   0.236   8.448 -0.4854  0.2601  0.1164
  133SAPE  H12X14411   0.746   0.148   8.403 -1.7482  0.8712  0.3115
  133SAPE  H12Y14412   0.896   0.261   8.404 -1.2718  0.4791 -1.6138
  133SAPE  C31314413   0.701   0.361   8.425  0.2314 -0.2453  0.3331
  133SAPE  H13X14414   0.710   0.448   8.493  0.0707  1.3691 -1.5981
  133SAPE  H13Y14415   0.597   0.339   8.457  0.2755 -0.5228  0.2849
  133SAPE  C31414416   0.697   0.411   8.280 -0.2060  0.0307 -0.2535
  133SAPE  H14X14417   0.599   0.459   8.263 -1.0880 -1.8057 -0.6723
  133SAPE  H14Y14418   0.712   0.328   8.207  0.0971  0.3710 -0.5792
  133SAPE  C31514419   0.800   0.527   8.245  0.1343 -0.1396 -0.8916
  133SAPE  H15X14420   0.812   0.601   8.327  0.7065  2.0595 -2.8687
  133SAPE  H15Y14421   0.773   0.571   8.147  0.0937 -1.6776 -1.5993
  133SAPE  C31614422   0.951   0.484   8.235  0.3312  0.3188  0.4372
  133SAPE  H16X14423   0.981   0.436   8.331  3.2471 -1.8014 -1.3374
  133SAPE  H16Y14424   1.019   0.571   8.224  1.6037 -0.8133 -1.1485
  133SAPE  C31714425   0.980   0.383   8.119 -0.3363 -0.8931 -0.0129
  133SAPE  H17X14426   0.964   0.436   8.023 -1.5833  1.3561  1.3409
  133SAPE  H17Y14427   0.910   0.297   8.129 -1.2074 -0.6146 -2.9287
  133SAPE  C31814428   1.121   0.335   8.120 -0.3934  0.7885  0.1035
  133SAPE  H18X14429   1.138   0.264   8.037  0.1466 -0.1065  0.9550
  133SAPE  H18Y14430   1.158   0.290   8.215 -1.1027  0.8349  0.4097
  133SAPE  H18Z14431   1.191   0.420   8.104 -1.2186  1.6399  0.8525
  134SAPE     N14432   4.618   5.608  10.182  0.1956 -0.0269  0.1279
  134SAPE   HN114433   4.532   5.593  10.127 -0.1828  2.6087 -0.1477
  134SAPE   HN214434   4.668   5.523  10.215 -0.6881 -0.8987 -0.7628
  134SAPE   HN314435   4.591   5.663  10.267  0.2972  0.1351  0.0564
  134SAPE   C1214436   4.705   5.707  10.108 -0.2513 -0.1167  0.1059
  134SAPE  H12A14437   4.644   5.774  10.044 -0.9074 -1.8272 -1.1381
  134SAPE  H12B14438   4.756   5.637  10.038 -1.3598  1.3417 -2.2931
  134SAPE   C1114439   4.797   5.784  10.214 -0.2360 -0.2785 -0.0904
  134SAPE  H11A14440   4.847   5.708  10.279 -2.1153  0.7312  2.7271
  134SAPE  H11B14441   4.733   5.842  10.284 -0.8097 -1.0532  0.0436
  134SAPE     P14442   4.894   6.007  10.120  0.7735  0.0711 -0.0645
  134SAPE   O1314443   4.751   6.046  10.099 -0.0181 -0.2415 -0.5664
  134SAPE   O1414444   4.981   6.075  10.222  0.0156 -0.1676  1.2191
  134SAPE   O1214445   4.902   5.858  10.152 -0.5542  0.1658  0.0337
  134SAPE   O1114446   4.959   6.024   9.979  1.2192 -0.1065 -0.0873
  134SAPE    C114447   5.036   5.917   9.915 -0.0823  0.2879 -0.1309
  134SAPE    HA14448   5.144   5.929   9.939 -0.0042 -0.9244  0.2034
  134SAPE    HB14449   4.994   5.819   9.948 -0.5689  1.0805  1.7360
  134SAPE    C214450   5.011   5.910   9.755 -0.6218 -0.2889 -0.2748
  134SAPE    HS14451   5.070   5.822   9.723 -1.0151 -0.0031 -1.8611
  134SAPE   O2114452   5.047   6.030   9.689 -0.0657 -0.8493  0.4866
  134SAPE   C2114453   5.167   6.071   9.694  0.5070 -0.7033  0.1455
  134SAPE   O2214454   5.264   6.013   9.748 -0.1926  0.0420  0.2795
  134SAPE   C2214455   5.178   6.196   9.609  0.1892 -0.0466  1.1052
  134SAPE   H2R14456   5.077   6.214   9.568 -0.9555 -1.1499  3.2472
  134SAPE   H2S14457   5.212   6.284   9.668 -0.7210 -0.1407  1.7997
  134SAPE    C314458   4.859   5.881   9.722  0.0385 -0.3589  0.1230
  134SAPE    HX14459   4.798   5.968   9.753 -1.0559 -0.4570 -1.6160
  134SAPE    HY14460   4.816   5.791   9.770  2.4990 -1.0925  1.1228
  134SAPE   O3114461   4.844   5.878   9.578 -0.0296  0.0210 -0.5397
  134SAPE   C3114462   4.884   5.761   9.517 -0.4369  0.2088  0.2734
  134SAPE   O3214463   4.919   5.658   9.580  1.0260 -0.2554 -0.2589
  134SAPE   C3214464   4.857   5.771   9.366  0.7519 -1.2134 -0.7961
  134SAPE   H2X14465   4.906   5.864   9.332  1.7002 -1.3559  0.1221
  134SAPE   H2Y14466   4.749   5.792   9.351  1.2771  1.3787 -1.3125
  134SAPE   C2314467   5.282   6.186   9.494 -0.2064  0.5035  0.1581
  134SAPE   H3R14468   5.378   6.152   9.538  0.4320  2.0458  0.0262
  134SAPE   H3S14469   5.305   6.283   9.445  2.3388  0.6699  1.4835
  134SAPE   C2414470   5.249   6.087   9.377  0.6068  0.5262  0.4946
  134SAPE   H4R14471   5.281   5.995   9.430 -2.8830 -0.7861  0.5768
  134SAPE   H4S14472   5.314   6.089   9.287 -0.7859  0.8567 -0.5396
  134SAPE   C2514473   5.106   6.062   9.341 -0.3135  0.6101  0.0744
  134SAPE   H5R14474   5.046   6.039   9.431 -0.2351  0.3826  0.0702
  134SAPE   C2614475   5.058   6.042   9.215 -0.2195 -0.6193  0.3945
  134SAPE   H6R14476   4.950   6.034   9.196 -0.2070  2.1689 -1.4063
  134SAPE   C2714477   5.121   6.056   9.074  0.0338 -0.3496  0.2930
  134SAPE   H7R14478   5.187   6.145   9.077 -0.0831 -0.0824 -2.4969
  134SAPE   H7S14479   5.045   6.083   8.998 -0.9916 -3.2413  0.1482
  134SAPE   C2814480   5.212   5.938   9.046 -0.5536 -0.5035  0.1789
  134SAPE   H8R14481   5.277   5.914   9.131 -0.0869 -1.2783 -0.3878
  134SAPE   C2914482   5.219   5.880   8.928  0.1709  0.2806  0.8110
  134SAPE   H9R14483   5.293   5.798   8.918  1.0357  0.9413  1.5958
  134SAPE  C21014484   5.153   5.926   8.805 -0.6722 -0.0526  0.4425
  134SAPE  H10R14485   5.206   6.020   8.777 -1.2946  0.9601  2.4249
  134SAPE  H10S14486   5.044   5.947   8.820 -1.2952 -1.6502 -1.4634
  134SAPE  C21114487   5.158   5.824   8.690  0.1612 -0.0005 -0.4080
  134SAPE  H11R14488   5.070   5.758   8.683 -0.9104  1.4367 -1.0813
  134SAPE  C21214489   5.260   5.804   8.604  0.4615  0.4466  0.7739
  134SAPE  H12R14490   5.242   5.731   8.524 -1.7634 -0.2139  1.8149
  134SAPE  C21314491   5.384   5.884   8.601 -0.2894  1.2451  0.6766
  134SAPE  H13R14492   5.472   5.817   8.613 -0.2440  0.9412 -1.1150
  134SAPE  H13S14493   5.397   5.951   8.688  1.2780  0.6359  0.9405
  134SAPE  C21414494   5.405   5.961   8.478 -0.2516  0.0650 -0.2245
  134SAPE  H14R14495   5.357   6.060   8.471  0.2180  0.2504 -0.8275
  134SAPE  C21514496   5.484   5.918   8.377 -0.0912  0.6732  0.3325
  134SAPE  H15R14497   5.483   5.977   8.284  0.1111 -1.7780 -1.3423
  134SAPE  C21614498   5.553   5.784   8.362  0.1223  0.6767 -0.0437
  134SAPE  H16R14499   5.526   5.719   8.448  3.6676 -1.8199 -0.5992
  134SAPE  H16S14500   5.663   5.796   8.368  0.1421 -0.1179  1.7202
  134SAPE  C21714501   5.508   5.717   8.234 -0.0739 -0.6421  0.5808
  134SAPE  H17R14502   5.398   5.713   8.215  0.0924  2.7445 -2.0753
  134SAPE  H17S14503   5.541   5.611   8.230 -0.2191 -0.6408 -1.0603
  134SAPE  C21814504   5.577   5.775   8.105 -0.6652  0.4047  0.9540
  134SAPE  H18R14505   5.683   5.805   8.121 -0.7835  0.8953  0.8381
  134SAPE  H18S14506   5.520   5.864   8.068  0.6031  0.4788 -0.9936
  134SAPE  C21914507   5.558   5.672   7.988 -0.1850 -0.7158 -0.8910
  134SAPE  H19R14508   5.570   5.739   7.900  1.9827  3.1428  2.0107
  134SAPE  H19S14509   5.456   5.628   7.984 -0.6058  0.1397  0.0706
  134SAPE  C22014510   5.660   5.559   7.981 -0.0876 -0.3119  0.1203
  134SAPE  H20R14511   5.764   5.594   8.001  0.1036 -0.6416 -0.2800
  134SAPE  H20S14512   5.658   5.530   7.874 -2.1718  0.8327 -0.1942
  134SAPE  H20T14513   5.646   5.477   8.055  0.4777 -0.2321  0.3185
  134SAPE   C3314514   4.887   5.652   9.281  0.6014 -0.1561 -0.5085
  134SAPE   H3X14515   4.843   5.554   9.310 -3.0149  0.7627 -2.3524
  134SAPE   H3Y14516   4.997   5.641   9.296  0.6491  0.2355 -0.5467
  134SAPE   C3414517   4.868   5.682   9.137 -0.4573 -0.1845  0.0874
  134SAPE   H4X14518   4.944   5.759   9.111 -2.1867  1.7722  0.5881
  134SAPE   H4Y14519   4.762   5.706   9.112 -0.8855 -0.5333  1.4750
  134SAPE   C3514520   4.904   5.560   9.050 -0.1807  0.5382  0.2774
  134SAPE   H5X14521   4.827   5.483   9.071 -0.9553  1.3117  0.3717
  134SAPE   H5Y14522   5.006   5.530   9.079 -0.4769 -0.6531  0.1276
  134SAPE   C3614523   4.900   5.576   8.895  0.1090  0.0500  0.0939
  134SAPE   H6X14524   4.982   5.643   8.863 -0.3212  1.1560  1.2104
  134SAPE   H6Y14525   4.801   5.623   8.875  0.9338  1.4050 -1.0129
  134SAPE   C3714526   4.904   5.440   8.826 -0.1959 -0.4207  0.5912
  134SAPE   H7X14527   4.813   5.383   8.855 -0.1505 -0.8032  0.0034
  134SAPE   H7Y14528   4.991   5.386   8.868  1.3720  0.2197 -1.6670
  134SAPE   C3814529   4.905   5.442   8.664  0.9183  0.1382  0.6778
  134SAPE   H8X14530   4.875   5.545   8.636 -0.6412 -0.7416 -1.0757
  134SAPE   H8Y14531   4.831   5.368   8.626  0.9216 -0.2508  1.4171
  134SAPE   C3914532   5.046   5.412   8.614 -0.3677  0.0472  0.4199
  134SAPE   H9X14533   5.057   5.302   8.627  0.0986  0.2201  1.6941
  134SAPE   H9Y14534   5.123   5.469   8.670  1.3088 -0.7511 -0.9742
  134SAPE  C31014535   5.059   5.441   8.464 -0.1730  0.5583  0.0569
  134SAPE  H10X14536   5.166   5.438   8.435 -0.3361 -1.3457 -0.5376
  134SAPE  H10Y14537   5.018   5.542   8.444 -2.3467  0.1097  1.7854
  134SAPE  C31114538   4.993   5.340   8.367 -0.0661 -0.5945 -0.0066
  134SAPE  H11X14539   4.887   5.333   8.400  0.5687 -1.8958  1.9023
  134SAPE  H11Y14540   5.034   5.238   8.387 -0.3736 -1.1697 -2.0256
  134SAPE  C31214541   5.010   5.369   8.219  1.0143  0.4341 -0.5293
  134SAPE  H12X14542   4.957   5.466   8.207 -0.0912 -0.1961 -0.9004
  134SAPE  H12Y14543   4.960   5.280   8.176  2.1687 -1.7983  2.3491
  134SAPE  C31314544   5.153   5.373   8.158  1.0158 -0.0755  0.0155
  134SAPE  H13X14545   5.194   5.276   8.195 -1.2543 -1.5982 -1.2594
  134SAPE  H13Y14546   5.213   5.456   8.202  1.4752  0.8938 -2.2855
  134SAPE  C31414547   5.134   5.390   8.005  0.1262  0.2096 -0.3865
  134SAPE  H14X14548   5.058   5.466   7.978  0.8825  0.7952 -0.9041
  134SAPE  H14Y14549   5.109   5.287   7.972 -2.6298 -0.1474  2.3567
  134SAPE  C31514550   5.262   5.416   7.924 -0.3633 -0.7813 -0.1587
  134SAPE  H15X14551   5.291   5.519   7.953  1.2962 -1.5952  1.2602
  134SAPE  H15Y14552   5.245   5.431   7.816 -1.6815  1.5319  0.3152
  134SAPE  C31614553   5.379   5.317   7.939 -0.2134  0.2009  0.2079
  134SAPE  H16X14554   5.420   5.331   8.042 -0.0398  0.2552  0.1323
  134SAPE  H16Y14555   5.461   5.351   7.872  0.1825  1.9717  1.4851
  134SAPE  C31714556   5.354   5.164   7.925  0.6188 -0.2255  0.6479
  134SAPE  H17X14557   5.336   5.134   7.819  0.2270 -0.5536  0.8059
  134SAPE  H17Y14558   5.276   5.126   7.994  0.6756 -0.5973  0.5127
  134SAPE  C31814559   5.488   5.090   7.960  1.1117 -0.9361 -0.0110
  134SAPE  H18X14560   5.507   5.107   8.068  1.4425  0.1198 -0.2208
  134SAPE  H18Y14561   5.566   5.150   7.909  0.7777 -1.6441 -1.4070
  134SAPE  H18Z14562   5.480   4.985   7.924 -0.7097 -0.9312  0.2598
  135SAPE     N14563   4.167   4.248  10.779  0.3397  0.2902  0.2896
  135SAPE   HN114564   4.137   4.193  10.862  1.9864 -1.3998 -0.1489
  135SAPE   HN214565   4.238   4.316  10.813  0.2179  1.0861 -1.0073
  135SAPE   HN314566   4.081   4.295  10.748  1.5783  2.3864 -0.1316
  135SAPE   C1214567   4.214   4.165  10.663  0.8120 -0.4935  0.2402
  135SAPE  H12A14568   4.161   4.068  10.670 -0.4896  0.1526 -0.3660
  135SAPE  H12B14569   4.324   4.161  10.678  0.5960  0.3496  2.3600
  135SAPE   C1114570   4.181   4.234  10.531  0.1613 -0.5580 -0.5549
  135SAPE  H11A14571   4.074   4.265  10.526 -0.9649 -3.1944  2.8875
  135SAPE  H11B14572   4.193   4.159  10.450 -0.8578  0.4843 -1.7222
  135SAPE     P14573   4.346   4.393  10.389  0.4297 -0.1272 -0.1298
  135SAPE   O1314574   4.244   4.425  10.287 -0.0248  0.2834 -0.0054
  135SAPE   O1414575   4.432   4.507  10.427  0.4294  0.0905 -0.1610
  135SAPE   O1214576   4.271   4.352  10.523  0.4739  0.2886  0.3478
  135SAPE   O1114577   4.424   4.259  10.352 -0.0388 -0.0728  0.1702
  135SAPE    C114578   4.520   4.266  10.246 -0.2470  0.1955  0.1274
  135SAPE    HA14579   4.608   4.328  10.277  0.3854  0.3052 -1.7933
  135SAPE    HB14580   4.561   4.163  10.245 -1.4239 -0.2860 -0.6380
  135SAPE    C214581   4.463   4.293  10.102 -0.1391 -0.2806 -0.4214
  135SAPE    HS14582   4.425   4.398  10.101  0.3475 -0.0918  0.3892
  135SAPE   O2114583   4.356   4.201  10.079  0.0210 -0.4036 -0.1446
  135SAPE   C2114584   4.259   4.235   9.995 -0.1541 -0.4608  0.0020
  135SAPE   O2214585   4.236   4.344   9.948  0.3420 -0.3201 -0.0201
  135SAPE   C2214586   4.166   4.119   9.984 -1.0086  0.0115  0.2775
  135SAPE   H2R14587   4.072   4.150   9.935 -1.4473  2.2762  2.3379
  135SAPE   H2S14588   4.216   4.037   9.928  1.9006  1.4593  0.5912
  135SAPE    C314589   4.569   4.272   9.990 -0.1110  0.8440  0.3593
  135SAPE    HX14590   4.607   4.169  10.009  0.1226  0.8615 -0.0020
  135SAPE    HY14591   4.656   4.341   9.998 -1.0563  2.0312  0.6205
  135SAPE   O3114592   4.511   4.286   9.856 -0.2045  0.2627  0.6006
  135SAPE   C3114593   4.466   4.407   9.814 -0.1701 -0.3249 -0.0294
  135SAPE   O3214594   4.471   4.509   9.881 -0.6031 -0.0746  0.1768
  135SAPE   C3214595   4.413   4.379   9.674 -0.2878  0.6166  0.4248
  135SAPE   H2X14596   4.325   4.312   9.686  1.3343 -1.7272 -0.2119
  135SAPE   H2Y14597   4.486   4.321   9.614 -0.2444 -2.0929  2.9025
  135SAPE   C2314598   4.139   4.064  10.126  0.2920  0.1129  0.4296
  135SAPE   H3R14599   4.097   4.135  10.201  2.0175  1.5774  0.0654
  135SAPE   H3S14600   4.232   4.037  10.181  0.8735  0.4484 -0.3685
  135SAPE   C2414601   4.051   3.941  10.118 -0.7222  0.5463 -0.1674
  135SAPE   H4R14602   4.047   3.894  10.219 -0.4537 -2.8770 -1.5950
  135SAPE   H4S14603   4.108   3.862  10.065 -0.5720  1.2953 -1.1291
  135SAPE   C2514604   3.911   3.950  10.061  0.8461  0.4388  0.1062
  135SAPE   H5R14605   3.838   4.001  10.126  2.8313  0.3784  2.5376
  135SAPE   C2614606   3.877   3.919   9.932 -0.1750 -0.4664  0.8361
  135SAPE   H6R14607   3.773   3.942   9.904 -0.6466 -1.8805  1.3714
  135SAPE   C2714608   3.960   3.868   9.822 -0.1566 -0.2896  0.2861
  135SAPE   H7R14609   4.060   3.850   9.866 -0.6518  0.1858  1.6532
  135SAPE   H7S14610   3.980   3.950   9.750  0.2752  0.2656  1.0230
  135SAPE   C2814611   3.910   3.743   9.755 -0.5192  0.0162  0.1432
  135SAPE   H8R14612   3.899   3.658   9.824 -3.4568  0.3402  0.2117
  135SAPE   C2914613   3.873   3.721   9.627 -0.5104  0.3720  0.0296
  135SAPE   H9R14614   3.842   3.619   9.599 -1.1833  0.7744 -0.7022
  135SAPE  C21014615   3.861   3.827   9.520 -0.0235 -0.1725 -0.1489
  135SAPE  H10R14616   3.890   3.924   9.566 -2.8061  0.9639 -0.6254
  135SAPE  H10S14617   3.754   3.839   9.495 -0.2226  1.2729  1.1874
  135SAPE  C21114618   3.945   3.787   9.399 -0.1442 -0.6931 -1.1398
  135SAPE  H11R14619   4.050   3.820   9.400 -0.7081  1.2602  0.4274
  135SAPE  C21214620   3.915   3.704   9.304 -0.2636 -0.4068  0.1653
  135SAPE  H12R14621   3.997   3.688   9.233  2.4517  0.0588  3.0048
  135SAPE  C21314622   3.790   3.619   9.284  0.4625  0.2475  0.1168
  135SAPE  H13R14623   3.715   3.694   9.249  1.1081  2.2033  2.6205
  135SAPE  H13S14624   3.741   3.586   9.378 -0.0459 -1.9699 -0.8642
  135SAPE  C21414625   3.829   3.492   9.209 -0.3630  0.0583 -0.7057
  135SAPE  H14R14626   3.893   3.510   9.121  1.2852  1.8406  0.7630
  135SAPE  C21514627   3.816   3.365   9.256  0.0065 -0.1949  0.4398
  135SAPE  H15R14628   3.860   3.286   9.193  0.4198  0.5632 -0.2316
  135SAPE  C21614629   3.740   3.332   9.382  0.0668  0.2110 -0.0182
  135SAPE  H16R14630   3.671   3.247   9.363 -0.1660  0.1822  0.8969
  135SAPE  H16S14631   3.651   3.397   9.398 -1.0748 -1.1454 -0.6100
  135SAPE  C21714632   3.826   3.301   9.511  0.7610 -0.6721  0.5887
  135SAPE  H17R14633   3.916   3.364   9.525  0.6739 -0.0283 -1.4172
  135SAPE  H17S14634   3.870   3.199   9.506 -2.2634 -2.0942  1.0226
  135SAPE  C21814635   3.748   3.330   9.637  0.5448 -0.4900  0.2765
  135SAPE  H18R14636   3.657   3.268   9.641  0.7683 -0.7515  2.5012
  135SAPE  H18S14637   3.712   3.434   9.620  0.7796 -0.4442  0.0453
  135SAPE  C21914638   3.840   3.348   9.762  0.6234 -0.2232  0.0895
  135SAPE  H19R14639   3.776   3.356   9.853 -0.4608  0.6777 -0.7137
  135SAPE  H19S14640   3.900   3.441   9.750  2.3259 -1.5581 -2.7900
  135SAPE  C22014641   3.930   3.228   9.780 -0.1073 -0.6201  0.2045
  135SAPE  H20R14642   3.995   3.217   9.690  2.1452  2.5322  1.2658
  135SAPE  H20S14643   3.882   3.130   9.802  1.4838 -1.6050 -0.5248
  135SAPE  H20T14644   3.994   3.260   9.865  0.8902  1.0314 -1.1100
  135SAPE   C3314645   4.376   4.516   9.597 -0.1318  0.3128  0.0092
  135SAPE   H3X14646   4.467   4.578   9.582  0.8398 -0.7127  1.4017
  135SAPE   H3Y14647   4.313   4.584   9.658  1.8713  2.2118  0.0591
  135SAPE   C3414648   4.311   4.491   9.462 -0.7961  0.1131  0.6620
  135SAPE   H4X14649   4.279   4.590   9.422  0.2282 -0.3155 -1.3624
  135SAPE   H4Y14650   4.234   4.412   9.475  0.0177 -0.8354 -0.0947
  135SAPE   C3514651   4.401   4.436   9.348 -0.5453 -0.0719  0.3603
  135SAPE   H5X14652   4.452   4.345   9.386 -0.3761  0.9223  2.6611
  135SAPE   H5Y14653   4.479   4.512   9.321 -1.4701  1.0157  0.6668
  135SAPE   C3614654   4.319   4.422   9.220  0.0151  0.3628  0.6842
  135SAPE   H6X14655   4.270   4.516   9.188  0.2173  0.4812  0.7211
  135SAPE   H6Y14656   4.237   4.349   9.237  0.6550 -0.7317 -0.7083
  135SAPE   C3714657   4.398   4.362   9.090  0.3798 -0.4012 -0.7741
  135SAPE   H7X14658   4.419   4.254   9.108  0.2734 -0.5098 -1.2670
  135SAPE   H7Y14659   4.499   4.409   9.081  1.0727 -1.1805  1.9112
  135SAPE   C3814660   4.311   4.345   8.968 -0.0903  0.7856  0.7775
  135SAPE   H8X14661   4.207   4.313   8.991 -1.1268  1.8552 -1.9679
  135SAPE   H8Y14662   4.362   4.270   8.904  0.1654  2.2438 -0.8088
  135SAPE   C3914663   4.288   4.473   8.882  0.1843  0.6284  0.4785
  135SAPE   H9X14664   4.385   4.528   8.881  1.1975 -1.0872 -0.4162
  135SAPE   H9Y14665   4.214   4.542   8.928 -0.6191 -0.5669  1.0344
  135SAPE  C31014666   4.235   4.441   8.737 -0.9312  0.0904 -0.5224
  135SAPE  H10X14667   4.181   4.535   8.716 -0.4714  0.6855  0.8447
  135SAPE  H10Y14668   4.156   4.363   8.750  0.0073 -1.1095 -1.6966
  135SAPE  C31114669   4.325   4.414   8.609 -0.0064 -0.5905  1.0592
  135SAPE  H11X14670   4.381   4.320   8.629  0.0029 -1.0915 -1.0921
  135SAPE  H11Y14671   4.386   4.499   8.573 -0.5428 -1.2084 -1.4738
  135SAPE  C31214672   4.234   4.366   8.488 -0.4219 -0.1746 -0.1824
  135SAPE  H12X14673   4.161   4.448   8.472 -0.5017 -0.4288 -1.1683
  135SAPE  H12Y14674   4.179   4.280   8.533  1.0073  0.2124  2.4757
  135SAPE  C31314675   4.307   4.307   8.367  0.7355 -0.2077  0.9144
  135SAPE  H13X14676   4.389   4.235   8.389 -0.2665 -2.4811 -2.0988
  135SAPE  H13Y14677   4.361   4.390   8.317  0.0160 -0.0745  0.3491
  135SAPE  C31414678   4.224   4.226   8.267 -0.1227  0.6714 -0.8330
  135SAPE  H14X14679   4.167   4.152   8.327  0.0826  0.4812 -0.8715
  135SAPE  H14Y14680   4.290   4.161   8.207  1.3268  2.3080 -1.1076
  135SAPE  C31514681   4.129   4.319   8.196 -0.4576 -1.2369 -0.0133
  135SAPE  H15X14682   4.194   4.382   8.131 -0.1488 -0.6396  0.8688
  135SAPE  H15Y14683   4.081   4.385   8.271  0.8880 -2.8404  2.3951
  135SAPE  C31614684   4.028   4.232   8.125 -0.0918  0.3445 -0.4271
  135SAPE  H16X14685   3.937   4.240   8.187  1.3861 -1.3616  2.1558
  135SAPE  H16Y14686   4.036   4.122   8.138 -0.7981  0.3671  0.2215
  135SAPE  C31714687   3.994   4.264   7.976  0.8427  0.0688 -0.6142
  135SAPE  H17X14688   3.915   4.187   7.963  1.4830 -0.7437  0.1525
  135SAPE  H17Y14689   4.082   4.247   7.911  0.0109  0.6497 -1.9287
  135SAPE  C31814690   3.937   4.396   7.939 -0.3563 -0.1771  0.0227
  135SAPE  H18X14691   3.844   4.423   7.993  1.3510  3.8412  1.3658
  135SAPE  H18Y14692   3.929   4.402   7.829 -0.4624 -2.7415 -0.1775
  135SAPE  H18Z14693   4.003   4.480   7.969  0.3611  0.4157 -2.9007
  136SAPE     N14694   6.303   5.402  10.293  0.2230  0.2576  0.4894
  136SAPE   HN114695   6.349   5.380  10.203  0.5023  0.4535  0.5836
  136SAPE   HN214696   6.222   5.464  10.273  0.5025  0.2414 -0.7338
  136SAPE   HN314697   6.377   5.450  10.348 -0.1213 -1.8907  3.0425
  136SAPE   C1214698   6.262   5.273  10.351 -0.4020  0.2390  0.2860
  136SAPE  H12A14699   6.161   5.287  10.395 -0.3001  1.6723  0.1157
  136SAPE  H12B14700   6.345   5.254  10.422  1.3950 -2.4155 -2.3197
  136SAPE   C1114701   6.268   5.169  10.240 -0.4650 -0.3750 -0.3844
  136SAPE  H11A14702   6.187   5.188  10.167  1.2465 -0.4531 -2.3937
  136SAPE  H11B14703   6.237   5.081  10.300  1.7350 -0.6860  0.4209
  136SAPE     P14704   6.464   5.034  10.138  0.0699 -0.1456 -0.1122
  136SAPE   O1314705   6.603   5.061  10.094  0.3716 -0.0471  0.3612
  136SAPE   O1414706   6.447   4.941  10.252  0.4962 -0.0476 -0.4283
  136SAPE   O1214707   6.394   5.172  10.180 -0.2429  0.4022  0.3075
  136SAPE   O1114708   6.385   4.971  10.013 -0.1154  0.3535  0.1352
  136SAPE    C114709   6.348   5.058   9.902 -0.1415  0.0798 -0.5753
  136SAPE    HA14710   6.237   5.050   9.899 -0.0249 -3.2227  0.1255
  136SAPE    HB14711   6.364   5.165   9.927 -1.1559 -0.1991  1.5514
  136SAPE    C214712   6.429   5.040   9.775 -0.7032  0.3411  0.4001
  136SAPE    HS14713   6.535   5.057   9.804 -0.8639  1.5989  0.2971
  136SAPE   O2114714   6.372   5.132   9.684  0.2281  0.4439  0.4275
  136SAPE   C2114715   6.467   5.201   9.614  0.0136  0.2158 -0.4829
  136SAPE   O2214716   6.583   5.219   9.645 -0.0780 -0.6289 -0.2287
  136SAPE   C2214717   6.391   5.236   9.474 -0.3775  0.0085 -0.4429
  136SAPE   H2R14718   6.345   5.142   9.438 -2.7873  0.6733  0.6839
  136SAPE   H2S14719   6.308   5.307   9.493 -1.0564 -0.9936  0.4467
  136SAPE    C314720   6.428   4.896   9.713 -0.0812  0.3295 -0.2092
  136SAPE    HX14721   6.321   4.884   9.687 -0.5872  0.8745  1.4573
  136SAPE    HY14722   6.460   4.819   9.786 -0.5255 -2.4575 -2.7814
  136SAPE   O3114723   6.502   4.879   9.590  0.4670 -0.0823 -0.0613
  136SAPE   C3114724   6.635   4.875   9.596 -0.4403  0.4930  0.0988
  136SAPE   O3214725   6.694   4.859   9.702  0.9251 -0.0491  0.0400
  136SAPE   C3214726   6.706   4.881   9.454  0.8613 -0.0614 -0.9769
  136SAPE   H2X14727   6.814   4.860   9.471  0.5801  0.2051  1.5851
  136SAPE   H2Y14728   6.696   4.988   9.425 -1.4699 -0.2889 -1.1590
  136SAPE   C2314729   6.493   5.307   9.375 -0.3815 -0.0880 -0.1015
  136SAPE   H3R14730   6.597   5.268   9.376 -0.6110 -0.7573 -1.1555
  136SAPE   H3S14731   6.509   5.410   9.414 -1.6502  0.4221 -0.8939
  136SAPE   C2414732   6.440   5.313   9.228  0.0926  0.0241  0.3776
  136SAPE   H4R14733   6.489   5.400   9.178 -1.4865  1.4750  1.2420
  136SAPE   H4S14734   6.337   5.355   9.230  0.4961  1.1080 -0.3561
  136SAPE   C2514735   6.455   5.180   9.151  0.0641 -0.5817 -0.9552
  136SAPE   H5R14736   6.369   5.113   9.161  1.8575 -2.8458  0.2766
  136SAPE   C2614737   6.537   5.145   9.048  0.2698  0.4617 -0.2360
  136SAPE   H6R14738   6.546   5.039   9.019  1.6967  1.3108 -3.3485
  136SAPE   C2714739   6.635   5.244   8.996  0.2697  0.3537  0.3738
  136SAPE   H7R14740   6.691   5.293   9.079  2.8507 -0.7315 -0.6243
  136SAPE   H7S14741   6.571   5.326   8.957  1.7080  1.1753 -0.3499
  136SAPE   C2814742   6.736   5.208   8.887  0.6064 -0.1312 -0.1188
  136SAPE   H8R14743   6.802   5.121   8.900  0.4863 -0.0977  0.8106
  136SAPE   C2914744   6.747   5.273   8.764 -0.3152  0.8833 -0.2547
  136SAPE   H9R14745   6.831   5.238   8.702  0.2573  1.6951  0.0354
  136SAPE  C21014746   6.676   5.396   8.705 -0.2094  0.0254 -0.0856
  136SAPE  H10R14747   6.649   5.462   8.790  0.3004  0.3155 -0.1456
  136SAPE  H10S14748   6.575   5.371   8.667 -0.5068  1.8610 -0.6378
  136SAPE  C21114749   6.737   5.485   8.601 -0.0920  0.3204  0.2846
  136SAPE  H11R14750   6.836   5.512   8.639  0.1948 -0.7602  0.3301
  136SAPE  C21214751   6.697   5.525   8.472 -1.2509  0.3683 -0.3591
  136SAPE  H12R14752   6.765   5.595   8.423 -1.3630 -0.4255 -1.6967
  136SAPE  C21314753   6.592   5.467   8.391  0.2426 -0.3700  0.5897
  136SAPE  H13R14754   6.550   5.540   8.319  1.5905 -0.9943 -0.8895
  136SAPE  H13S14755   6.507   5.453   8.462 -0.4749 -0.2375 -0.2211
  136SAPE  C21414756   6.614   5.335   8.326  0.3680  0.8587 -0.2846
  136SAPE  H14R14757   6.679   5.266   8.380 -0.4239 -0.7324 -1.2957
  136SAPE  C21514758   6.592   5.298   8.199  0.7352  0.6173 -0.0444
  136SAPE  H15R14759   6.619   5.193   8.179  1.7816  0.7844  0.4226
  136SAPE  C21614760   6.518   5.375   8.087 -0.7424  0.0352 -0.1506
  136SAPE  H16R14761   6.584   5.377   7.998 -0.8978  1.1939 -0.2442
  136SAPE  H16S14762   6.492   5.476   8.124  1.2046  0.4076  0.3305
  136SAPE  C21714763   6.387   5.323   8.028  0.7663  0.2870 -0.0878
  136SAPE  H17R14764   6.341   5.379   7.944 -1.6321 -0.7673  0.4356
  136SAPE  H17S14765   6.307   5.326   8.104 -1.9914 -1.7825 -2.6778
  136SAPE  C21814766   6.392   5.181   7.981  0.6649 -0.0559 -0.0697
  136SAPE  H18R14767   6.396   5.119   8.073  0.4044 -0.9948 -0.6813
  136SAPE  H18S14768   6.486   5.169   7.922  1.0735  2.3792 -0.0209
  136SAPE  C21914769   6.269   5.133   7.904  0.3360 -0.5519 -0.1345
  136SAPE  H19R14770   6.178   5.189   7.935  0.2740 -0.1437 -1.0010
  136SAPE  H19S14771   6.257   5.028   7.938 -2.4954  0.0359  1.0092
  136SAPE  C22014772   6.285   5.142   7.754 -0.1704  0.2832 -0.6024
  136SAPE  H20R14773   6.200   5.100   7.697  1.2873 -3.1661 -0.4904
  136SAPE  H20S14774   6.381   5.092   7.729  0.0215  1.1265 -1.6072
  136SAPE  H20T14775   6.293   5.247   7.719 -0.5027 -0.0342 -1.6600
  136SAPE   C3314776   6.644   4.786   9.346  0.5039 -0.5107  0.0941
  136SAPE   H3X14777   6.550   4.831   9.309  1.1755 -0.0136 -1.0661
  136SAPE   H3Y14778   6.619   4.682   9.377  0.2324 -0.7140 -0.7771
  136SAPE   C3414779   6.732   4.787   9.224 -0.4288  0.9562  0.5537
  136SAPE   H4X14780   6.810   4.710   9.244 -1.5119  0.0059  1.2651
  136SAPE   H4Y14781   6.793   4.880   9.220  0.0567  0.7397  2.0480
  136SAPE   C3514782   6.653   4.740   9.098  0.4017 -0.2383 -0.1527
  136SAPE   H5X14783   6.556   4.793   9.089  0.1247 -0.7474 -0.2067
  136SAPE   H5Y14784   6.631   4.631   9.105  1.5888 -0.5002 -0.3070
  136SAPE   C3614785   6.735   4.746   8.971 -0.1029  0.1797  0.0643
  136SAPE   H6X14786   6.826   4.684   8.984 -1.0946 -1.4018 -0.2913
  136SAPE   H6Y14787   6.763   4.853   8.960  0.0152  0.1682  0.2342
  136SAPE   C3714788   6.651   4.695   8.848  0.2999 -0.3696  0.6786
  136SAPE   H7X14789   6.589   4.616   8.895 -1.4143  0.5831  0.1138
  136SAPE   H7Y14790   6.721   4.652   8.772 -0.8138  0.3013 -0.7771
  136SAPE   C3814791   6.559   4.802   8.781 -0.5278 -0.3293 -0.6813
  136SAPE   H8X14792   6.491   4.857   8.849  0.1728  0.5652 -0.6803
  136SAPE   H8Y14793   6.499   4.738   8.714 -1.7897  0.2269 -0.1109
  136SAPE   C3914794   6.643   4.900   8.701 -0.2422 -0.0328 -0.4305
  136SAPE   H9X14795   6.708   4.851   8.624  0.0215  0.0051 -0.2320
  136SAPE   H9Y14796   6.711   4.946   8.775  0.4637 -0.9748 -0.4687
  136SAPE  C31014797   6.554   5.007   8.634 -0.3114  0.0613 -0.1185
  136SAPE  H10X14798   6.629   5.072   8.583  1.2030 -0.7511  0.9733
  136SAPE  H10Y14799   6.498   5.062   8.712  2.0525 -0.0302  1.7553
  136SAPE  C31114800   6.455   4.949   8.527 -0.0555  0.9775 -0.8139
  136SAPE  H11X14801   6.409   5.036   8.475  0.0160  0.4842 -1.7115
  136SAPE  H11Y14802   6.384   4.874   8.568 -0.3169  0.2800 -2.4814
  136SAPE  C31214803   6.547   4.881   8.413  0.4432  0.6015  0.0095
  136SAPE  H12X14804   6.578   4.783   8.453 -1.8868  0.1145  0.8166
  136SAPE  H12Y14805   6.635   4.948   8.404 -0.2733  1.7706  1.1527
  136SAPE  C31314806   6.469   4.857   8.280 -0.8226 -0.2874  0.3138
  136SAPE  H13X14807   6.427   4.953   8.244 -1.2213 -0.5975 -0.0550
  136SAPE  H13Y14808   6.387   4.790   8.312 -1.0456 -0.7844 -1.2093
  136SAPE  C31414809   6.564   4.808   8.164 -0.5717  0.0647 -0.4200
  136SAPE  H14X14810   6.613   4.714   8.198 -0.4146  0.8407  1.6291
  136SAPE  H14Y14811   6.640   4.889   8.155  0.5276 -1.0153 -1.4250
  136SAPE  C31514812   6.503   4.780   8.036 -0.3709  0.7294  0.2499
  136SAPE  H15X14813   6.481   4.879   7.991 -0.3674  0.4422 -0.3945
  136SAPE  H15Y14814   6.416   4.710   8.033  0.9251 -0.9673  0.8836
  136SAPE  C31614815   6.594   4.720   7.926 -0.2436  0.4484  0.1338
  136SAPE  H16X14816   6.537   4.723   7.831 -1.6471 -1.1680  0.8753
  136SAPE  H16Y14817   6.597   4.611   7.950 -0.3494  0.4270  0.0505
  136SAPE  C31714818   6.735   4.773   7.907 -0.1459 -0.5102 -0.5221
  136SAPE  H17X14819   6.787   4.756   8.004 -1.1574  2.6967  0.7197
  136SAPE  H17Y14820   6.732   4.881   7.879  3.0153  1.7305  5.6675
  136SAPE  C31814821   6.799   4.690   7.795 -0.6292 -0.1366 -0.1313
  136SAPE  H18X14822   6.785   4.581   7.815  1.1477 -0.2745  0.5393
  136SAPE  H18Y14823   6.907   4.716   7.789 -0.5513 -0.6788 -1.6694
  136SAPE  H18Z14824   6.749   4.707   7.697 -0.8572 -1.9518 -0.3648
  137SAPE     N14825   5.271   6.791  10.416  0.3786  0.5300  0.5115
  137SAPE   HN114826   5.296   6.694  10.387 -0.4578  0.4703 -0.0574
  137SAPE   HN214827   5.303   6.797  10.514 -2.1978  1.7083  1.3528
  137SAPE   HN314828   5.167   6.803  10.414  0.1526 -1.1660  0.1002
  137SAPE   C1214829   5.321   6.897  10.322 -0.0950  0.5476 -0.0455
  137SAPE  H12A14830   5.426   6.874  10.294  0.4494  1.2056  1.3475
  137SAPE  H12B14831   5.322   6.990  10.382  0.4099  0.9343 -0.6380
  137SAPE   C1114832   5.232   6.903  10.193 -0.0952  0.0152 -0.2469
  137SAPE  H11A14833   5.265   6.990  10.131 -0.3398 -1.1990 -2.1842
  137SAPE  H11B14834   5.128   6.927  10.224 -0.5684 -1.5345 -0.5479
  137SAPE     P14835   5.126   6.684  10.089 -0.3650  0.1759 -0.2753
  137SAPE   O1314836   5.173   6.565  10.017 -0.4511  0.1043  0.1027
  137SAPE   O1414837   5.080   6.660  10.223  0.1488 -0.3471  0.2245
  137SAPE   O1214838   5.248   6.783  10.118  0.5948 -0.5127  0.5728
  137SAPE   O1114839   5.020   6.769  10.012  0.1630  0.2142  0.2988
  137SAPE    C114840   5.058   6.853   9.897 -0.5939  0.0506  0.1834
  137SAPE    HA14841   5.161   6.884   9.924 -0.8471 -0.8376  2.3035
  137SAPE    HB14842   5.063   6.801   9.799  2.6312 -2.4812  1.4957
  137SAPE    C214843   4.974   6.979   9.899 -0.0857 -0.1218  0.1135
  137SAPE    HS14844   4.964   7.006  10.007 -0.2971 -0.6057  0.2167
  137SAPE   O2114845   4.847   6.964   9.838 -0.3483 -0.5231 -0.6079
  137SAPE   C2114846   4.746   7.034   9.893 -0.6128  0.1675  0.4773
  137SAPE   O2214847   4.756   7.107   9.989 -0.0379  0.1451 -0.0849
  137SAPE   C2214848   4.612   7.024   9.819 -0.1172 -0.0440  0.8466
  137SAPE   H2R14849   4.591   6.916   9.837  2.0022 -0.2308  2.5954
  137SAPE   H2S14850   4.534   7.081   9.875 -0.5847  1.1370 -0.9485
  137SAPE    C314851   5.043   7.107   9.837 -0.1946  0.3498 -0.1173
  137SAPE    HX14852   5.134   7.140   9.891  1.3216 -2.6494 -0.6470
  137SAPE    HY14853   4.965   7.186   9.848 -2.3214 -1.8590  2.1206
  137SAPE   O3114854   5.077   7.085   9.701  0.1653  0.2893  0.2508
  137SAPE   C3114855   5.010   7.142   9.602 -0.7272  0.1829 -0.4653
  137SAPE   O3214856   4.911   7.212   9.619 -0.2164 -0.6868 -0.8190
  137SAPE   C3214857   5.053   7.088   9.466  0.9213  0.1196  0.4501
  137SAPE   H2X14858   5.030   6.983   9.439  2.7942  0.1231 -1.4695
  137SAPE   H2Y14859   5.163   7.099   9.479  0.4589  1.4977  4.6603
  137SAPE   C2314860   4.611   7.097   9.680 -0.9465  0.2486  0.6796
  137SAPE   H3R14861   4.657   7.197   9.688  1.8844 -1.0131  1.3541
  137SAPE   H3S14862   4.507   7.126   9.650  0.1132  3.4874 -0.2941
  137SAPE   C2414863   4.669   7.009   9.564 -0.9641 -0.1901  0.1693
  137SAPE   H4R14864   4.772   6.971   9.585 -0.2179  1.4585 -0.3221
  137SAPE   H4S14865   4.681   7.077   9.477  1.5769 -2.9729 -1.8609
  137SAPE   C2514866   4.575   6.899   9.523 -0.4678  0.0197 -0.2082
  137SAPE   H5R14867   4.586   6.810   9.587 -0.0894  1.4356  1.7925
  137SAPE   C2614868   4.481   6.903   9.423  0.0050 -0.2408  0.6820
  137SAPE   H6R14869   4.423   6.811   9.412  1.5361 -0.9256 -4.5608
  137SAPE   C2714870   4.454   7.014   9.323 -0.4756 -0.0135 -0.3326
  137SAPE   H7R14871   4.519   7.103   9.335 -0.1513 -0.1326 -1.1086
  137SAPE   H7S14872   4.355   7.052   9.355 -0.2983 -2.1418  3.2650
  137SAPE   C2814873   4.462   6.974   9.177 -0.2827  0.2226 -0.5961
  137SAPE   H8R14874   4.561   6.987   9.129  0.6322  0.5987  1.3026
  137SAPE   C2914875   4.364   6.912   9.108 -0.0414 -0.1244 -0.2855
  137SAPE   H9R14876   4.376   6.868   9.008  1.8555  0.9836 -0.5903
  137SAPE  C21014877   4.228   6.878   9.177 -0.3259 -0.2889  0.0858
  137SAPE  H10R14878   4.219   6.946   9.265 -0.0404 -0.7928  0.5098
  137SAPE  H10S14879   4.234   6.776   9.219  0.9055 -1.3549 -2.4753
  137SAPE  C21114880   4.109   6.875   9.088  0.0840 -0.1964 -0.4537
  137SAPE  H11R14881   4.126   6.845   8.984 -2.2169  0.1868 -1.0036
  137SAPE  C21214882   3.982   6.909   9.115  0.2051 -0.6236  0.5332
  137SAPE  H12R14883   3.909   6.912   9.033  1.2263  1.1679 -0.3620
  137SAPE  C21314884   3.931   6.953   9.245  0.2537 -0.7834  0.1544
  137SAPE  H13R14885   4.003   7.007   9.311 -1.6861  0.0238  1.7165
  137SAPE  H13S14886   3.923   6.857   9.301  2.2782  0.2761  2.4401
  137SAPE  C21414887   3.796   7.016   9.245  0.6171 -0.5312 -0.1665
  137SAPE  H14R14888   3.728   7.003   9.160  0.9287  0.9869 -0.6801
  137SAPE  C21514889   3.751   7.104   9.340  0.0478  0.2906 -0.1977
  137SAPE  H15R14890   3.655   7.156   9.328 -0.5078 -0.3780  1.0938
  137SAPE  C21614891   3.816   7.149   9.472 -0.3291  0.7716  0.3424
  137SAPE  H16R14892   3.890   7.072   9.502  0.4437  1.2887 -0.1950
  137SAPE  H16S14893   3.741   7.130   9.551 -1.1355 -0.1666 -0.6105
  137SAPE  C21714894   3.873   7.291   9.479  1.0166  0.0741 -0.4098
  137SAPE  H17R14895   3.868   7.305   9.589  2.1121  0.7013 -0.4212
  137SAPE  H17S14896   3.805   7.365   9.432  1.3493  1.0216  0.5547
  137SAPE  C21814897   4.014   7.293   9.424  0.4602  0.4850 -0.0047
  137SAPE  H18R14898   4.039   7.400   9.408 -2.7732  1.2351 -0.8074
  137SAPE  H18S14899   4.022   7.234   9.331 -1.9505  2.1328 -1.3751
  137SAPE  C21914900   4.133   7.248   9.518 -0.1085 -0.3699 -0.1367
  137SAPE  H19R14901   4.132   7.137   9.517 -0.1949 -0.3949  1.0570
  137SAPE  H19S14902   4.118   7.283   9.623 -2.6810 -3.4866  0.7006
  137SAPE  C22014903   4.265   7.302   9.471  0.5526 -0.4663 -0.2326
  137SAPE  H20R14904   4.268   7.310   9.360  0.9065 -0.5321 -0.2289
  137SAPE  H20S14905   4.354   7.245   9.504  0.2365 -0.0669  1.3773
  137SAPE  H20T14906   4.277   7.409   9.494  0.1826 -0.5429  0.3296
  137SAPE   C3314907   4.996   7.175   9.350 -0.5931  0.0984 -0.1170
  137SAPE   H3X14908   5.044   7.275   9.350  2.4984 -1.2509 -1.7950
  137SAPE   H3Y14909   4.886   7.185   9.364 -0.3369  0.4642  1.7886
  137SAPE   C3414910   5.015   7.108   9.216  0.2067  0.1910 -0.6195
  137SAPE   H4X14911   5.048   7.005   9.238  0.6247  0.5978  0.7359
  137SAPE   H4Y14912   5.093   7.156   9.154  0.6755  0.3135  0.0526
  137SAPE   C3514913   4.884   7.081   9.140  0.4009  0.2883  0.3676
  137SAPE   H5X14914   4.827   7.175   9.125 -0.4820 -0.5268 -1.6716
  137SAPE   H5Y14915   4.821   7.008   9.194  1.7454 -2.1192 -1.1428
  137SAPE   C3614916   4.919   7.031   8.996 -0.4182  0.0673  0.4214
  137SAPE   H6X14917   4.929   6.921   9.002  1.6156  0.2394  0.8798
  137SAPE   H6Y14918   5.015   7.064   8.953 -0.1311 -1.7845 -0.4384
  137SAPE   C3714919   4.816   7.052   8.884  0.1061 -0.3740  0.0123
  137SAPE   H7X14920   4.826   7.160   8.863 -0.5742  0.0138  1.5429
  137SAPE   H7Y14921   4.713   7.036   8.924 -0.3349  0.0933 -0.9145
  137SAPE   C3814922   4.828   6.965   8.752  0.2508  0.2583 -0.7287
  137SAPE   H8X14923   4.800   6.863   8.787 -2.5104  0.7060 -1.4008
  137SAPE   H8Y14924   4.929   6.971   8.705  0.1197  2.4190 -0.8427
  137SAPE   C3914925   4.731   7.020   8.642  0.2621  0.7178  0.1045
  137SAPE   H9X14926   4.629   7.045   8.676  0.1241  0.3667 -0.0423
  137SAPE   H9Y14927   4.719   6.937   8.568  1.7037  1.2642 -0.7900
  137SAPE  C31014928   4.787   7.142   8.567 -0.4646 -0.2762 -0.3506
  137SAPE  H10X14929   4.891   7.127   8.532  0.1602 -1.2289  1.7170
  137SAPE  H10Y14930   4.772   7.231   8.632 -0.0810 -1.7873  1.9534
  137SAPE  C31114931   4.703   7.174   8.437  0.1866 -0.1268 -0.8641
  137SAPE  H11X14932   4.747   7.265   8.391  1.4740 -0.1918  0.1824
  137SAPE  H11Y14933   4.598   7.187   8.471  0.9961  3.2176  0.7680
  137SAPE  C31214934   4.709   7.074   8.324  0.0718 -0.2038  0.7074
  137SAPE  H12X14935   4.707   6.967   8.354  3.0416 -0.1701  1.3180
  137SAPE  H12Y14936   4.810   7.077   8.278 -0.5560  1.4157 -0.6809
  137SAPE  C31314937   4.595   7.123   8.226 -0.0246 -0.1584 -0.3139
  137SAPE  H13X14938   4.638   7.201   8.160 -2.6496  1.0849 -0.6822
  137SAPE  H13Y14939   4.517   7.175   8.285  0.5581  1.5594 -1.0180
  137SAPE  C31414940   4.527   7.010   8.145  0.4601 -0.4577  0.0244
  137SAPE  H14X14941   4.505   6.918   8.203  0.7976 -0.7478 -0.2998
  137SAPE  H14Y14942   4.595   6.983   8.062  0.8518  1.4939 -0.3434
  137SAPE  C31514943   4.393   7.050   8.082  0.7201  0.4248  0.1559
  137SAPE  H15X14944   4.325   7.096   8.157  1.2811  1.5893 -0.0273
  137SAPE  H15Y14945   4.351   6.959   8.033  3.2707 -0.8553  0.1758
  137SAPE  C31614946   4.408   7.153   7.970 -0.5150 -0.4254 -0.0424
  137SAPE  H16X14947   4.474   7.111   7.892  2.3954 -0.9490  2.4990
  137SAPE  H16Y14948   4.457   7.245   8.011  1.1430 -0.3735 -1.9465
  137SAPE  C31714949   4.270   7.183   7.903  0.7201 -0.3779 -0.8486
  137SAPE  H17X14950   4.262   7.288   7.868  1.7962 -0.5516 -1.6446
  137SAPE  H17Y14951   4.179   7.166   7.965  0.6082 -0.7555 -1.1140
  137SAPE  C31814952   4.250   7.100   7.777 -0.0010 -0.3955  1.2281
  137SAPE  H18X14953   4.278   6.994   7.792  2.2909  0.2630  2.0949
  137SAPE  H18Y14954   4.315   7.142   7.697 -2.2251  0.8563 -0.0216
  137SAPE  H18Z14955   4.152   7.107   7.725  1.1000 -0.8705 -1.0452
  138SAPE     N14956   0.521   2.412  10.562 -0.2400 -0.2094 -0.4979
  138SAPE   HN114957   0.445   2.346  10.535  0.2820 -0.4149 -1.5042
  138SAPE   HN214958   0.563   2.397  10.656  0.7009  0.1480 -0.8431
  138SAPE   HN314959   0.495   2.512  10.575  4.2086  1.4475 -2.4433
  138SAPE   C1214960   0.621   2.400  10.451  0.1646 -0.2216 -0.0179
  138SAPE  H12A14961   0.659   2.297  10.436 -0.3482 -0.4546  0.2543
  138SAPE  H12B14962   0.710   2.459  10.481 -0.0225  0.5903 -0.9886
  138SAPE   C1114963   0.571   2.458  10.321  0.7208 -0.3003 -0.4690
  138SAPE  H11A14964   0.486   2.399  10.281  2.0694 -0.8699 -2.6792
  138SAPE  H11B14965   0.660   2.454  10.254  1.9672  0.3427  1.0589
  138SAPE     P14966   0.587   2.721  10.282  0.0528 -0.2341  0.2129
  138SAPE   O1314967   0.493   2.833  10.300 -0.1535 -0.2996  0.0409
  138SAPE   O1414968   0.717   2.741  10.346 -0.9402 -0.0522  0.2753
  138SAPE   O1214969   0.523   2.597  10.342  0.5673  0.1272 -0.0230
  138SAPE   O1114970   0.600   2.691  10.130 -0.3254  0.0870  0.8439
  138SAPE    C114971   0.494   2.694  10.031 -0.1527  0.7215 -0.1394
  138SAPE    HA14972   0.413   2.768  10.046 -0.9860 -0.0798 -0.6197
  138SAPE    HB14973   0.544   2.735   9.941 -0.4882  1.3714 -0.0381
  138SAPE    C214974   0.429   2.551   9.987 -0.2797 -0.0984 -0.2172
  138SAPE    HS14975   0.365   2.515  10.071  0.1941  0.5204  0.4147
  138SAPE   O2114976   0.540   2.463   9.968 -0.7634  0.3868 -0.7981
  138SAPE   C2114977   0.515   2.337   9.940  0.2527  0.0354 -0.3257
  138SAPE   O2214978   0.409   2.282   9.938  0.1989 -0.1387 -0.2995
  138SAPE   C2214979   0.645   2.261   9.904 -0.4220  0.3764 -0.3699
  138SAPE   H2R14980   0.721   2.329   9.859 -2.3232  3.7448  1.1217
  138SAPE   H2S14981   0.691   2.228   9.999 -0.5188  1.6357  0.1222
  138SAPE    C314982   0.349   2.557   9.856 -0.5604 -0.3999  0.5591
  138SAPE    HX14983   0.268   2.631   9.875  1.1802  1.5094  0.9276
  138SAPE    HY14984   0.298   2.458   9.848  0.1185 -1.0745  3.3389
  138SAPE   O3114985   0.425   2.594   9.744 -0.0544 -0.6542  0.8814
  138SAPE   C3114986   0.347   2.628   9.640 -0.6020 -0.5548 -0.1891
  138SAPE   O3214987   0.226   2.625   9.634  0.7575  0.4033 -0.0039
  138SAPE   C3214988   0.442   2.670   9.528  0.2481 -0.4284  0.1768
  138SAPE   H2X14989   0.529   2.601   9.534  0.9851  0.5119  0.3741
  138SAPE   H2Y14990   0.468   2.774   9.555  1.9761 -1.0818  1.1852
  138SAPE   C2314991   0.627   2.130   9.822 -0.4648 -0.5475 -0.9109
  138SAPE   H3R14992   0.569   2.057   9.882  1.9846 -0.6051  1.6105
  138SAPE   H3S14993   0.730   2.088   9.828 -0.2487 -0.3168 -2.5239
  138SAPE   C2414994   0.611   2.163   9.677 -0.5993 -0.8424 -0.8348
  138SAPE   H4R14995   0.699   2.220   9.640  2.3708 -3.2702  1.9357
  138SAPE   H4S14996   0.518   2.222   9.665  0.1365  0.1896 -1.6336
  138SAPE   C2514997   0.592   2.045   9.593 -0.0842  0.0358  0.1580
  138SAPE   H5R14998   0.501   1.985   9.611  0.6787 -1.1187  0.3010
  138SAPE   C2614999   0.669   2.003   9.488  0.4946  0.0489 -0.4019
  138SAPE   H6R15000   0.624   1.920   9.431  2.3661  0.2200 -2.2514
  138SAPE   C2715001   0.787   2.069   9.424 -0.9358 -0.0583  0.0348
  138SAPE   H7R15002   0.874   2.046   9.490 -1.1604 -0.2826  0.2555
  138SAPE   H7S15003   0.777   2.179   9.425 -0.1843  0.0232  1.1115
  138SAPE   C2815004   0.818   2.025   9.281  0.2080 -0.6537 -0.3544
  138SAPE   H8R15005   0.891   1.943   9.290  1.0919  0.3147  2.5829
  138SAPE   C2915006   0.763   2.063   9.166 -0.3354 -0.8714 -0.2437
  138SAPE   H9R15007   0.789   2.014   9.071  1.7063 -0.7590  0.2089
  138SAPE  C21015008   0.653   2.160   9.153 -0.1172 -0.9715  0.1200
  138SAPE  H10R15009   0.693   2.249   9.099  1.7194 -2.7470 -1.5918
  138SAPE  H10S15010   0.627   2.202   9.253  0.8667  0.0096 -0.0173
  138SAPE  C21115011   0.534   2.115   9.086 -0.1592 -0.2485  0.4727
  138SAPE  H11R15012   0.446   2.083   9.143 -0.9413 -2.9253 -2.0390
  138SAPE  C21215013   0.517   2.097   8.954  0.3219 -0.4905  0.3284
  138SAPE  H12R15014   0.428   2.044   8.919 -0.0217  1.0337 -1.2597
  138SAPE  C21315015   0.621   2.128   8.840 -0.2744 -0.3003 -0.0362
  138SAPE  H13R15016   0.723   2.120   8.884 -0.1048 -0.8004 -0.5103
  138SAPE  H13S15017   0.597   2.235   8.821  0.8330 -0.0369 -0.0231
  138SAPE  C21415018   0.619   2.048   8.712 -0.3254  0.2314  0.3386
  138SAPE  H14R15019   0.698   1.974   8.692 -0.7216 -1.1293  3.2702
  138SAPE  C21515020   0.539   2.072   8.608 -0.3035 -0.2021  0.4537
  138SAPE  H15R15021   0.542   2.005   8.520 -1.9441 -1.3248  1.2197
  138SAPE  C21615022   0.431   2.177   8.592  0.1802 -0.1362  0.3857
  138SAPE  H16R15023   0.403   2.230   8.685 -4.1412  1.3540 -1.5129
  138SAPE  H16S15024   0.337   2.133   8.553 -0.4581  1.7536 -0.3327
  138SAPE  C21715025   0.461   2.294   8.495 -0.2227  0.1294  0.0671
  138SAPE  H17R15026   0.563   2.332   8.517 -0.0079  1.1712 -2.3872
  138SAPE  H17S15027   0.390   2.378   8.512 -0.1098  0.4204 -0.8381
  138SAPE  C21815028   0.463   2.246   8.345 -0.5510  0.1830 -0.0352
  138SAPE  H18R15029   0.357   2.221   8.324 -0.4944  0.9346 -1.2846
  138SAPE  H18S15030   0.529   2.160   8.319  0.1283  0.3518  1.0177
  138SAPE  C21915031   0.495   2.350   8.243 -0.2557 -0.1843  0.1386
  138SAPE  H19R15032   0.532   2.309   8.147  0.1848  2.3427 -0.8629
  138SAPE  H19S15033   0.578   2.412   8.284  1.1054 -0.2675 -2.2828
  138SAPE  C22015034   0.374   2.444   8.206 -0.3726  0.4815 -0.5742
  138SAPE  H20R15035   0.288   2.377   8.183 -0.6491  0.8781 -0.6930
  138SAPE  H20S15036   0.398   2.521   8.130 -1.8981  0.3990 -1.1740
  138SAPE  H20T15037   0.332   2.500   8.292  0.2482 -0.1266  0.1481
  138SAPE   C3315038   0.383   2.659   9.381 -0.2621 -0.2437 -0.0687
  138SAPE   H3X15039   0.466   2.677   9.309 -0.6669  1.7524 -0.0971
  138SAPE   H3Y15040   0.314   2.747   9.380  0.2545  0.2604  2.3972
  138SAPE   C3415041   0.304   2.534   9.343  0.0057 -0.3167 -0.2250
  138SAPE   H4X15042   0.206   2.572   9.308 -0.4856 -1.2738  0.0663
  138SAPE   H4Y15043   0.292   2.468   9.431 -0.5175 -1.9867 -1.4935
  138SAPE   C3515044   0.382   2.447   9.249  0.7842 -0.4339 -0.4843
  138SAPE   H5X15045   0.319   2.356   9.241 -0.3431  0.3215 -0.3596
  138SAPE   H5Y15046   0.480   2.418   9.292  0.1685  0.3370  1.5253
  138SAPE   C3615047   0.400   2.518   9.116  0.4302  0.1640 -0.1040
  138SAPE   H6X15048   0.461   2.611   9.124  0.8536 -0.1474  0.3276
  138SAPE   H6Y15049   0.299   2.560   9.097  0.5471  1.0279  1.0765
  138SAPE   C3715050   0.452   2.431   9.006 -0.6899 -0.9218  0.0011
  138SAPE   H7X15051   0.388   2.344   8.980 -0.0518 -1.7713  1.1531
  138SAPE   H7Y15052   0.554   2.398   9.038 -0.7576  0.6828  2.1050
  138SAPE   C3815053   0.470   2.510   8.880  0.2582 -0.2986  0.3241
  138SAPE   H8X15054   0.531   2.450   8.810  0.6994 -1.2598  1.4983
  138SAPE   H8Y15055   0.520   2.608   8.895 -0.8607  0.0704  1.9300
  138SAPE   C3915056   0.334   2.521   8.805  0.8150 -0.3585 -0.1677
  138SAPE   H9X15057   0.266   2.575   8.873  1.4498  0.0638  0.1429
  138SAPE   H9Y15058   0.285   2.424   8.782  0.7209 -0.4869  0.5347
  138SAPE  C31015059   0.355   2.606   8.676 -0.0710 -1.1443 -0.3270
  138SAPE  H10X15060   0.425   2.567   8.599  0.6719 -1.3782  0.4620
  138SAPE  H10Y15061   0.380   2.708   8.712  0.6508 -1.5624  0.3731
  138SAPE  C31115062   0.224   2.613   8.596  0.1494  0.9519  0.4026
  138SAPE  H11X15063   0.139   2.568   8.651 -2.0189  2.2633 -1.7347
  138SAPE  H11Y15064   0.242   2.548   8.508  4.3807  1.3087  0.7922
  138SAPE  C31215065   0.172   2.755   8.563 -0.2018 -0.4706  0.1885
  138SAPE  H12X15066   0.222   2.793   8.472 -1.0431  2.4184  0.8492
  138SAPE  H12Y15067   0.210   2.834   8.631 -1.0097  0.8150 -0.8203
  138SAPE  C31315068   0.023   2.765   8.549  0.1174 -0.3520 -0.2649
  138SAPE  H13X15069  -0.030   2.729   8.640 -0.4790  1.1404  0.0084
  138SAPE  H13Y15070  -0.003   2.715   8.453 -1.6202 -0.9892  0.5083
  138SAPE  C31415071  -0.027   2.914   8.531  0.3356 -0.6300  0.0803
  138SAPE  H14X15072   0.040   2.963   8.458  0.8836  1.6070  2.0075
  138SAPE  H14Y15073  -0.027   2.963   8.630 -1.8576  0.1706 -0.2484
  138SAPE  C31515074  -0.178   2.919   8.480 -0.6554  0.7824 -0.4043
  138SAPE  H15X15075  -0.166   2.878   8.377  3.7337  0.1794  0.1221
  138SAPE  H15Y15076  -0.210   3.025   8.485  0.4262  1.0814  0.8452
  138SAPE  C31615077  -0.281   2.833   8.558 -0.1931 -0.5851 -0.1962
  138SAPE  H16X15078  -0.364   2.896   8.594 -0.2593 -1.1733  0.6927
  138SAPE  H16Y15079  -0.244   2.802   8.658 -1.3137  3.7868  1.8141
  138SAPE  C31715080  -0.341   2.709   8.488 -0.5275 -0.2209  0.2039
  138SAPE  H17X15081  -0.261   2.636   8.465 -0.1361  0.3578 -0.3032
  138SAPE  H17Y15082  -0.367   2.742   8.385  1.5093  0.7956 -0.0400
  138SAPE  C31815083  -0.466   2.648   8.559  0.2786 -1.0205  0.2507
  138SAPE  H18X15084  -0.454   2.640   8.669 -1.8691  1.8198  0.8028
  138SAPE  H18Y15085  -0.468   2.547   8.513  0.7542 -0.9321  0.0266
  138SAPE  H18Z15086  -0.561   2.692   8.521  1.8216  0.7804 -1.7739
  139SAPE     N15087   2.365   1.305  10.595  0.0216 -0.2699  0.0859
  139SAPE   HN115088   2.463   1.282  10.621  0.3890  0.1060 -0.9285
  139SAPE   HN215089   2.308   1.313  10.682 -2.1312 -1.1107 -1.1778
  139SAPE   HN315090   2.327   1.227  10.537  0.1695 -0.6714  0.5167
  139SAPE   C1215091   2.352   1.430  10.517 -0.0363  0.6097 -0.4155
  139SAPE  H12A15092   2.413   1.417  10.425 -0.6943 -0.2814 -0.7443
  139SAPE  H12B15093   2.390   1.511  10.582 -0.6349 -0.5034  1.3953
  139SAPE   C1115094   2.203   1.457  10.490 -1.0923 -0.7421 -0.5168
  139SAPE  H11A15095   2.160   1.382  10.421 -1.1755 -0.7411 -0.4663
  139SAPE  H11B15096   2.202   1.554  10.435 -1.3242 -0.5067 -0.1076
  139SAPE     P15097   2.068   1.598  10.666 -0.0573 -0.0638  0.8219
  139SAPE   O1315098   1.949   1.565  10.754 -0.7450 -0.2698  0.2190
  139SAPE   O1415099   2.180   1.676  10.719  0.8056  0.5806 -0.6727
  139SAPE   O1215100   2.140   1.463  10.614  0.4876 -0.0553 -0.6531
  139SAPE   O1115101   2.015   1.685  10.540  0.0896  0.2190  0.5476
  139SAPE    C115102   1.920   1.612  10.454 -0.3322  0.1598 -0.1178
  139SAPE    HA15103   1.933   1.503  10.472  3.9928  0.9453  3.5347
  139SAPE    HB15104   1.819   1.650  10.480  0.4445  1.6659  0.8457
  139SAPE    C215105   1.958   1.647  10.305  0.4093  0.6158 -0.1439
  139SAPE    HS15106   2.047   1.584  10.284  0.4195  0.2288  0.9859
  139SAPE   O2115107   1.991   1.785  10.286 -0.6854 -0.4021 -0.5077
  139SAPE   C2115108   2.102   1.817  10.225 -0.2206 -0.5132 -0.3384
  139SAPE   O2215109   2.191   1.745  10.184 -0.2622 -0.1819  0.1035
  139SAPE   C2215110   2.104   1.967  10.207 -0.1020 -0.1845 -0.2088
  139SAPE   H2R15111   2.042   2.006  10.291 -0.3295 -2.0544  0.5535
  139SAPE   H2S15112   2.202   2.017  10.222  0.7617 -2.3123  2.0702
  139SAPE    C315113   1.831   1.607  10.221  0.3248  0.4076  0.5372
  139SAPE    HX15114   1.752   1.683  10.238 -0.1479 -0.6269  3.3487
  139SAPE    HY15115   1.792   1.509  10.255  3.1627 -1.0044 -0.0088
  139SAPE   O3115116   1.862   1.575  10.079 -0.5441  0.1180 -0.5702
  139SAPE   C3115117   1.821   1.657   9.983  0.0690  0.3936 -0.2788
  139SAPE   O3215118   1.766   1.767  10.003  0.3983 -0.1547  0.0052
  139SAPE   C3215119   1.865   1.605   9.849 -0.2778  0.6335  0.1707
  139SAPE   H2X15120   1.834   1.498   9.844  1.3577  0.1932 -2.5142
  139SAPE   H2Y15121   1.976   1.603   9.852 -0.2625  0.1421 -0.5136
  139SAPE   C2315122   2.035   2.009  10.080  0.2401  0.1387 -0.0547
  139SAPE   H3R15123   2.000   2.114  10.092 -0.2049  0.2597 -1.9845
  139SAPE   H3S15124   1.946   1.946  10.060 -0.0115  0.9127 -1.5438
  139SAPE   C2415125   2.125   2.020   9.956 -0.0213  0.6296 -0.0690
  139SAPE   H4R15126   2.218   2.071   9.990 -0.2637  0.5745  0.6744
  139SAPE   H4S15127   2.081   2.089   9.880  1.8651  1.2162 -0.6904
  139SAPE   C2515128   2.150   1.876   9.901  0.1840  0.4239 -1.1614
  139SAPE   H5R15129   2.179   1.809   9.983 -0.0800  0.2369 -1.2204
  139SAPE   C2615130   2.152   1.839   9.774 -0.1305  0.0459  0.2312
  139SAPE   H6R15131   2.164   1.733   9.748 -0.4176 -0.3971  1.7883
  139SAPE   C2715132   2.139   1.929   9.657  0.3826 -0.4556  0.1406
  139SAPE   H7R15133   2.210   1.896   9.578  1.8009 -0.4735  1.3755
  139SAPE   H7S15134   2.180   2.030   9.679 -2.5265  0.9608 -0.4578
  139SAPE   C2815135   1.994   1.960   9.613 -0.0215 -0.1407 -0.1633
  139SAPE   H8R15136   1.932   1.957   9.704  2.6821 -0.3905  1.8082
  139SAPE   C2915137   1.942   1.959   9.487 -0.1374 -0.0189 -0.6054
  139SAPE   H9R15138   1.836   1.982   9.468  0.4859  3.6752 -0.4674
  139SAPE  C21015139   2.027   1.931   9.369 -0.1137 -0.8823  0.1717
  139SAPE  H10R15140   2.127   1.967   9.400  0.1342 -2.8405  1.8075
  139SAPE  H10S15141   2.000   1.993   9.281  0.8007 -0.6175  0.0654
  139SAPE  C21115142   2.044   1.790   9.337  0.1112  0.0351  0.1543
  139SAPE  H11R15143   2.113   1.727   9.394  1.0252 -0.5832 -1.5484
  139SAPE  C21215144   1.985   1.720   9.236 -0.1795  0.4293  0.1128
  139SAPE  H12R15145   2.006   1.613   9.220  0.6285  0.6248 -0.1818
  139SAPE  C21315146   1.888   1.772   9.136  0.9684 -0.0905  0.4734
  139SAPE  H13R15147   1.949   1.802   9.047  0.2628 -0.6908 -0.2298
  139SAPE  H13S15148   1.844   1.867   9.172  2.0531 -0.3364  2.6053
  139SAPE  C21415149   1.781   1.673   9.084 -0.3604 -0.1978  0.4634
  139SAPE  H14R15150   1.746   1.591   9.148 -1.2999 -1.1541 -1.2114
  139SAPE  C21515151   1.728   1.680   8.958  0.2102 -0.6054 -0.2913
  139SAPE  H15R15152   1.667   1.599   8.916 -0.9631  0.9133 -1.6322
  139SAPE  C21615153   1.765   1.780   8.859  0.0326  0.4592  0.1668
  139SAPE  H16R15154   1.800   1.871   8.913  4.1517 -0.8939  0.0870
  139SAPE  H16S15155   1.679   1.801   8.791 -0.9067 -1.1559  0.8039
  139SAPE  C21715156   1.881   1.717   8.774  0.2716 -0.1949  0.1194
  139SAPE  H17R15157   1.873   1.609   8.752 -1.6067 -0.3435  1.2383
  139SAPE  H17S15158   1.964   1.725   8.847 -1.3727 -0.1437  2.0833
  139SAPE  C21815159   1.921   1.796   8.652 -0.0123 -0.2445  0.5471
  139SAPE  H18R15160   1.960   1.896   8.684  1.3404 -0.4814 -0.2855
  139SAPE  H18S15161   1.847   1.813   8.571 -0.7551  1.2251  1.4907
  139SAPE  C21915162   2.039   1.743   8.573  0.1240  0.2775 -0.8501
  139SAPE  H19R15163   2.005   1.665   8.502  0.0099 -0.5596  0.1045
  139SAPE  H19S15164   2.123   1.700   8.631 -1.7287 -0.4017  1.4698
  139SAPE  C22015165   2.094   1.845   8.474  0.0160 -0.3867  0.4250
  139SAPE  H20R15166   2.104   1.945   8.522 -0.5638  0.3786 -0.9791
  139SAPE  H20S15167   2.007   1.873   8.412  0.0257  0.6941  0.8813
  139SAPE  H20T15168   2.185   1.817   8.416 -0.0587  0.3539 -0.0685
  139SAPE   C3315169   1.783   1.685   9.747  0.1515  0.5310  0.6370
  139SAPE   H3X15170   1.807   1.794   9.743  0.6941  0.3854 -0.4504
  139SAPE   H3Y15171   1.673   1.678   9.764  0.1205 -0.2959  0.1505
  139SAPE   C3415172   1.801   1.634   9.599 -0.2561 -0.1128 -0.1688
  139SAPE   H4X15173   1.908   1.638   9.568  0.5546 -1.2230  2.2622
  139SAPE   H4Y15174   1.730   1.693   9.538  0.0509  0.0231 -0.4000
  139SAPE   C3515175   1.767   1.483   9.577 -0.2248  0.2826  0.4108
  139SAPE   H5X15176   1.678   1.458   9.639 -0.6384  0.1465 -0.2267
  139SAPE   H5Y15177   1.852   1.423   9.613  0.6713  1.1000 -0.2847
  139SAPE   C3615178   1.742   1.447   9.426 -0.4628 -0.1153 -0.4447
  139SAPE   H6X15179   1.829   1.478   9.363 -0.3519 -0.9293 -0.7066
  139SAPE   H6Y15180   1.651   1.500   9.392 -1.7749 -1.1530  1.3075
  139SAPE   C3715181   1.728   1.295   9.419  0.7738 -0.2617 -0.1014
  139SAPE   H7X15182   1.640   1.254   9.472 -0.9558  3.1568 -0.0329
  139SAPE   H7Y15183   1.823   1.262   9.467  1.8590  3.3964  0.5623
  139SAPE   C3815184   1.713   1.247   9.274  0.1349  0.7393 -0.2402
  139SAPE   H8X15185   1.622   1.297   9.234 -0.1278  1.6466  1.4156
  139SAPE   H8Y15186   1.687   1.139   9.276  1.1647  0.3973 -2.2256
  139SAPE   C3915187   1.829   1.278   9.182 -0.3677  0.2605 -0.7423
  139SAPE   H9X15188   1.914   1.217   9.221 -1.3987 -0.1650  0.9610
  139SAPE   H9Y15189   1.862   1.384   9.193  0.2281  0.0005  0.0829
  139SAPE  C31015190   1.789   1.253   9.041  0.5342 -0.2091  0.4290
  139SAPE  H10X15191   1.684   1.288   9.036 -0.0895 -1.8895  1.1014
  139SAPE  H10Y15192   1.772   1.144   9.030  1.8258 -0.4145  0.3280
  139SAPE  C31115193   1.882   1.302   8.933 -0.0123 -0.3399 -0.9077
  139SAPE  H11X15194   1.968   1.232   8.944  0.3820  0.5499  4.4342
  139SAPE  H11Y15195   1.926   1.402   8.953  0.0344 -0.8169  1.6524
  139SAPE  C31215196   1.815   1.281   8.790  0.4732  0.3181 -0.1795
  139SAPE  H12X15197   1.750   1.365   8.757  0.2433  0.1806 -0.0830
  139SAPE  H12Y15198   1.746   1.195   8.803  0.6435  0.1229 -0.5611
  139SAPE  C31315199   1.914   1.239   8.680 -0.8023 -0.3960  0.0486
  139SAPE  H13X15200   1.871   1.211   8.581  1.6477 -0.4615 -1.0916
  139SAPE  H13Y15201   1.977   1.157   8.720 -0.5442 -0.0883  0.2717
  139SAPE  C31415202   2.010   1.358   8.648  0.0828 -0.0220  0.4761
  139SAPE  H14X15203   2.048   1.399   8.744 -0.2851 -0.7293  0.9228
  139SAPE  H14Y15204   1.950   1.440   8.601 -0.3266 -0.5743  0.0241
  139SAPE  C31515205   2.120   1.310   8.552 -0.2643  0.8227  0.2235
  139SAPE  H15X15206   2.069   1.262   8.466 -1.3268 -1.6718  2.1367
  139SAPE  H15Y15207   2.197   1.249   8.604 -0.5760 -0.4636 -0.7734
  139SAPE  C31615208   2.200   1.432   8.496 -0.0272  0.2061 -0.1678
  139SAPE  H16X15209   2.133   1.493   8.432 -0.9352 -1.8418 -1.2944
  139SAPE  H16Y15210   2.238   1.495   8.579 -1.2447  0.0487  0.5323
  139SAPE  C31715211   2.315   1.387   8.413  0.2590  0.6713 -0.4439
  139SAPE  H17X15212   2.268   1.305   8.356 -1.5249 -0.7283  2.7677
  139SAPE  H17Y15213   2.398   1.346   8.475 -1.2481  0.7855  1.7785
  139SAPE  C31815214   2.366   1.485   8.313  0.1929  0.2018  0.0629
  139SAPE  H18X15215   2.472   1.464   8.285  0.2561  0.4928  0.0845
  139SAPE  H18Y15216   2.377   1.587   8.356 -0.3623 -0.4888  1.9458
  139SAPE  H18Z15217   2.303   1.480   8.222 -1.3778  2.4080  0.9523
  140SAPE     N15218   4.172   5.588  10.442 -0.4257 -0.2605  0.1411
  140SAPE   HN115219   4.125   5.607  10.533 -0.3873 -2.1519  0.6007
  140SAPE   HN215220   4.248   5.517  10.443 -0.0103  0.1166  2.6284
  140SAPE   HN315221   4.216   5.678  10.416 -0.0238 -0.9997 -1.8502
  140SAPE   C1215222   4.073   5.546  10.341 -0.2331  0.1910  0.3557
  140SAPE  H12A15223   4.130   5.556  10.246 -1.1379  0.9307 -0.1243
  140SAPE  H12B15224   3.978   5.602  10.340 -0.1020  0.4320 -1.1380
  140SAPE   C1115225   4.045   5.397  10.356  0.7156  0.8259 -0.8519
  140SAPE  H11A15226   3.952   5.382  10.297 -1.2967  2.2425  1.7298
  140SAPE  H11B15227   4.016   5.369  10.460  0.9718  1.2593 -0.6582
  140SAPE     P15228   4.158   5.243  10.176  0.4293 -0.3259 -0.3144
  140SAPE   O1315229   4.217   5.345  10.084 -0.6368 -0.2387  0.0587
  140SAPE   O1415230   4.224   5.115  10.187 -0.1495  0.6012 -0.3904
  140SAPE   O1215231   4.155   5.310  10.315  0.2069 -0.0554 -1.0078
  140SAPE   O1115232   4.011   5.208  10.130  0.8545 -0.0164  0.4082
  140SAPE    C115233   3.934   5.112  10.204 -0.1311 -0.0693  0.1011
  140SAPE    HA15234   3.987   5.020  10.235 -0.4229 -0.1442  0.3849
  140SAPE    HB15235   3.904   5.164  10.298  2.0174  0.0393  0.7639
  140SAPE    C215236   3.816   5.054  10.129  0.1318  0.2266  0.3337
  140SAPE    HS15237   3.809   4.947  10.158 -1.3055 -0.5231 -2.4775
  140SAPE   O2115238   3.851   5.046   9.990 -0.0177 -0.7503 -0.0747
  140SAPE   C2115239   3.939   4.956   9.956 -0.2440  1.3297  0.4736
  140SAPE   O2215240   3.952   4.856  10.022 -0.0655  0.1333  0.1576
  140SAPE   C2215241   4.010   4.982   9.829 -0.1480 -0.3672  0.2566
  140SAPE   H2R15242   4.063   5.077   9.848 -0.5978 -0.2902  1.2166
  140SAPE   H2S15243   4.082   4.901   9.807 -0.8992 -0.4633 -2.1609
  140SAPE    C315244   3.677   5.113  10.152 -0.2882 -0.2357  0.2844
  140SAPE    HX15245   3.682   5.219  10.120 -0.7586  0.0622  1.1381
  140SAPE    HY15246   3.650   5.121  10.260  1.7774  2.7999  0.7121
  140SAPE   O3115247   3.584   5.049  10.068  0.2448 -0.0799 -0.0393
  140SAPE   C3115248   3.549   4.931  10.125 -0.5325 -0.9495 -0.9159
  140SAPE   O3215249   3.583   4.891  10.231 -0.4745  0.5431  0.2512
  140SAPE   C3215250   3.464   4.851  10.021 -0.5004  0.5361 -1.0213
  140SAPE   H2X15251   3.525   4.840   9.929 -2.2072 -0.1992 -2.1002
  140SAPE   H2Y15252   3.374   4.911   9.996 -0.5242 -0.4065 -3.4769
  140SAPE   C2315253   3.906   5.007   9.716 -0.1932 -0.2614 -0.7443
  140SAPE   H3R15254   3.835   5.085   9.750 -0.1422 -0.2037 -0.7681
  140SAPE   H3S15255   3.837   4.924   9.692  0.5220 -0.9446 -0.4565
  140SAPE   C2415256   3.981   5.041   9.584  0.3731  0.5879  0.0272
  140SAPE   H4R15257   4.055   4.960   9.565  0.6266  0.7257  0.4200
  140SAPE   H4S15258   4.044   5.130   9.604  0.2974  0.6637 -0.0752
  140SAPE   C2515259   3.898   5.066   9.454  0.0805 -0.3394 -0.4412
  140SAPE   H5R15260   3.796   5.104   9.471  0.5707  0.8678 -0.0673
  140SAPE   C2615261   3.948   5.056   9.330  0.2243 -0.1015  0.0902
  140SAPE   H6R15262   3.895   5.099   9.244  1.2899  0.1232 -0.4775
  140SAPE   C2715263   4.090   5.024   9.295  0.3214  0.2261 -0.0874
  140SAPE   H7R15264   4.151   5.042   9.385  1.5618 -1.9974 -0.4134
  140SAPE   H7S15265   4.132   5.099   9.225  2.1111 -1.8070 -1.3338
  140SAPE   C2815266   4.097   4.877   9.258 -0.3432  0.1796  0.2672
  140SAPE   H8R15267   4.067   4.808   9.339 -3.7335  1.4501  0.2118
  140SAPE   C2915268   4.131   4.827   9.130 -0.2049  0.5836 -0.4337
  140SAPE   H9R15269   4.156   4.720   9.122  0.0177  0.6452 -0.5703
  140SAPE  C21015270   4.160   4.904   9.009 -0.0660  0.1707 -0.3872
  140SAPE  H10R15271   4.263   4.944   9.004  0.3076 -0.9159 -2.0717
  140SAPE  H10S15272   4.104   5.000   9.012  0.7334  0.7633 -2.6717
  140SAPE  C21115273   4.116   4.823   8.884 -0.5484 -0.4265  0.2050
  140SAPE  H11R15274   4.033   4.752   8.889  0.6256 -1.7697  1.6236
  140SAPE  C21215275   4.175   4.841   8.756  0.2732  0.1209 -0.5456
  140SAPE  H12R15276   4.131   4.791   8.669 -0.2128  1.3972 -1.0524
  140SAPE  C21315277   4.308   4.907   8.730  0.0815  0.2592  0.6724
  140SAPE  H13R15278   4.353   4.939   8.827 -1.6344  1.4657  1.1079
  140SAPE  H13S15279   4.290   5.003   8.678 -0.1067 -0.3390 -0.3893
  140SAPE  C21415280   4.399   4.809   8.661  0.4581 -0.2662  0.5204
  140SAPE  H14R15281   4.413   4.720   8.724 -0.7999  0.5487  2.0463
  140SAPE  C21515282   4.472   4.815   8.546  0.0561  0.3408 -0.4854
  140SAPE  H15R15283   4.523   4.724   8.510  1.3740  1.2290 -0.9670
  140SAPE  C21615284   4.494   4.926   8.451 -0.9548  0.0855  0.2222
  140SAPE  H16R15285   4.574   4.990   8.493  0.7047 -0.9451 -1.2771
  140SAPE  H16S15286   4.408   4.996   8.441  0.1749  1.5003  0.0332
  140SAPE  C21715287   4.543   4.869   8.316  0.2902  0.1012 -0.7138
  140SAPE  H17R15288   4.472   4.791   8.279 -0.1381 -0.2856  0.8645
  140SAPE  H17S15289   4.630   4.807   8.345  0.3144  0.4651  0.0144
  140SAPE  C21815290   4.590   4.976   8.211  0.4086 -0.4301 -0.4237
  140SAPE  H18R15291   4.632   5.061   8.269  1.1268 -1.1458  0.1409
  140SAPE  H18S15292   4.504   5.014   8.152 -0.1845 -0.6558  0.2804
  140SAPE  C21915293   4.702   4.922   8.117 -0.5168  1.2978 -0.6524
  140SAPE  H19R15294   4.652   4.835   8.069  0.3158  0.1920  0.4057
  140SAPE  H19S15295   4.776   4.874   8.185 -0.4236  1.6404 -0.5103
  140SAPE  C22015296   4.780   5.015   8.024 -0.1118  0.5523 -0.1708
  140SAPE  H20R15297   4.702   5.052   7.955 -0.6065  2.0954  1.1449
  140SAPE  H20S15298   4.849   4.948   7.968 -0.4232  1.6345 -1.9361
  140SAPE  H20T15299   4.835   5.099   8.073  1.1833 -0.1755 -0.3167
  140SAPE   C3315300   3.422   4.712  10.089  0.0528  0.3273 -0.6197
  140SAPE   H3X15301   3.374   4.712  10.189 -0.0299 -0.6830 -0.6433
  140SAPE   H3Y15302   3.511   4.646  10.086 -1.3010 -1.6795  0.5392
  140SAPE   C3415303   3.324   4.633   9.986  0.6139  0.0304  0.9677
  140SAPE   H4X15304   3.223   4.678   9.982  0.1065 -1.1552 -1.8779
  140SAPE   H4Y15305   3.298   4.537  10.037 -0.5757 -1.5875 -2.4120
  140SAPE   C3515306   3.379   4.596   9.846 -0.2546 -0.2046 -0.1599
  140SAPE   H5X15307   3.466   4.527   9.855  0.5918  0.8637  0.0653
  140SAPE   H5Y15308   3.423   4.679   9.786 -0.8896 -0.5293 -1.0819
  140SAPE   C3615309   3.267   4.527   9.768  0.0559 -0.6890  0.8200
  140SAPE   H6X15310   3.194   4.607   9.746 -1.4671 -2.4644 -0.9607
  140SAPE   H6Y15311   3.220   4.447   9.829  0.4986 -1.1452  0.5768
  140SAPE   C3715312   3.315   4.461   9.632  0.2097 -0.1654  0.0492
  140SAPE   H7X15313   3.242   4.384   9.598  0.8372 -0.7264 -0.0326
  140SAPE   H7Y15314   3.409   4.403   9.644 -0.3384 -1.5520 -1.8546
  140SAPE   C3815315   3.325   4.551   9.511  0.8531  0.2826  0.9971
  140SAPE   H8X15316   3.406   4.623   9.531  0.9575  0.3688  0.3071
  140SAPE   H8Y15317   3.232   4.611   9.501  2.5399  3.2367  1.8830
  140SAPE   C3915318   3.351   4.475   9.378 -0.0655  0.4837 -0.0041
  140SAPE   H9X15319   3.435   4.406   9.402 -0.2183  0.0870 -0.5939
  140SAPE   H9Y15320   3.396   4.548   9.308  2.9896 -1.2466 -0.0185
  140SAPE  C31015321   3.231   4.400   9.313  0.6888 -0.0404  0.0354
  140SAPE  H10X15322   3.141   4.461   9.292 -0.2917 -0.5549  2.4595
  140SAPE  H10Y15323   3.186   4.324   9.380 -2.0123 -0.2096 -1.8402
  140SAPE  C31115324   3.257   4.335   9.176  0.0340 -0.4418 -0.4270
  140SAPE  H11X15325   3.157   4.295   9.149 -1.1497  1.1115  1.3208
  140SAPE  H11Y15326   3.342   4.264   9.177  0.6650  0.2928  0.7337
  140SAPE  C31215327   3.286   4.446   9.065 -0.5279  0.2706  0.5322
  140SAPE  H12X15328   3.384   4.493   9.086 -1.1658  1.9814 -0.1007
  140SAPE  H12Y15329   3.215   4.532   9.064 -0.3968  0.4744 -2.8971
  140SAPE  C31315330   3.278   4.391   8.917  0.8495 -0.0059  0.0030
  140SAPE  H13X15331   3.181   4.339   8.899 -0.3044  1.5956  1.2377
  140SAPE  H13Y15332   3.353   4.313   8.894  1.3570  0.1995  0.9107
  140SAPE  C31415333   3.312   4.502   8.822 -0.1055  0.1191  0.1020
  140SAPE  H14X15334   3.403   4.556   8.853  0.1666 -0.2575 -0.0335
  140SAPE  H14Y15335   3.231   4.579   8.819 -0.2594 -0.0551 -1.9885
  140SAPE  C31515336   3.342   4.442   8.679  0.3512  0.1288  0.0192
  140SAPE  H15X15337   3.259   4.380   8.637  1.4847  0.1315 -2.4049
  140SAPE  H15Y15338   3.422   4.368   8.695 -0.6524 -0.7520  1.1795
  140SAPE  C31615339   3.384   4.551   8.576 -0.8960  0.2284 -0.1252
  140SAPE  H16X15340   3.483   4.592   8.607 -1.7058  2.3513 -0.1314
  140SAPE  H16Y15341   3.313   4.637   8.585 -1.4478 -0.4124  2.9459
  140SAPE  C31715342   3.382   4.495   8.436  0.0268 -0.4529 -0.0125
  140SAPE  H17X15343   3.279   4.462   8.411  0.3633 -2.7667  1.4124
  140SAPE  H17Y15344   3.443   4.404   8.449  0.6159  0.0412  0.7506
  140SAPE  C31815345   3.428   4.584   8.329 -0.0787 -0.0939 -0.4698
  140SAPE  H18X15346   3.357   4.668   8.310 -1.4455 -1.0405  0.2799
  140SAPE  H18Y15347   3.430   4.524   8.235  1.3580 -1.0659  0.1508
  140SAPE  H18Z15348   3.530   4.622   8.348 -0.9747  2.1994  0.1394
  141SAPE     N15349   5.242   1.847  10.980 -0.0921  0.1270 -0.5858
  141SAPE   HN115350   5.305   1.861  10.899 -0.3286  0.0162 -0.7904
  141SAPE   HN215351   5.289   1.793  11.055 -0.7950  0.0321 -0.2080
  141SAPE   HN315352   5.166   1.785  10.944  0.2789  0.0546 -1.2626
  141SAPE   C1215353   5.202   1.964  11.056  0.4751  0.3021 -0.6431
  141SAPE  H12A15354   5.266   1.978  11.145  0.8828 -2.0716 -0.5106
  141SAPE  H12B15355   5.099   1.947  11.095 -0.1975  1.6162 -1.7108
  141SAPE   C1115356   5.190   2.089  10.964 -1.0810  0.6306 -0.1844
  141SAPE  H11A15357   5.177   2.179  11.027  0.7850  1.0622 -0.3574
  141SAPE  H11B15358   5.106   2.078  10.893  0.2786 -1.3355 -1.6203
  141SAPE     P15359   5.322   2.224  10.789  0.4691 -0.3611  0.4879
  141SAPE   O1315360   5.349   2.355  10.853 -0.4043  0.1300 -0.4502
  141SAPE   O1415361   5.422   2.177  10.687  0.0603  0.4176 -0.0188
  141SAPE   O1215362   5.312   2.100  10.893  0.0926 -0.4062  0.0804
  141SAPE   O1115363   5.181   2.216  10.719  0.2586 -0.2649  0.0006
  141SAPE    C115364   5.129   2.095  10.663  0.6215  0.0112  0.4071
  141SAPE    HA15365   5.183   2.007  10.703  0.8484 -1.4795 -2.8669
  141SAPE    HB15366   5.025   2.069  10.692  0.5858 -0.9381 -0.4895
  141SAPE    C215367   5.141   2.093  10.500 -0.1074 -0.6448 -0.3488
  141SAPE    HS15368   5.244   2.133  10.487  0.1518 -1.6461 -1.5814
  141SAPE   O2115369   5.057   2.190  10.450  0.0448  0.2487 -0.4177
  141SAPE   C2115370   4.925   2.165  10.439 -0.0753 -0.3294  0.1112
  141SAPE   O2215371   4.866   2.068  10.478  0.1443 -0.2213 -0.2968
  141SAPE   C2215372   4.853   2.284  10.373  0.0678 -0.0160  0.1109
  141SAPE   H2R15373   4.797   2.336  10.453  0.6848  0.2675  0.3713
  141SAPE   H2S15374   4.933   2.353  10.337  0.2298  0.1697  0.8051
  141SAPE    C315375   5.142   1.949  10.442 -0.2170  0.4545 -0.1604
  141SAPE    HX15376   5.035   1.921  10.428 -0.4167  1.1936 -0.1729
  141SAPE    HY15377   5.189   1.876  10.511  0.7629  0.8061 -0.4461
  141SAPE   O3115378   5.211   1.938  10.315  0.2044 -0.6498 -0.0555
  141SAPE   C3115379   5.339   1.961  10.300 -0.8242 -0.5026 -0.4622
  141SAPE   O3215380   5.413   1.977  10.396  0.1033 -0.0105  0.2342
  141SAPE   C3215381   5.381   1.953  10.155 -0.1304  0.2851  0.2294
  141SAPE   H2X15382   5.368   1.846  10.129 -0.4166  0.5686 -0.8190
  141SAPE   H2Y15383   5.491   1.973  10.153  0.0005  0.1481 -4.2233
  141SAPE   C2315384   4.751   2.258  10.255 -0.6123 -0.3583 -1.0016
  141SAPE   H3R15385   4.719   2.361  10.228  0.2632  0.2316  0.1238
  141SAPE   H3S15386   4.660   2.204  10.289 -1.2765 -1.3063 -3.9644
  141SAPE   C2415387   4.819   2.183  10.138  0.6079  0.3717 -0.3171
  141SAPE   H4R15388   4.746   2.129  10.074 -0.2326  0.7475  0.2893
  141SAPE   H4S15389   4.879   2.101  10.181  0.6425 -0.0451 -1.1480
  141SAPE   C2515390   4.907   2.279  10.058  0.3554 -0.0147 -0.5527
  141SAPE   H5R15391   4.980   2.341  10.114 -0.8229 -2.1017  3.6977
  141SAPE   C2615392   4.905   2.284   9.925  0.3477 -0.4086  0.0589
  141SAPE   H6R15393   4.960   2.364   9.873  0.0497 -0.5749 -0.5228
  141SAPE   C2715394   4.809   2.215   9.824 -0.4600 -0.1524  0.1641
  141SAPE   H7R15395   4.724   2.166   9.875 -0.6927  0.0110 -0.0677
  141SAPE   H7S15396   4.857   2.132   9.769  0.1928  1.0059 -1.0969
  141SAPE   C2815397   4.753   2.312   9.727  0.6583  0.4107  0.1206
  141SAPE   H8R15398   4.671   2.375   9.766 -0.1426 -0.5228 -0.0251
  141SAPE   C2915399   4.787   2.319   9.599 -0.0455  0.0574 -0.3780
  141SAPE   H9R15400   4.744   2.396   9.534  2.4369  2.5589  0.6951
  141SAPE  C21015401   4.895   2.239   9.527 -0.6026 -0.7110 -0.2710
  141SAPE  H10R15402   4.837   2.166   9.467 -1.6657  0.4711 -0.7293
  141SAPE  H10S15403   4.966   2.192   9.599 -1.8211 -2.3309 -0.0767
  141SAPE  C21115404   4.976   2.313   9.427 -0.3447  0.6174  0.6565
  141SAPE  H11R15405   5.072   2.342   9.472  1.0304 -3.8146  1.1027
  141SAPE  C21215406   4.944   2.337   9.299 -0.0055  0.9852 -0.4471
  141SAPE  H12R15407   5.010   2.406   9.244  2.3900 -0.3131  0.6068
  141SAPE  C21315408   4.828   2.286   9.213  0.4804 -0.3800  0.2884
  141SAPE  H13R15409   4.785   2.198   9.266 -2.1388  0.7714  0.2265
  141SAPE  H13S15410   4.869   2.241   9.120  0.8349 -0.2460  0.3781
  141SAPE  C21415411   4.723   2.389   9.198  0.1291 -0.0140 -0.0841
  141SAPE  H14R15412   4.624   2.382   9.246 -0.0012  2.1414  0.0575
  141SAPE  C21515413   4.733   2.488   9.110 -0.1868  0.2594  0.1139
  141SAPE  H15R15414   4.648   2.551   9.081  0.9619  1.3126 -1.0733
  141SAPE  C21615415   4.855   2.517   9.020  0.2004  1.1917 -0.1017
  141SAPE  H16R15416   4.926   2.432   9.028 -0.8053  0.4568  1.9499
  141SAPE  H16S15417   4.904   2.612   9.048 -1.6614  2.2765 -0.3230
  141SAPE  C21715418   4.822   2.534   8.872 -0.1743  0.1164 -0.0405
  141SAPE  H17R15419   4.759   2.456   8.825  2.1600 -0.0944 -3.0810
  141SAPE  H17S15420   4.916   2.531   8.813  1.1377  0.6604  1.9095
  141SAPE  C21815421   4.757   2.669   8.847 -0.3582  0.0765 -0.1544
  141SAPE  H18R15422   4.841   2.741   8.859 -1.3722  1.1276  0.9649
  141SAPE  H18S15423   4.669   2.700   8.908 -0.1427  0.4027 -0.0036
  141SAPE  C21915424   4.712   2.699   8.697 -0.4911 -0.2961 -0.1927
  141SAPE  H19R15425   4.605   2.671   8.686 -0.3025 -2.0388  1.8793
  141SAPE  H19S15426   4.777   2.626   8.643  1.2231 -0.0131  1.4144
  141SAPE  C22015427   4.732   2.838   8.652 -0.5443  0.4287 -0.0608
  141SAPE  H20R15428   4.647   2.901   8.685 -0.5117  0.7084 -0.5121
  141SAPE  H20S15429   4.730   2.853   8.542  0.2471  3.1973  0.2285
  141SAPE  H20T15430   4.832   2.881   8.676  0.6484  0.2168 -4.0304
  141SAPE   C3315431   5.299   2.040  10.059 -0.0734 -0.2797 -1.5554
  141SAPE   H3X15432   5.311   2.148  10.082  0.9670 -1.0283  2.0392
  141SAPE   H3Y15433   5.192   2.022  10.086  0.6981 -0.0509  2.2196
  141SAPE   C3415434   5.317   2.009   9.909  0.3829 -0.0811  0.4875
  141SAPE   H4X15435   5.263   1.917   9.878 -0.1544  1.1962 -2.7537
  141SAPE   H4Y15436   5.424   1.990   9.885  0.1016  0.5512 -1.3689
  141SAPE   C3515437   5.280   2.114   9.814  0.8072 -0.8187 -0.1536
  141SAPE   H5X15438   5.336   2.210   9.813  0.1775 -0.4470 -0.5191
  141SAPE   H5Y15439   5.171   2.134   9.825  0.5320 -1.7772 -0.9918
  141SAPE   C3615440   5.301   2.066   9.668 -0.5839  0.1946  0.0928
  141SAPE   H6X15441   5.234   1.982   9.639  1.6521 -0.9460 -2.1169
  141SAPE   H6Y15442   5.399   2.016   9.672 -0.7187 -0.0470  0.4238
  141SAPE   C3715443   5.320   2.178   9.565 -0.6161 -0.1218 -0.5175
  141SAPE   H7X15444   5.413   2.234   9.585 -1.1880  0.7218 -0.1503
  141SAPE   H7Y15445   5.238   2.252   9.580 -0.3638  0.2056 -0.7428
  141SAPE   C3815446   5.325   2.148   9.410  0.1512 -0.4777  0.2541
  141SAPE   H8X15447   5.229   2.094   9.398  0.9874 -2.4702  1.9577
  141SAPE   H8Y15448   5.410   2.083   9.380  0.6636  1.5021 -3.0907
  141SAPE   C3915449   5.317   2.276   9.330  0.3443  0.3773  0.0507
  141SAPE   H9X15450   5.403   2.337   9.363  0.1081  0.5842  0.2805
  141SAPE   H9Y15451   5.225   2.337   9.341  1.2922  1.7659  0.5131
  141SAPE  C31015452   5.340   2.268   9.175 -0.0277  0.9255 -0.2188
  141SAPE  H10X15453   5.265   2.198   9.133  1.7294 -1.0139 -0.3013
  141SAPE  H10Y15454   5.435   2.215   9.150 -1.4329 -2.9013  1.7261
  141SAPE  C31115455   5.325   2.399   9.103  0.4494 -0.1830 -0.1892
  141SAPE  H11X15456   5.411   2.463   9.135 -0.7852 -0.2054  3.6571
  141SAPE  H11Y15457   5.234   2.447   9.145 -0.8405  0.0295 -2.9933
  141SAPE  C31215458   5.327   2.392   8.947 -0.0045  0.6993 -0.3212
  141SAPE  H12X15459   5.428   2.356   8.919  0.1718  1.6114 -0.9011
  141SAPE  H12Y15460   5.311   2.495   8.909 -0.4001  0.2651 -1.3681
  141SAPE  C31315461   5.216   2.303   8.885  0.9693  0.0546 -0.6476
  141SAPE  H13X15462   5.124   2.311   8.947  1.2364  0.4061 -0.2914
  141SAPE  H13Y15463   5.251   2.198   8.877  1.3734  0.3354 -3.8295
  141SAPE  C31415464   5.175   2.354   8.750 -0.2067 -0.1017 -0.1235
  141SAPE  H14X15465   5.151   2.462   8.752  0.3992  0.0608 -1.0618
  141SAPE  H14Y15466   5.095   2.290   8.707 -2.1055  1.5576  0.8003
  141SAPE  C31515467   5.287   2.350   8.640 -0.4942 -0.6953  0.5210
  141SAPE  H15X15468   5.347   2.436   8.675 -0.6786 -1.0958  1.8474
  141SAPE  H15Y15469   5.249   2.373   8.538  1.0552  1.6459  0.3944
  141SAPE  C31615470   5.370   2.226   8.645  0.0665  0.5429 -0.3734
  141SAPE  H16X15471   5.291   2.148   8.649  0.3714  0.2717  1.9126
  141SAPE  H16Y15472   5.427   2.222   8.741 -1.5559  2.8367  0.7924
  141SAPE  C31715473   5.462   2.212   8.522  0.9489  0.2751  0.0629
  141SAPE  H17X15474   5.522   2.306   8.519  0.5558  0.5202 -0.2230
  141SAPE  H17Y15475   5.405   2.218   8.427  2.0630 -0.6800 -0.6911
  141SAPE  C31815476   5.545   2.089   8.526 -0.2280 -0.1837  0.6647
  141SAPE  H18X15477   5.613   2.105   8.440 -1.4038 -0.6742 -0.3958
  141SAPE  H18Y15478   5.480   2.002   8.503 -0.5507  0.5122 -1.2780
  141SAPE  H18Z15479   5.594   2.078   8.625  0.6002  1.4235  0.4719
  142SAPE     N15480   6.041   3.195  10.842  0.1005  0.4622  0.1927
  142SAPE   HN115481   6.047   3.276  10.907  2.4183 -0.8058  1.7128
  142SAPE   HN215482   6.054   3.099  10.880  1.8479  1.8402  3.4940
  142SAPE   HN315483   6.119   3.208  10.775 -1.6340  0.0942 -2.0078
  142SAPE   C1215484   5.917   3.210  10.751  0.1220 -0.1102 -0.1974
  142SAPE  H12A15485   5.907   3.319  10.737  0.6461 -0.3412 -3.0623
  142SAPE  H12B15486   5.833   3.169  10.811  0.9190 -0.4603  0.7048
  142SAPE   C1115487   5.930   3.138  10.613 -0.3774 -0.5013  0.2146
  142SAPE  H11A15488   5.845   3.165  10.547 -0.9050 -0.3656  0.9301
  142SAPE  H11B15489   5.922   3.029  10.633 -1.1064 -0.7557 -1.3135
  142SAPE     P15490   6.087   3.186  10.419  0.2890  0.0632 -0.2185
  142SAPE   O1315491   6.227   3.150  10.390 -0.2769  0.2724  0.0106
  142SAPE   O1415492   5.985   3.104  10.349  0.2030 -0.1701 -0.3453
  142SAPE   O1215493   6.062   3.184  10.572  0.1118  0.2752 -0.2583
  142SAPE   O1115494   6.069   3.341  10.393 -0.4431 -0.1922  0.6717
  142SAPE    C115495   5.996   3.395  10.282  0.1587  0.5114  0.0591
  142SAPE    HA15496   5.906   3.337  10.255 -0.9351  2.7257 -1.2447
  142SAPE    HB15497   5.961   3.495  10.315  1.2625  1.0653 -0.3752
  142SAPE    C215498   6.080   3.422  10.164  0.4516 -0.1043 -0.9494
  142SAPE    HS15499   6.016   3.461  10.082 -0.3578 -1.0007 -0.7620
  142SAPE   O2115500   6.141   3.308  10.115 -0.7292  0.5493  0.1362
  142SAPE   C2115501   6.061   3.218  10.055  0.5361  0.0422 -0.0877
  142SAPE   O2215502   5.946   3.234  10.020  0.0925 -0.1630 -0.5526
  142SAPE   C2215503   6.148   3.100  10.013  0.3451 -0.3298 -0.1721
  142SAPE   H2R15504   6.226   3.139   9.945 -1.7014  0.2135 -2.3365
  142SAPE   H2S15505   6.208   3.055  10.095 -0.5493 -1.1014  0.0801
  142SAPE    C315506   6.188   3.530  10.191  0.5359  0.3186 -0.6748
  142SAPE    HX15507   6.262   3.477  10.255  0.2653 -1.9225 -2.0850
  142SAPE    HY15508   6.132   3.611  10.242 -1.8537 -0.5332 -1.7843
  142SAPE   O3115509   6.244   3.588  10.075 -0.1860 -0.1795  0.3691
  142SAPE   C3115510   6.378   3.569  10.053 -0.1682 -0.2884  0.2571
  142SAPE   O3215511   6.461   3.516  10.129 -0.1783  0.3468  0.2167
  142SAPE   C3215512   6.413   3.608   9.909  0.2567  0.0685  0.7807
  142SAPE   H2X15513   6.492   3.687   9.914  0.4788 -0.1099  0.1524
  142SAPE   H2Y15514   6.327   3.650   9.854  0.6696 -1.1296 -0.8417
  142SAPE   C2315515   6.057   2.996   9.946 -0.3431  0.2747 -0.3608
  142SAPE   H3R15516   6.017   3.052   9.860 -2.8303 -0.1203  0.4522
  142SAPE   H3S15517   5.974   2.953  10.006  0.8534  0.2844  1.3744
  142SAPE   C2415518   6.142   2.879   9.879  0.2306 -0.8579  0.2576
  142SAPE   H4R15519   6.168   2.802   9.955 -1.8393 -0.0564  1.8690
  142SAPE   H4S15520   6.239   2.929   9.856  0.7460 -0.2080  3.4463
  142SAPE   C2515521   6.076   2.815   9.758 -0.4167 -0.0749  0.0406
  142SAPE   H5R15522   5.968   2.798   9.768 -0.5836  0.0906 -1.3574
  142SAPE   C2615523   6.135   2.779   9.644 -0.7848  0.0376  0.6124
  142SAPE   H6R15524   6.079   2.729   9.563  1.2336 -0.1758 -0.7133
  142SAPE   C2715525   6.278   2.811   9.618  0.6802  0.3928 -0.7795
  142SAPE   H7R15526   6.336   2.744   9.685  0.0788  1.5341  0.9640
  142SAPE   H7S15527   6.299   2.908   9.668  2.7113 -1.3166  1.9340
  142SAPE   C2815528   6.328   2.799   9.471 -0.1293 -0.3204 -0.1690
  142SAPE   H8R15529   6.280   2.731   9.399  0.8768  0.4473 -1.6145
  142SAPE   C2915530   6.436   2.874   9.422 -0.0077 -0.0999 -0.2003
  142SAPE   H9R15531   6.467   2.869   9.317 -0.1385  0.0039 -0.2440
  142SAPE  C21015532   6.522   2.969   9.502 -0.0660  0.5344  0.5982
  142SAPE  H10R15533   6.630   2.956   9.481 -0.0608  0.2972  0.7647
  142SAPE  H10S15534   6.523   2.923   9.603  3.0079 -0.8894  0.0333
  142SAPE  C21115535   6.489   3.117   9.501 -0.3507 -0.8360 -0.7020
  142SAPE  H11R15536   6.423   3.147   9.584  0.9553 -0.2251  0.1508
  142SAPE  C21215537   6.520   3.206   9.403  0.1200  0.0451 -0.2370
  142SAPE  H12R15538   6.495   3.310   9.429 -0.5127 -0.7691  2.9247
  142SAPE  C21315539   6.604   3.181   9.273 -0.0432 -0.0264 -0.4532
  142SAPE  H13R15540   6.612   3.070   9.272  1.5752  0.0569  0.0680
  142SAPE  H13S15541   6.707   3.220   9.288  0.2097 -0.5299 -0.8537
  142SAPE  C21415542   6.536   3.220   9.140  0.6722 -0.7384  0.1938
  142SAPE  H14R15543   6.433   3.250   9.164  1.1049 -0.2274  1.4827
  142SAPE  C21515544   6.594   3.238   9.019  0.0139  0.9721 -0.5065
  142SAPE  H15R15545   6.535   3.272   8.932  0.1589  4.2039  0.5095
  142SAPE  C21615546   6.736   3.217   8.983  0.5118  0.5743 -0.4434
  142SAPE  H16R15547   6.801   3.271   9.056 -1.1190  3.4605 -0.9580
  142SAPE  H16S15548   6.743   3.263   8.882 -1.6699 -1.3377 -1.5342
  142SAPE  C21715549   6.757   3.076   8.963  0.0381  0.0570 -1.0140
  142SAPE  H17R15550   6.694   3.041   8.879 -1.8557  0.9751 -0.0436
  142SAPE  H17S15551   6.720   3.007   9.041  0.2188  1.5861  0.4911
  142SAPE  C21815552   6.914   3.061   8.951  0.4129  0.1680  0.4216
  142SAPE  H18R15553   6.954   3.092   9.050 -0.6376 -1.9755  1.5908
  142SAPE  H18S15554   6.931   3.136   8.870 -3.3531 -0.0406 -0.7576
  142SAPE  C21915555   6.975   2.929   8.896 -0.7293  0.6006 -0.2980
  142SAPE  H19R15556   7.057   2.958   8.828 -1.1838  2.1203 -0.2431
  142SAPE  H19S15557   6.890   2.878   8.845  0.7124 -0.8021 -1.3648
  142SAPE  C22015558   7.031   2.848   9.020  0.3806 -0.6673  0.0906
  142SAPE  H20R15559   7.076   2.753   8.983  0.1285 -1.9202  2.7172
  142SAPE  H20S15560   6.947   2.815   9.086 -1.0510  1.2489 -0.6815
  142SAPE  H20T15561   7.110   2.898   9.079  0.1955 -0.2762  0.0083
  142SAPE   C3315562   6.457   3.485   9.826  0.0181  0.6114  0.2708
  142SAPE   H3X15563   6.372   3.415   9.832 -0.6384  1.4519  0.9585
  142SAPE   H3Y15564   6.546   3.433   9.868  1.7184  1.1473 -2.3953
  142SAPE   C3415565   6.490   3.514   9.669  0.9055 -0.9271 -0.6318
  142SAPE   H4X15566   6.389   3.533   9.627 -0.3966  0.5488  2.8059
  142SAPE   H4Y15567   6.531   3.423   9.619  2.0882  0.2458 -1.8750
  142SAPE   C3515568   6.607   3.619   9.664 -0.4818  0.5626  0.1423
  142SAPE   H5X15569   6.691   3.585   9.728 -0.8759  0.6528  0.7136
  142SAPE   H5Y15570   6.587   3.721   9.703 -0.1074  1.1425 -1.1097
  142SAPE   C3615571   6.652   3.653   9.518  0.6197 -0.4822  0.4237
  142SAPE   H6X15572   6.700   3.753   9.520  0.0515 -0.0718 -2.1590
  142SAPE   H6Y15573   6.555   3.674   9.468  0.1396  0.0665  1.5633
  142SAPE   C3715574   6.730   3.550   9.446 -1.0260  0.5449 -0.2203
  142SAPE   H7X15575   6.731   3.454   9.500 -2.6033  0.8287  0.3564
  142SAPE   H7Y15576   6.833   3.584   9.422 -0.4292 -0.8264  0.3057
  142SAPE   C3815577   6.679   3.531   9.304 -0.1251 -0.5739 -0.2601
  142SAPE   H8X15578   6.572   3.502   9.294 -0.8443  2.1329 -1.5612
  142SAPE   H8Y15579   6.744   3.453   9.261 -0.4852 -0.5166 -0.9250
  142SAPE   C3915580   6.701   3.650   9.204  0.5078 -0.8249 -0.8726
  142SAPE   H9X15581   6.802   3.694   9.214 -0.2711  0.4450  3.1122
  142SAPE   H9Y15582   6.635   3.732   9.240 -2.3578 -3.1185 -0.4945
  142SAPE  C31015583   6.669   3.614   9.063  0.2466 -0.1560  0.6084
  142SAPE  H10X15584   6.575   3.557   9.073  0.5527 -1.0405 -1.1745
  142SAPE  H10Y15585   6.752   3.550   9.024  1.3955  0.4262  2.0014
  142SAPE  C31115586   6.644   3.733   8.969  1.1446 -0.2684 -0.0557
  142SAPE  H11X15587   6.719   3.814   8.964 -0.8601  1.5951 -1.7147
  142SAPE  H11Y15588   6.551   3.780   9.007  1.0207  1.2290 -2.0763
  142SAPE  C31215589   6.621   3.700   8.824  0.2358  0.4287 -0.1344
  142SAPE  H12X15590   6.609   3.794   8.767  2.5649  0.6943 -0.2721
  142SAPE  H12Y15591   6.524   3.648   8.809 -0.4300  1.6627 -0.1885
  142SAPE  C31315592   6.734   3.612   8.765 -0.1872  0.2920 -0.6539
  142SAPE  H13X15593   6.717   3.511   8.808  0.1459  1.2004  1.7636
  142SAPE  H13Y15594   6.826   3.666   8.796 -1.0453  1.7701 -0.5923
  142SAPE  C31415595   6.713   3.609   8.614  0.5633 -0.5952  0.6740
  142SAPE  H14X15596   6.728   3.713   8.578 -0.4572 -0.3559  0.9240
  142SAPE  H14Y15597   6.608   3.573   8.607  1.2871 -3.0426  1.4265
  142SAPE  C31515598   6.813   3.511   8.539  0.0154 -0.4312  0.1080
  142SAPE  H15X15599   6.900   3.519   8.608 -0.2600  0.6651  0.3402
  142SAPE  H15Y15600   6.842   3.542   8.437  0.6701  0.9506  0.6846
  142SAPE  C31615601   6.754   3.372   8.531  0.5816 -0.2539 -0.2582
  142SAPE  H16X15602   6.703   3.349   8.627  1.4372  0.8681  0.4876
  142SAPE  H16Y15603   6.836   3.297   8.535 -0.2004 -1.1086  3.3873
  142SAPE  C31715604   6.654   3.344   8.421  0.9706  0.3774 -0.2620
  142SAPE  H17X15605   6.556   3.395   8.431 -0.0046 -1.6156  1.2602
  142SAPE  H17Y15606   6.628   3.237   8.439  1.4923  0.5052  1.4368
  142SAPE  C31815607   6.720   3.350   8.281  0.2436 -0.1640  0.5051
  142SAPE  H18X15608   6.747   3.453   8.248 -0.6831  0.1248  0.6054
  142SAPE  H18Y15609   6.664   3.301   8.198  0.0154 -0.4798  0.8425
  142SAPE  H18Z15610   6.822   3.306   8.278  0.6064  0.6883 -0.1940
  143SAPE     N15611   5.333   4.150  10.531 -0.5479 -0.4672  0.2617
  143SAPE   HN115612   5.331   4.250  10.558 -0.3274 -0.8690  1.8663
  143SAPE   HN215613   5.256   4.123  10.467  1.4225 -2.4222 -1.4649
  143SAPE   HN315614   5.310   4.093  10.615  0.0507 -1.2234 -0.0693
  143SAPE   C1215615   5.464   4.105  10.467  0.5550 -0.0788 -0.3459
  143SAPE  H12A15616   5.442   4.017  10.404 -1.0191  0.1509 -0.1445
  143SAPE  H12B15617   5.541   4.092  10.546  1.1173 -0.0195 -0.8762
  143SAPE   C1115618   5.522   4.216  10.381  0.2562 -0.2323  0.1381
  143SAPE  H11A15619   5.532   4.303  10.449 -1.3583 -0.3247  0.5346
  143SAPE  H11B15620   5.452   4.244  10.299  0.7227  2.3128  0.5413
  143SAPE     P15621   5.779   4.161  10.398  0.2027  0.1302 -0.0813
  143SAPE   O1315622   5.890   4.215  10.317  0.2991 -0.1811 -0.2839
  143SAPE   O1415623   5.770   4.195  10.543 -0.2894  0.0444  0.5119
  143SAPE   O1215624   5.643   4.187  10.317 -0.3241  0.2367 -0.2255
  143SAPE   O1115625   5.774   4.004  10.400  0.0721  0.4054 -0.6995
  143SAPE    C115626   5.761   3.933  10.274 -0.6287  0.2220  0.0031
  143SAPE    HA15627   5.712   3.836  10.297 -3.1113  1.4862  0.4222
  143SAPE    HB15628   5.694   3.989  10.206  0.2136  0.8321 -0.3491
  143SAPE    C215629   5.898   3.919  10.188 -0.7001 -0.3727 -0.1604
  143SAPE    HS15630   5.910   4.004  10.119  2.2061 -1.6058 -1.3235
  143SAPE   O2115631   5.886   3.799  10.115  0.4898 -0.5558 -0.0980
  143SAPE   C2115632   5.784   3.805  10.032 -0.1903  0.3371 -0.3933
  143SAPE   O2215633   5.726   3.905   9.990  0.1979 -0.0373  0.2978
  143SAPE   C2215634   5.748   3.661   9.984 -0.0988  0.2055  0.7160
  143SAPE   H2R15635   5.822   3.600  10.040  2.3900  1.0333 -1.4851
  143SAPE   H2S15636   5.643   3.637  10.011  0.1446 -0.5454  1.0116
  143SAPE    C315637   6.028   3.916  10.266 -0.2742  0.5644 -0.0516
  143SAPE    HX15638   6.023   3.827  10.332  0.7698 -1.6779 -2.7439
  143SAPE    HY15639   6.035   4.008  10.326 -0.1449 -0.3832  1.4264
  143SAPE   O3115640   6.137   3.901  10.169  0.4600 -0.1104 -0.3018
  143SAPE   C3115641   6.224   4.001  10.162 -0.3446 -0.5755  0.0818
  143SAPE   O3215642   6.243   4.076  10.255 -0.1783 -0.5840 -0.0319
  143SAPE   C3215643   6.308   4.013  10.030 -0.1963  0.3854 -0.8008
  143SAPE   H2X15644   6.384   3.932  10.041 -0.2664  0.2480 -1.3415
  143SAPE   H2Y15645   6.354   4.113  10.026 -0.3614  0.6517  1.7896
  143SAPE   C2315646   5.769   3.635   9.828 -0.6192  0.0043 -0.2383
  143SAPE   H3R15647   5.692   3.699   9.780 -0.3029  0.3485 -0.2852
  143SAPE   H3S15648   5.737   3.529   9.816  2.7754 -1.1214 -0.3010
  143SAPE   C2415649   5.906   3.659   9.757  0.0969  0.7548  0.2177
  143SAPE   H4R15650   5.934   3.766   9.752 -1.2912  1.0858 -2.0635
  143SAPE   H4S15651   5.904   3.636   9.648  2.0849  0.7084  0.1477
  143SAPE   C2515652   6.015   3.582   9.814  0.6105  0.0924 -0.0553
  143SAPE   H5R15653   6.049   3.620   9.911  0.2729  0.2099  0.0182
  143SAPE   C2615654   6.085   3.474   9.770 -0.4591  0.0190  0.9304
  143SAPE   H6R15655   6.153   3.436   9.846  2.1138 -0.9544 -1.6852
  143SAPE   C2715656   6.062   3.386   9.651  0.3487 -0.2785 -0.4469
  143SAPE   H7R15657   6.160   3.361   9.608  0.9061 -4.1826  2.5786
  143SAPE   H7S15658   6.016   3.442   9.567  0.4199 -0.9483 -0.9366
  143SAPE   C2815659   5.986   3.262   9.672 -0.3792  0.4454 -0.0002
  143SAPE   H8R15660   5.923   3.268   9.762  2.6317 -0.4986  2.3310
  143SAPE   C2915661   5.989   3.159   9.591 -0.3396  0.3375  0.4916
  143SAPE   H9R15662   5.925   3.073   9.616 -3.2007  1.3172 -2.6841
  143SAPE  C21015663   6.075   3.145   9.461  0.4215 -1.2329  0.3545
  143SAPE  H10R15664   6.123   3.045   9.464 -0.3784 -1.6662  3.8194
  143SAPE  H10S15665   6.162   3.214   9.458 -0.0824 -0.4831  1.9266
  143SAPE  C21115666   6.003   3.192   9.335 -0.3811  0.0864  0.3600
  143SAPE  H11R15667   5.924   3.268   9.344  0.5147  1.2964 -1.5503
  143SAPE  C21215668   6.002   3.131   9.216 -0.7423 -0.1464  0.4803
  143SAPE  H12R15669   5.949   3.182   9.135 -0.1507  1.4934  1.0829
  143SAPE  C21315670   6.101   3.025   9.159 -0.1844  0.3748 -1.1195
  143SAPE  H13R15671   6.192   3.039   9.222 -0.2339 -0.5750 -0.8229
  143SAPE  H13S15672   6.144   3.056   9.062 -0.4288  2.9791 -0.4799
  143SAPE  C21415673   6.052   2.876   9.187 -0.1000  0.1053 -0.3856
  143SAPE  H14R15674   5.974   2.871   9.265 -0.1131 -0.8421 -0.4440
  143SAPE  C21515675   6.113   2.764   9.151  0.6086  0.2002 -0.4711
  143SAPE  H15R15676   6.062   2.670   9.176 -1.8341  1.1951 -1.3073
  143SAPE  C21615677   6.205   2.768   9.040  0.1021  0.5148 -0.1437
  143SAPE  H16R15678   6.307   2.760   9.083  0.6538  1.1290 -1.3093
  143SAPE  H16S15679   6.212   2.863   8.984  2.2595 -0.2039 -1.1775
  143SAPE  C21715680   6.206   2.658   8.933  0.0291 -0.1173 -0.2581
  143SAPE  H17R15681   6.194   2.556   8.975  0.3880 -0.3381 -0.6799
  143SAPE  H17S15682   6.312   2.654   8.900 -0.0837 -3.2546 -0.5308
  143SAPE  C21815683   6.100   2.681   8.818 -0.0705 -0.5000  0.2768
  143SAPE  H18R15684   6.003   2.686   8.873  0.0278  1.6165  0.3335
  143SAPE  H18S15685   6.093   2.593   8.752  2.4221  0.4090 -1.3458
  143SAPE  C21915686   6.123   2.805   8.735 -0.4877 -0.1893 -0.1932
  143SAPE  H19R15687   6.223   2.804   8.687 -1.0630  1.4423 -1.5312
  143SAPE  H19S15688   6.118   2.900   8.792  0.0359  0.7687 -1.6971
  143SAPE  C22015689   6.029   2.801   8.616 -0.0627 -0.4498 -0.3583
  143SAPE  H20R15690   5.921   2.796   8.644 -0.0058 -0.5353 -0.1525
  143SAPE  H20S15691   6.035   2.702   8.565 -0.5261 -1.3659  1.2878
  143SAPE  H20T15692   6.049   2.885   8.547 -0.8696 -0.3661 -0.5008
  143SAPE   C3315693   6.219   4.000   9.909 -0.4898  0.3060 -0.1113
  143SAPE   H3X15694   6.177   4.101   9.887 -0.4848  0.0597 -1.3273
  143SAPE   H3Y15695   6.133   3.932   9.926 -1.6870  1.5504 -0.9926
  143SAPE   C3415696   6.294   3.958   9.789  0.2791  0.1372  0.9549
  143SAPE   H4X15697   6.354   3.875   9.831  0.0704  0.5878  2.1989
  143SAPE   H4Y15698   6.368   4.033   9.754  1.5298  0.0473  3.2014
  143SAPE   C3515699   6.211   3.900   9.670 -0.5989 -0.6711  0.1940
  143SAPE   H5X15700   6.147   3.987   9.642 -3.0660 -2.1382  1.0554
  143SAPE   H5Y15701   6.140   3.822   9.704  1.3602 -2.2014  0.9825
  143SAPE   C3615702   6.299   3.839   9.557 -0.4797 -0.3434  0.0615
  143SAPE   H6X15703   6.344   3.753   9.611 -1.5992 -1.0515 -0.1176
  143SAPE   H6Y15704   6.378   3.906   9.517 -1.7072  0.6565 -0.7348
  143SAPE   C3715705   6.220   3.784   9.431 -0.0620  0.6032 -0.1023
  143SAPE   H7X15706   6.176   3.880   9.394  1.1668 -0.2063 -4.1749
  143SAPE   H7Y15707   6.140   3.725   9.479  0.6390  0.3607  0.8074
  143SAPE   C3815708   6.312   3.692   9.341 -0.2214 -0.0119 -0.1491
  143SAPE   H8X15709   6.357   3.612   9.404 -1.0636  0.2881  0.8772
  143SAPE   H8Y15710   6.394   3.758   9.306 -2.8514  2.4873 -2.0917
  143SAPE   C3915711   6.238   3.640   9.224  0.0916  0.2282 -0.2311
  143SAPE   H9X15712   6.169   3.720   9.190 -1.6864 -0.9710  0.3777
  143SAPE   H9Y15713   6.170   3.564   9.269 -0.8526  0.6003 -0.9912
  143SAPE  C31015714   6.317   3.583   9.109 -0.6086  0.1498  0.0477
  143SAPE  H10X15715   6.369   3.493   9.148 -1.8225 -0.5810  0.0028
  143SAPE  H10Y15716   6.384   3.665   9.074  1.5509 -1.5131  0.0531
  143SAPE  C31115717   6.228   3.532   8.995 -0.7426 -0.5607  0.5473
  143SAPE  H11X15718   6.178   3.619   8.946  2.4846  0.4529 -1.2483
  143SAPE  H11Y15719   6.155   3.459   9.037 -1.4140  0.6697  1.6023
  143SAPE  C31215720   6.315   3.455   8.890 -0.6271  0.1138  0.0721
  143SAPE  H12X15721   6.398   3.415   8.952  1.0197  0.1582 -1.9753
  143SAPE  H12Y15722   6.371   3.529   8.829  0.6310 -0.8340  0.0392
  143SAPE  C31315723   6.241   3.362   8.806  0.9922  1.0340 -0.4430
  143SAPE  H13X15724   6.150   3.415   8.771 -0.0145 -0.1312  0.3299
  143SAPE  H13Y15725   6.214   3.277   8.872  0.9487  1.6152  0.3023
  143SAPE  C31415726   6.328   3.306   8.691 -0.9297 -0.5354  0.0536
  143SAPE  H14X15727   6.420   3.267   8.740  1.9701 -0.4899 -4.6479
  143SAPE  H14Y15728   6.363   3.398   8.639 -0.0282  0.5383  2.4022
  143SAPE  C31515729   6.263   3.195   8.612 -0.4213  0.4317  0.2227
  143SAPE  H15X15730   6.219   3.127   8.687 -0.2385  0.4485  0.3457
  143SAPE  H15Y15731   6.345   3.146   8.556  1.4348  1.4568  1.8894
  143SAPE  C31615732   6.134   3.229   8.535  0.3234  0.0905 -0.0961
  143SAPE  H16X15733   6.062   3.272   8.608  0.1950 -0.0020 -0.1670
  143SAPE  H16Y15734   6.096   3.131   8.500  1.0732 -0.2547  0.0408
  143SAPE  C31715735   6.157   3.340   8.424 -0.4041  0.0690  0.0711
  143SAPE  H17X15736   6.258   3.314   8.385 -0.3741  0.5489 -0.1710
  143SAPE  H17Y15737   6.174   3.442   8.465 -0.2895 -0.4171  1.2845
  143SAPE  C31815738   6.056   3.345   8.313  0.2928  0.6128  0.8566
  143SAPE  H18X15739   6.045   3.243   8.269 -2.0764  1.9246 -1.9331
  143SAPE  H18Y15740   6.105   3.411   8.239  1.0323  1.0672  1.7328
  143SAPE  H18Z15741   5.963   3.384   8.361 -0.1054  0.4843  0.1975
  144SAPE     N15742   3.220   3.513  10.967  0.6115 -0.6935  0.1485
  144SAPE   HN115743   3.240   3.451  10.886  0.3977  0.8417 -1.1312
  144SAPE   HN215744   3.304   3.572  10.980 -1.1825  1.5818  2.5118
  144SAPE   HN315745   3.209   3.458  11.054  1.6317 -0.3519  0.5086
  144SAPE   C1215746   3.104   3.598  10.922 -0.3813 -0.1490 -0.0378
  144SAPE  H12A15747   3.079   3.650  11.016  1.5238 -1.6866  1.3952
  144SAPE  H12B15748   3.025   3.525  10.892  0.8244 -1.8284  0.7222
  144SAPE   C1115749   3.152   3.677  10.803  0.0207 -0.2847  0.0143
  144SAPE  H11A15750   3.061   3.721  10.756  1.7154  2.5181 -0.8410
  144SAPE  H11B15751   3.191   3.600  10.733  0.0896  0.8230 -1.2063
  144SAPE     P15752   3.379   3.826  10.784 -0.2672 -0.0236  0.0627
  144SAPE   O1315753   3.370   3.972  10.774 -0.0557  0.0146 -0.7573
  144SAPE   O1415754   3.492   3.759  10.850 -0.7984  0.1740 -0.2336
  144SAPE   O1215755   3.245   3.769  10.850  0.4423 -0.0992  0.5088
  144SAPE   O1115756   3.365   3.769  10.637  0.8541  0.2563  0.3454
  144SAPE    C115757   3.284   3.810  10.528 -0.3765 -0.3475  0.0372
  144SAPE    HA15758   3.176   3.812  10.552 -0.1158  0.8769  1.2307
  144SAPE    HB15759   3.306   3.917  10.507 -1.1329 -0.1501  0.2328
  144SAPE    C215760   3.301   3.721  10.398 -0.5909 -0.0315  0.0158
  144SAPE    HS15761   3.284   3.617  10.433  0.1266 -0.2569 -0.3011
  144SAPE   O2115762   3.432   3.745  10.345 -0.6708 -0.3049 -0.6149
  144SAPE   C2115763   3.482   3.644  10.281  0.2531 -0.7004 -0.1524
  144SAPE   O2215764   3.438   3.528  10.287 -0.7939 -0.8031 -0.4101
  144SAPE   C2215765   3.601   3.690  10.204  0.4541  0.3095  0.3242
  144SAPE   H2R15766   3.595   3.799  10.185 -0.8342  0.2390  0.2309
  144SAPE   H2S15767   3.689   3.675  10.271  0.5805  1.2327  0.3838
  144SAPE    C315768   3.188   3.746  10.288 -0.6465  0.0404 -0.0401
  144SAPE    HX15769   3.213   3.839  10.233  1.8170 -0.9149 -0.6627
  144SAPE    HY15770   3.088   3.755  10.336 -0.4975  3.6064 -0.1317
  144SAPE   O3115771   3.195   3.649  10.186  0.2482 -0.3791 -0.1721
  144SAPE   C3115772   3.142   3.527  10.221 -0.4481 -0.1299 -0.5669
  144SAPE   O3215773   3.079   3.509  10.325  0.2287  0.3611 -0.5679
  144SAPE   C3215774   3.183   3.423  10.117  0.5007 -0.3711 -0.5392
  144SAPE   H2X15775   3.210   3.333  10.176  1.1443 -1.1560 -2.0014
  144SAPE   H2Y15776   3.265   3.465  10.055 -0.1431 -0.9987 -1.8503
  144SAPE   C2315777   3.621   3.607  10.074  0.6470 -0.1869  0.4196
  144SAPE   H3R15778   3.575   3.507  10.082  0.5752 -0.2378 -0.5004
  144SAPE   H3S15779   3.730   3.583  10.073  0.7070  0.0711 -0.1979
  144SAPE   C2415780   3.596   3.687   9.942 -0.2318  0.0114 -0.8262
  144SAPE   H4R15781   3.637   3.639   9.851 -0.7228  1.6213 -1.9560
  144SAPE   H4S15782   3.663   3.776   9.945 -0.6167  0.4961 -3.7086
  144SAPE   C2515783   3.451   3.708   9.928  0.3707 -1.0030 -0.4940
  144SAPE   H5R15784   3.405   3.747  10.020  0.7331  0.9619 -1.0882
  144SAPE   C2615785   3.373   3.675   9.821  0.3626  0.2658 -0.7341
  144SAPE   H6R15786   3.267   3.699   9.837  0.9481  2.5636  0.0561
  144SAPE   C2715787   3.412   3.623   9.678 -1.1405  0.2411 -0.3956
  144SAPE   H7R15788   3.437   3.516   9.694 -0.4322  0.7359  2.3872
  144SAPE   H7S15789   3.509   3.660   9.639  0.3598 -1.5514  1.4114
  144SAPE   C2815790   3.305   3.635   9.576 -0.3806 -0.2534 -0.5661
  144SAPE   H8R15791   3.213   3.687   9.608 -0.1280  0.9008 -1.6626
  144SAPE   C2915792   3.309   3.603   9.450  0.4859  0.6557 -0.1337
  144SAPE   H9R15793   3.215   3.601   9.392 -0.0898  0.2045  0.7877
  144SAPE  C21015794   3.423   3.547   9.372 -0.4656  0.0261  0.3489
  144SAPE  H10R15795   3.440   3.445   9.412 -4.0148 -0.0698  1.9666
  144SAPE  H10S15796   3.512   3.608   9.400 -0.9117  0.3842  1.0181
  144SAPE  C21115797   3.407   3.557   9.217  0.4565 -0.0068 -0.5015
  144SAPE  H11R15798   3.374   3.652   9.172  2.0206  0.4363 -0.7667
  144SAPE  C21215799   3.420   3.458   9.128  0.1545 -0.4271  0.7630
  144SAPE  H12R15800   3.384   3.471   9.025  2.9061  0.4934 -0.1592
  144SAPE  C21315801   3.433   3.311   9.164 -0.2797  0.1806  0.0372
  144SAPE  H13R15802   3.451   3.293   9.272  1.4895  1.3032 -0.0357
  144SAPE  H13S15803   3.522   3.263   9.118  0.3964 -1.3781  2.7530
  144SAPE  C21415804   3.322   3.222   9.120 -0.3530  0.0900  0.2074
  144SAPE  H14R15805   3.280   3.165   9.203  2.1645  0.2581  1.6999
  144SAPE  C21515806   3.272   3.207   8.994  0.1034  0.4948 -0.1468
  144SAPE  H15R15807   3.195   3.128   8.985  1.1608 -0.8286  1.7948
  144SAPE  C21615808   3.316   3.268   8.860 -0.7221  0.5535 -0.1012
  144SAPE  H16R15809   3.417   3.314   8.868  0.4597 -1.7643 -0.8244
  144SAPE  H16S15810   3.252   3.351   8.824 -1.6249 -0.5416 -1.0871
  144SAPE  C21715811   3.314   3.178   8.742 -0.2836  0.1004 -0.5356
  144SAPE  H17R15812   3.211   3.135   8.740 -0.1793 -0.5804  2.6855
  144SAPE  H17S15813   3.378   3.089   8.759 -0.6732 -0.3321 -1.2876
  144SAPE  C21815814   3.366   3.253   8.622 -0.2439  0.1979  0.4003
  144SAPE  H18R15815   3.471   3.289   8.635 -0.1394  0.0136  0.0665
  144SAPE  H18S15816   3.310   3.348   8.610 -1.4642 -0.3114  1.8282
  144SAPE  C21915817   3.360   3.185   8.483 -0.3244 -0.5076 -0.4588
  144SAPE  H19R15818   3.259   3.145   8.461 -0.9328 -0.1029  1.4391
  144SAPE  H19S15819   3.430   3.101   8.503 -1.1131 -0.7561  1.4183
  144SAPE  C22015820   3.408   3.278   8.370 -0.4524  0.0639 -0.1160
  144SAPE  H20R15821   3.510   3.312   8.399  0.9817 -3.6680 -0.1555
  144SAPE  H20S15822   3.335   3.361   8.370 -1.6965 -0.9959  0.0287
  144SAPE  H20T15823   3.412   3.225   8.272 -1.1841 -0.9102  0.3613
  144SAPE   C3315824   3.061   3.397  10.023  0.3611  0.6978  0.6827
  144SAPE   H3X15825   3.032   3.475   9.949  0.5598 -0.4866 -0.6919
  144SAPE   H3Y15826   2.970   3.393  10.087 -0.2280 -1.0107 -0.2096
  144SAPE   C3415827   3.081   3.254   9.957  0.1134 -0.5584  0.1830
  144SAPE   H4X15828   2.984   3.222   9.915  0.3631 -0.7135 -0.2822
  144SAPE   H4Y15829   3.099   3.175  10.033  0.7265 -0.1957  0.4296
  144SAPE   C3515830   3.196   3.256   9.854 -0.1255  0.6002  1.0205
  144SAPE   H5X15831   3.279   3.191   9.889 -1.1282 -1.9843 -1.0268
  144SAPE   H5Y15832   3.231   3.360   9.841 -0.4218  0.5689 -0.1612
  144SAPE   C3615833   3.151   3.197   9.718 -0.2582 -0.1920  0.1455
  144SAPE   H6X15834   3.054   3.235   9.679 -0.0115  0.4554  0.1556
  144SAPE   H6Y15835   3.136   3.087   9.720 -0.0996 -0.2310 -0.6958
  144SAPE   C3715836   3.254   3.218   9.603 -0.1333  0.5580 -0.0407
  144SAPE   H7X15837   3.258   3.325   9.573  0.7079 -0.0191 -2.1176
  144SAPE   H7Y15838   3.216   3.174   9.509 -0.7109  0.6551  0.1371
  144SAPE   C3815839   3.400   3.171   9.616  0.1392 -0.4582 -1.3315
  144SAPE   H8X15840   3.430   3.241   9.698 -2.7092 -2.9937  2.2028
  144SAPE   H8Y15841   3.458   3.192   9.524  0.3821 -3.1657 -1.8883
  144SAPE   C3915842   3.421   3.023   9.653  0.2384  0.8749 -0.2677
  144SAPE   H9X15843   3.379   3.023   9.756  0.6463  3.6484 -0.0090
  144SAPE   H9Y15844   3.528   3.001   9.673  0.7712  3.4392  0.1362
  144SAPE  C31015845   3.356   2.919   9.560  0.0567  0.0934 -0.1383
  144SAPE  H10X15846   3.253   2.959   9.558 -0.5993 -1.5355 -0.1629
  144SAPE  H10Y15847   3.349   2.820   9.609  1.4403 -1.1015 -2.2023
  144SAPE  C31115848   3.414   2.912   9.413  0.4690  0.5366  0.3250
  144SAPE  H11X15849   3.523   2.898   9.432  1.3858  1.7414 -3.2721
  144SAPE  H11Y15850   3.399   3.014   9.372 -2.8982 -0.8976 -2.4984
  144SAPE  C31215851   3.350   2.810   9.317  0.5430 -0.3159  0.2372
  144SAPE  H12X15852   3.244   2.825   9.286  0.5889 -0.0711  0.1972
  144SAPE  H12Y15853   3.349   2.715   9.374 -0.8977 -0.2473  0.3595
  144SAPE  C31315854   3.424   2.788   9.188 -0.1377  0.2733  0.7952
  144SAPE  H13X15855   3.528   2.755   9.210 -0.3258 -0.3561  0.7629
  144SAPE  H13Y15856   3.432   2.886   9.136  0.0113  0.7791  1.7358
  144SAPE  C31415857   3.370   2.688   9.079 -0.4299 -0.0361 -0.5335
  144SAPE  H14X15858   3.439   2.690   8.992 -0.6379 -0.3211 -0.7072
  144SAPE  H14Y15859   3.270   2.718   9.041 -0.5895  0.7556  0.4728
  144SAPE  C31515860   3.351   2.539   9.123 -0.4957  0.5302  0.5631
  144SAPE  H15X15861   3.292   2.535   9.217 -0.8310  0.0837  0.3395
  144SAPE  H15Y15862   3.449   2.497   9.153 -1.0038  0.1804  1.7851
  144SAPE  C31615863   3.276   2.451   9.019 -0.1079  0.2068  0.2154
  144SAPE  H16X15864   3.177   2.500   9.006  0.3562  0.8188 -1.1250
  144SAPE  H16Y15865   3.269   2.347   9.058  1.8305 -0.1781 -0.3355
  144SAPE  C31715866   3.339   2.438   8.884  0.2143 -0.7783 -0.3280
  144SAPE  H17X15867   3.446   2.411   8.887  0.2179 -1.2606 -2.7224
  144SAPE  H17Y15868   3.333   2.540   8.841 -0.0298  0.6346  2.8587
  144SAPE  C31815869   3.271   2.342   8.787  0.3476  0.0655  0.2059
  144SAPE  H18X15870   3.323   2.338   8.689  1.3175 -2.6447  0.7442
  144SAPE  H18Y15871   3.163   2.359   8.769  0.7155  3.5473  0.5511
  144SAPE  H18Z15872   3.288   2.238   8.823 -0.2236  0.1427  0.7188
  145SAPE     N15873   0.283   2.967  10.374  0.5201  0.0944 -0.5707
  145SAPE   HN115874   0.192   2.936  10.333  0.3452 -0.4956  0.2386
  145SAPE   HN215875   0.351   2.897  10.340  0.8714  0.7313 -1.2194
  145SAPE   HN315876   0.275   2.949  10.476 -0.3469 -1.1902 -0.8348
  145SAPE   C1215877   0.325   3.107  10.340  0.7842  0.8252 -0.6276
  145SAPE  H12A15878   0.409   3.084  10.272  1.7263  0.7095  0.5493
  145SAPE  H12B15879   0.366   3.156  10.431 -1.3642  1.4860  0.0570
  145SAPE   C1115880   0.215   3.191  10.276 -0.2549  0.4273 -0.1634
  145SAPE  H11A15881   0.154   3.233  10.359 -2.0086 -2.4487  0.1450
  145SAPE  H11B15882   0.151   3.134  10.206 -0.7592  0.0683  0.5678
  145SAPE     P15883   0.332   3.414  10.269  0.3518  0.5303 -0.4007
  145SAPE   O1315884   0.234   3.470  10.365 -0.4746  0.1440 -0.0614
  145SAPE   O1415885   0.459   3.370  10.327  0.5392 -0.9349 -0.3424
  145SAPE   O1215886   0.280   3.283  10.188 -0.0571 -0.3849 -0.6555
  145SAPE   O1115887   0.369   3.522  10.157  0.5510 -0.0459  0.3983
  145SAPE    C115888   0.499   3.533  10.096  0.0999 -0.4735  0.8906
  145SAPE    HA15889   0.550   3.622  10.138  0.5165 -1.7358  3.2255
  145SAPE    HB15890   0.568   3.452  10.127  0.2797 -1.1293 -1.0617
  145SAPE    C215891   0.496   3.528   9.936  0.3914 -0.8761 -0.0842
  145SAPE    HS15892   0.436   3.617   9.907 -0.3075 -1.5605 -0.8223
  145SAPE   O2115893   0.439   3.407   9.893 -0.6523  0.2638  0.5110
  145SAPE   C2115894   0.316   3.406   9.866  0.2753 -0.0628 -0.8427
  145SAPE   O2215895   0.232   3.498   9.878  0.4966 -0.2894 -0.9971
  145SAPE   C2215896   0.284   3.275   9.800 -0.8367 -0.9119  0.1351
  145SAPE   H2R15897   0.173   3.270   9.798 -0.8317 -0.8860 -0.7318
  145SAPE   H2S15898   0.334   3.269   9.701  0.1048 -1.3898  0.6305
  145SAPE    C315899   0.643   3.534   9.876 -0.1919 -0.3330 -0.3905
  145SAPE    HX15900   0.684   3.439   9.916 -0.2305 -0.9127 -1.6928
  145SAPE    HY15901   0.705   3.612   9.926 -2.4401 -0.1038  2.3247
  145SAPE   O3115902   0.641   3.523   9.733 -0.4523 -0.1659 -0.2095
  145SAPE   C3115903   0.659   3.641   9.681 -0.0073  0.4320  0.6164
  145SAPE   O3215904   0.684   3.744   9.743 -0.2106  0.4410 -0.2678
  145SAPE   C3215905   0.634   3.629   9.529 -0.2197  0.4349  0.3108
  145SAPE   H2X15906   0.616   3.723   9.473 -1.2605 -0.1007 -0.2743
  145SAPE   H2Y15907   0.547   3.561   9.513  0.4400 -0.4726  0.4832
  145SAPE   C2315908   0.343   3.145   9.874 -0.1857 -0.2509  0.5951
  145SAPE   H3R15909   0.323   3.162   9.982 -0.3656 -0.0438  0.5299
  145SAPE   H3S15910   0.454   3.153   9.877  0.0659 -1.5716 -1.9739
  145SAPE   C2415911   0.304   3.006   9.821  0.1874  0.6168 -0.3789
  145SAPE   H4R15912   0.359   2.931   9.883 -1.5053 -0.7586 -0.4535
  145SAPE   H4S15913   0.342   3.011   9.717 -0.3643  0.4310 -0.5944
  145SAPE   C2515914   0.152   2.981   9.827 -0.0517 -0.5908  0.1038
  145SAPE   H5R15915   0.103   2.992   9.925 -0.1862 -2.0037  0.2109
  145SAPE   C2615916   0.075   2.961   9.717 -0.5853 -0.0067  0.0098
  145SAPE   H6R15917  -0.035   2.970   9.721 -0.7074 -0.6848 -1.1373
  145SAPE   C2715918   0.123   2.955   9.576  0.4243  0.2428  0.5704
  145SAPE   H7R15919   0.136   2.849   9.545 -0.1693  0.6566 -1.2334
  145SAPE   H7S15920   0.229   2.987   9.566  0.8441 -0.8878  1.2278
  145SAPE   C2815921   0.042   3.021   9.469 -0.2728  0.2433  0.0963
  145SAPE   H8R15922  -0.063   2.989   9.468  0.1225 -1.1523  0.8901
  145SAPE   C2915923   0.085   3.105   9.373  0.7579  0.2500  0.4958
  145SAPE   H9R15924   0.011   3.137   9.299  2.0943  0.3506 -0.8464
  145SAPE  C21015925   0.232   3.144   9.342  0.0495  0.0811  0.1785
  145SAPE  H10R15926   0.257   3.146   9.234 -1.8627 -1.4283 -0.3453
  145SAPE  H10S15927   0.288   3.056   9.382  0.0644 -0.5835 -1.2424
  145SAPE  C21115928   0.258   3.274   9.414 -0.3583  0.1320 -0.8160
  145SAPE  H11R15929   0.205   3.282   9.510  1.6596 -1.3886  0.5076
  145SAPE  C21215930   0.321   3.382   9.362  0.1765  0.5838 -0.1369
  145SAPE  H12R15931   0.318   3.473   9.423 -1.8163  1.0063 -0.7780
  145SAPE  C21315932   0.364   3.397   9.215  0.1589 -0.0070  0.3189
  145SAPE  H13R15933   0.412   3.304   9.177 -1.3211  0.4240 -2.9883
  145SAPE  H13S15934   0.426   3.489   9.205 -0.7405  0.5487 -0.2987
  145SAPE  C21415935   0.245   3.436   9.131  0.3016  0.5082  0.1702
  145SAPE  H14R15936   0.161   3.466   9.196  0.9280 -0.9908  1.7578
  145SAPE  C21515937   0.231   3.428   8.997 -0.0140  0.4996  0.2866
  145SAPE  H15R15938   0.132   3.451   8.955 -0.2492 -1.5048 -0.3411
  145SAPE  C21615939   0.331   3.401   8.888  0.4976 -0.3504  0.0138
  145SAPE  H16R15940   0.432   3.418   8.929  0.7889  0.2460 -0.9463
  145SAPE  H16S15941   0.307   3.480   8.814  0.2089 -1.3285 -0.9525
  145SAPE  C21715942   0.322   3.266   8.828  0.4159 -0.1833 -0.0035
  145SAPE  H17R15943   0.219   3.225   8.824  0.6609 -0.7808 -0.3994
  145SAPE  H17S15944   0.374   3.183   8.882  1.0300 -0.5350 -1.0996
  145SAPE  C21815945   0.383   3.269   8.688  0.0697 -0.0808  0.4749
  145SAPE  H18R15946   0.442   3.180   8.657  0.1936 -0.2027  1.0514
  145SAPE  H18S15947   0.458   3.349   8.673 -2.3878  2.0236 -1.7653
  145SAPE  C21915948   0.293   3.309   8.573  0.7584  0.3677 -0.1639
  145SAPE  H19R15949   0.358   3.346   8.490  1.6557 -0.8654 -0.0495
  145SAPE  H19S15950   0.225   3.392   8.601 -1.0685 -0.2647 -2.4131
  145SAPE  C22015951   0.213   3.190   8.524 -0.1526 -0.1051 -0.8245
  145SAPE  H20R15952   0.152   3.138   8.600  2.1165  1.2226  2.0898
  145SAPE  H20S15953   0.283   3.117   8.477 -1.3135 -0.7721 -1.5740
  145SAPE  H20T15954   0.158   3.214   8.431 -1.1452 -0.1570 -0.2573
  145SAPE   C3315955   0.754   3.554   9.468  0.2141 -0.2264 -0.5921
  145SAPE   H3X15956   0.788   3.473   9.536 -1.9457  0.2618  1.1541
  145SAPE   H3Y15957   0.839   3.625   9.473 -0.9459  1.1049  2.4437
  145SAPE   C3415958   0.745   3.502   9.322  0.3908 -0.4132  0.1479
  145SAPE   H4X15959   0.647   3.450   9.312  0.0008  0.5948 -1.9165
  145SAPE   H4Y15960   0.829   3.431   9.306  1.4022  0.5810  0.9767
  145SAPE   C3515961   0.746   3.615   9.216 -0.1147  0.7446 -0.3769
  145SAPE   H5X15962   0.846   3.662   9.211  0.1118  0.2720 -0.3400
  145SAPE   H5Y15963   0.665   3.684   9.246 -1.3884 -1.0484  0.5247
  145SAPE   C3615964   0.703   3.573   9.075  0.0899  0.8378  0.3257
  145SAPE   H6X15965   0.676   3.666   9.021  0.1267 -0.0864 -1.3553
  145SAPE   H6Y15966   0.610   3.512   9.078  0.3940  0.3286 -0.5324
  145SAPE   C3715967   0.817   3.503   9.011 -0.1629 -0.9858 -0.0294
  145SAPE   H7X15968   0.860   3.422   9.074 -0.8951 -0.6953  0.8699
  145SAPE   H7Y15969   0.897   3.569   8.970  0.5885 -3.1871 -2.3571
  145SAPE   C3815970   0.774   3.427   8.887  0.2271  0.3066 -0.0994
  145SAPE   H8X15971   0.717   3.495   8.820  0.4636  0.0401 -0.5759
  145SAPE   H8Y15972   0.699   3.348   8.905 -0.0917  0.5883 -0.1753
  145SAPE   C3915973   0.894   3.365   8.810 -0.2434  0.5055 -0.4717
  145SAPE   H9X15974   0.955   3.304   8.880  1.6083  2.7396 -0.0091
  145SAPE   H9Y15975   0.962   3.447   8.778 -0.0318  0.8023  0.6798
  145SAPE  C31015976   0.837   3.271   8.701 -0.2102 -0.1570 -0.0075
  145SAPE  H10X15977   0.756   3.216   8.754 -0.4293  0.3504  0.1952
  145SAPE  H10Y15978   0.923   3.213   8.662 -0.6851 -0.5378 -0.5205
  145SAPE  C31115979   0.770   3.343   8.581  0.3339 -0.3066  0.8597
  145SAPE  H11X15980   0.702   3.429   8.600 -0.2760 -0.1011 -1.8901
  145SAPE  H11Y15981   0.714   3.262   8.529  0.9907 -0.0127 -0.3480
  145SAPE  C31215982   0.877   3.393   8.485  0.4234 -0.1672  0.5464
  145SAPE  H12X15983   0.944   3.305   8.473  0.3750 -0.1979  0.5032
  145SAPE  H12Y15984   0.931   3.476   8.535 -2.9610  1.2019  2.2543
  145SAPE  C31315985   0.822   3.425   8.346  0.5574  0.5236 -0.7039
  145SAPE  H13X15986   0.731   3.488   8.346  0.7202  0.7934  0.7577
  145SAPE  H13Y15987   0.791   3.323   8.314 -0.2867 -0.0713  1.7621
  145SAPE  C31415988   0.932   3.471   8.252  0.3485  0.2856  1.0139
  145SAPE  H14X15989   1.020   3.402   8.243 -0.9029 -1.1105 -2.0404
  145SAPE  H14Y15990   0.955   3.574   8.285 -3.0822  0.5548  2.9500
  145SAPE  C31515991   0.867   3.471   8.107 -0.5550 -0.1786  0.0452
  145SAPE  H15X15992   0.762   3.505   8.117 -1.3290 -2.2579 -0.5288
  145SAPE  H15Y15993   0.858   3.365   8.076  1.5910 -0.2997 -0.3298
  145SAPE  C31615994   0.955   3.539   7.999 -0.1724 -0.4694 -0.6103
  145SAPE  H16X15995   1.064   3.517   8.004  0.0358  0.3585 -1.3816
  145SAPE  H16Y15996   0.955   3.646   8.026  2.2435 -0.7213  0.7211
  145SAPE  C31715997   0.896   3.529   7.860 -0.1841 -0.0735 -0.3438
  145SAPE  H17X15998   0.950   3.603   7.798 -0.7333 -1.8340 -3.1012
  145SAPE  H17Y15999   0.788   3.551   7.874  0.0166  1.4468 -0.9926
  145SAPE  C31816000   0.912   3.400   7.782  0.0868  0.5789 -0.3913
  145SAPE  H18X16001   0.883   3.410   7.675  0.1709  2.0664 -0.2984
  145SAPE  H18Y16002   0.838   3.327   7.820 -0.0469  0.1571 -1.4185
  145SAPE  H18Z16003   1.016   3.362   7.794 -0.3690 -1.1749 -1.5894
  146SAPE     N16004   3.348   3.089  10.959  0.5193 -0.3580  0.1152
  146SAPE   HN116005   3.362   2.995  11.001  0.8056 -0.7075 -0.7584
  146SAPE   HN216006   3.388   3.153  11.031  1.4466 -0.4567 -0.2907
  146SAPE   HN316007   3.246   3.103  10.947 -0.0709 -2.4686  1.8371
  146SAPE   C1216008   3.447   3.083  10.843  0.5538  0.3522 -0.2097
  146SAPE  H12A16009   3.465   3.190  10.819 -1.7010  0.9544  0.5015
  146SAPE  H12B16010   3.394   3.037  10.756  0.5811 -1.2402  0.5842
  146SAPE   C1116011   3.578   3.026  10.890 -0.4726  0.1197 -1.0920
  146SAPE  H11A16012   3.628   3.104  10.951 -1.3440  0.5286 -0.8801
  146SAPE  H11B16013   3.644   3.015  10.800  1.4378  1.7372  0.0362
  146SAPE     P16014   3.576   2.763  10.899  0.2859  0.1962  0.1668
  146SAPE   O1316015   3.715   2.723  10.918 -0.6709 -0.1084 -0.1707
  146SAPE   O1416016   3.467   2.686  10.959 -0.5269  0.2329  0.1876
  146SAPE   O1216017   3.560   2.907  10.957 -0.1459 -0.5157 -0.0680
  146SAPE   O1116018   3.561   2.785  10.743  0.0767  0.1589  0.0383
  146SAPE    C116019   3.452   2.754  10.658  0.1074  0.3233 -0.9294
  146SAPE    HA16020   3.358   2.771  10.715  0.0052  1.8208 -1.5091
  146SAPE    HB16021   3.452   2.824  10.572 -0.9871 -1.4085 -2.4190
  146SAPE    C216022   3.473   2.614  10.601  0.1656 -0.1707  1.4042
  146SAPE    HS16023   3.508   2.545  10.681  0.7494 -1.9369 -0.2972
  146SAPE   O2116024   3.578   2.627  10.507  0.1968 -0.2803  0.2367
  146SAPE   C2116025   3.626   2.512  10.465 -0.0490  0.2073 -0.1832
  146SAPE   O2216026   3.605   2.402  10.518 -0.2643 -0.4437  0.2420
  146SAPE   C2216027   3.695   2.540  10.335 -0.4090  0.0996  0.6221
  146SAPE   H2R16028   3.637   2.484  10.258  0.6082  1.2025 -1.0109
  146SAPE   H2S16029   3.684   2.650  10.321 -1.5394 -0.0500  0.2636
  146SAPE    C316030   3.341   2.551  10.548 -0.0179 -0.5178  0.5834
  146SAPE    HX16031   3.269   2.570  10.630 -0.7495  0.9928 -0.3516
  146SAPE    HY16032   3.347   2.441  10.535  1.6712 -0.6928  2.4472
  146SAPE   O3116033   3.301   2.608  10.423  0.2111 -0.1280 -0.0570
  146SAPE   C3116034   3.167   2.628  10.407  0.1326  0.0065 -0.1371
  146SAPE   O3216035   3.085   2.610  10.499 -0.0969 -0.4068  0.3416
  146SAPE   C3216036   3.147   2.699  10.270  0.2553 -0.0308  0.5067
  146SAPE   H2X16037   3.229   2.773  10.261  0.4450 -0.2962  0.0221
  146SAPE   H2Y16038   3.051   2.756  10.275  0.0254 -0.4813  1.3505
  146SAPE   C2316039   3.842   2.495  10.334  0.2699  0.1867  0.1980
  146SAPE   H3R16040   3.896   2.529  10.425  0.8267  0.7967 -0.3483
  146SAPE   H3S16041   3.899   2.534  10.246 -1.6844 -1.1944 -1.7855
  146SAPE   C2416042   3.846   2.338  10.322 -0.4018 -0.5426 -0.0947
  146SAPE   H4R16043   3.814   2.309  10.220  0.9373  1.0847 -1.0307
  146SAPE   H4S16044   3.765   2.298  10.387  0.6652  0.3546  1.8808
  146SAPE   C2516045   3.976   2.273  10.367 -0.4332  0.5585  0.1588
  146SAPE   H5R16046   3.999   2.281  10.474 -0.1775  2.1703  0.0012
  146SAPE   C2616047   4.069   2.213  10.287  0.6789  0.5567 -0.4523
  146SAPE   H6R16048   4.159   2.162  10.324 -0.4481 -1.6572 -0.6032
  146SAPE   C2716049   4.039   2.195  10.139 -0.3471 -0.1352  0.4361
  146SAPE   H7R16050   4.024   2.297  10.096 -3.5569 -1.3396 -1.6732
  146SAPE   H7S16051   3.941   2.144  10.131  0.3340 -1.5465  0.7390
  146SAPE   C2816052   4.138   2.120  10.053 -0.3108 -0.2744  0.6734
  146SAPE   H8R16053   4.244   2.133  10.079 -0.2064  4.2835 -1.2138
  146SAPE   C2916054   4.113   2.066   9.930  0.3059 -0.3630 -0.3641
  146SAPE   H9R16055   4.193   2.010   9.880 -1.2919 -2.8144 -0.3451
  146SAPE  C21016056   3.971   2.064   9.867  0.1173  0.0517  0.2680
  146SAPE  H10R16057   3.897   2.032   9.943  1.6285 -3.1299  0.5424
  146SAPE  H10S16058   3.969   1.981   9.794  0.2147  2.0624 -2.1614
  146SAPE  C21116059   3.925   2.189   9.801  0.0661  0.3063  1.0561
  146SAPE  H11R16060   3.896   2.267   9.872  2.4808 -0.0601  2.5572
  146SAPE  C21216061   3.909   2.208   9.669  0.4401  0.0208 -0.0042
  146SAPE  H12R16062   3.869   2.303   9.632  0.6831 -0.3983 -1.4122
  146SAPE  C21316063   3.944   2.111   9.561 -0.0259  0.1980  0.0678
  146SAPE  H13R16064   3.925   2.008   9.600 -1.3435 -0.1168 -1.3268
  146SAPE  H13S16065   4.053   2.102   9.541  0.0098 -0.9245  0.6300
  146SAPE  C21416066   3.856   2.136   9.446 -0.1696  0.7452  0.5803
  146SAPE  H14R16067   3.752   2.120   9.479 -0.1359  1.7981  1.2397
  146SAPE  C21516068   3.885   2.161   9.319  0.3505 -0.0808 -0.1217
  146SAPE  H15R16069   3.805   2.190   9.250  1.3571 -0.4841 -1.5022
  146SAPE  C21616070   4.019   2.191   9.268 -0.1115 -0.4897  0.4097
  146SAPE  H16R16071   4.073   2.095   9.256  2.4306  0.8490  0.3129
  146SAPE  H16S16072   4.076   2.246   9.346  0.6524  0.5481 -0.8262
  146SAPE  C21716073   4.016   2.272   9.135  0.0883  0.0643  0.0078
  146SAPE  H17R16074   4.122   2.302   9.117  0.2100  0.1431  0.8357
  146SAPE  H17S16075   3.956   2.364   9.147  0.7311  0.3322  1.3213
  146SAPE  C21816076   3.977   2.187   9.012 -0.1787 -0.2121 -0.4961
  146SAPE  H18R16077   3.866   2.177   9.020 -0.2912  1.3867  0.3475
  146SAPE  H18S16078   4.029   2.090   9.018 -0.4048 -0.5003 -2.4060
  146SAPE  C21916079   4.018   2.262   8.890  0.9371 -0.0458  0.6187
  146SAPE  H19R16080   4.126   2.288   8.886  1.8729 -3.4133 -3.4924
  146SAPE  H19S16081   3.958   2.355   8.898 -1.3075 -1.5299  2.5701
  146SAPE  C22016082   3.994   2.193   8.758  0.2161 -0.8405 -0.4285
  146SAPE  H20R16083   3.896   2.140   8.768 -0.5835  0.3875 -1.4471
  146SAPE  H20S16084   4.076   2.121   8.740  1.0085 -0.3995  1.1913
  146SAPE  H20T16085   3.984   2.270   8.679  0.3544  0.7404  1.0444
  146SAPE   C3316086   3.148   2.606  10.145 -0.8015  0.4319  0.2226
  146SAPE   H3X16087   3.102   2.506  10.160  0.3725 -0.1705 -0.0060
  146SAPE   H3Y16088   3.256   2.587  10.127 -0.7219 -1.6410  2.4300
  146SAPE   C3416089   3.083   2.665  10.020  0.1862 -0.0787 -0.0707
  146SAPE   H4X16090   3.140   2.757   9.995 -2.1260  1.5238  0.2659
  146SAPE   H4Y16091   2.977   2.696  10.012  0.8537  1.9678 -2.7956
  146SAPE   C3516092   3.113   2.576   9.902  0.3116  0.6423 -0.2305
  146SAPE   H5X16093   3.038   2.494   9.909  1.9032 -1.0865 -2.0767
  146SAPE   H5Y16094   3.214   2.533   9.920  0.0406 -0.2028 -0.6662
  146SAPE   C3616095   3.100   2.643   9.770  0.0309 -0.1268 -0.5899
  146SAPE   H6X16096   3.179   2.720   9.757 -1.1597  1.4736  0.9909
  146SAPE   H6Y16097   3.007   2.703   9.759  1.4437  2.3268  0.0318
  146SAPE   C3716098   3.109   2.540   9.658  0.0531 -0.3177 -0.3042
  146SAPE   H7X16099   3.040   2.456   9.676 -0.4399  0.2189  0.3689
  146SAPE   H7Y16100   3.214   2.504   9.657  0.6126  1.0091  1.9867
  146SAPE   C3816101   3.092   2.604   9.525  0.1381  0.2436  0.7136
  146SAPE   H8X16102   3.135   2.542   9.444 -1.9413  2.2015 -2.0733
  146SAPE   H8Y16103   3.138   2.703   9.510 -0.8721  0.9490  2.0555
  146SAPE   C3916104   2.949   2.632   9.479 -0.0703 -0.3675  0.1403
  146SAPE   H9X16105   2.919   2.723   9.535  0.4963  0.7405 -1.2955
  146SAPE   H9Y16106   2.870   2.558   9.502 -0.9686  0.9467  1.4291
  146SAPE  C31016107   2.929   2.658   9.327  0.1244  0.7190  0.7333
  146SAPE  H10X16108   2.949   2.559   9.281 -0.5933  0.1178  1.6754
  146SAPE  H10Y16109   3.001   2.726   9.277  0.9114 -0.1071  0.7115
  146SAPE  C31116110   2.785   2.688   9.281  0.1323 -0.1763  0.4056
  146SAPE  H11X16111   2.770   2.781   9.340  2.7943 -0.1661  1.1945
  146SAPE  H11Y16112   2.715   2.609   9.315  0.1825 -0.4285 -0.0638
  146SAPE  C31216113   2.771   2.734   9.129  0.2206 -0.1931 -0.3137
  146SAPE  H12X16114   2.662   2.725   9.111  0.2148  0.7209 -0.7659
  146SAPE  H12Y16115   2.834   2.672   9.062 -0.6494 -0.1539 -1.1970
  146SAPE  C31316116   2.820   2.879   9.114  0.6415 -0.0895  0.1703
  146SAPE  H13X16117   2.929   2.881   9.134  0.3002  1.5540  2.1740
  146SAPE  H13Y16118   2.780   2.940   9.198 -0.0014 -1.5983  0.9845
  146SAPE  C31416119   2.795   2.949   8.980 -0.1428  0.4417 -0.1089
  146SAPE  H14X16120   2.837   3.052   8.972 -0.1193  0.3918 -0.6324
  146SAPE  H14Y16121   2.685   2.960   8.967  0.1749  3.2023 -1.2473
  146SAPE  C31516122   2.845   2.865   8.858 -0.4504 -0.1103  0.0748
  146SAPE  H15X16123   2.793   2.890   8.764 -0.2527  1.7998  0.4405
  146SAPE  H15Y16124   2.819   2.758   8.875  1.2656 -0.9120 -1.9478
  146SAPE  C31616125   2.995   2.888   8.841 -0.1994  0.1598  0.0006
  146SAPE  H16X16126   3.044   2.845   8.931  2.2712  0.0115 -1.3153
  146SAPE  H16Y16127   3.027   2.994   8.831 -0.2841  0.0340 -2.1439
  146SAPE  C31716128   3.042   2.775   8.742  0.7441 -0.4889  0.4572
  146SAPE  H17X16129   2.971   2.776   8.656  0.7306 -2.7415  0.3934
  146SAPE  H17Y16130   3.019   2.676   8.787 -1.9012  0.0833  0.5038
  146SAPE  C31816131   3.189   2.798   8.707  0.0154  0.3494 -0.5180
  146SAPE  H18X16132   3.219   2.718   8.636 -1.5377 -2.0962  1.4419
  146SAPE  H18Y16133   3.255   2.799   8.796  0.4797  0.7576 -0.8587
  146SAPE  H18Z16134   3.199   2.893   8.650 -1.1390  0.1449 -1.0861
  147SAPE     N16135   1.788   6.173   5.465  0.0332  0.0594  0.2031
  147SAPE   HN116136   1.722   6.168   5.385 -1.9228  0.0087  1.7453
  147SAPE   HN216137   1.759   6.253   5.525 -0.8013 -0.9293  1.1605
  147SAPE   HN316138   1.882   6.202   5.430  0.3085  0.3723  1.1548
  147SAPE   C1216139   1.794   6.050   5.548 -0.2309  0.1522 -0.1718
  147SAPE  H12A16140   1.751   5.962   5.495 -1.3794 -0.0095  0.9563
  147SAPE  H12B16141   1.730   6.065   5.638  0.6728 -2.5857  1.0501
  147SAPE   C1116142   1.934   6.031   5.592  0.5617 -0.0766  0.1170
  147SAPE  H11A16143   1.997   6.008   5.503 -0.6793 -0.5309 -0.6670
  147SAPE  H11B16144   1.935   5.942   5.659 -1.1006  0.1968  0.5280
  147SAPE     P16145   2.142   6.150   5.693  0.0528  0.4032  0.0608
  147SAPE   O1316146   2.211   6.074   5.589  0.1003  0.1310 -0.3548
  147SAPE   O1416147   2.180   6.292   5.717  0.2017 -0.4039  0.0961
  147SAPE   O1216148   1.988   6.146   5.652  0.1207  0.3507 -0.4193
  147SAPE   O1116149   2.159   6.075   5.830  0.3972 -0.2087  1.1317
  147SAPE    C116150   2.060   6.078   5.932 -0.0136  0.3193 -0.6452
  147SAPE    HA16151   2.056   6.178   5.980 -0.5434  0.9918 -2.0282
  147SAPE    HB16152   1.960   6.047   5.894 -0.7686  1.1882  0.5824
  147SAPE    C216153   2.101   5.969   6.038  0.2178 -0.1154 -0.2293
  147SAPE    HS16154   2.052   5.875   6.006  3.2804 -3.3108  3.3842
  147SAPE   O2116155   2.068   6.009   6.177  0.0761 -0.0704  0.2305
  147SAPE   C2116156   1.941   6.029   6.209  0.0420 -0.0170  0.0114
  147SAPE   O2216157   1.850   6.011   6.130  0.4781 -0.2011 -0.5625
  147SAPE   C2216158   1.932   6.072   6.355  0.6902  0.1973 -0.2094
  147SAPE   H2R16159   1.964   5.976   6.401  0.4615 -0.6662 -1.7975
  147SAPE   H2S16160   2.018   6.137   6.384  1.3701 -0.4383 -0.7426
  147SAPE    C316161   2.258   5.926   6.028  0.0616 -0.2973  0.2254
  147SAPE    HX16162   2.304   6.027   6.028 -2.1517  0.8328 -2.2716
  147SAPE    HY16163   2.267   5.881   5.927 -2.3025 -0.4278  0.0133
  147SAPE   O3116164   2.305   5.841   6.137  0.7077 -0.5135  0.2174
  147SAPE   C3116165   2.259   5.720   6.132  0.0174  0.4708 -0.3283
  147SAPE   O3216166   2.192   5.676   6.043  0.4154 -0.2497 -0.1014
  147SAPE   C3216167   2.322   5.647   6.253 -0.2961 -0.3042 -0.3803
  147SAPE   H2X16168   2.400   5.705   6.306 -0.6301 -0.4933  0.3339
  147SAPE   H2Y16169   2.376   5.562   6.205  0.4799 -0.3786  0.5745
  147SAPE   C2316170   1.797   6.136   6.391 -0.5152  0.7291  0.3583
  147SAPE   H3R16171   1.726   6.055   6.363  1.1492 -0.8680  0.5860
  147SAPE   H3S16172   1.787   6.225   6.326  1.4023 -0.4169 -1.6375
  147SAPE   C2416173   1.787   6.178   6.535  0.1175  0.6826  0.0569
  147SAPE   H4R16174   1.827   6.097   6.601 -0.0694  0.9661  0.5258
  147SAPE   H4S16175   1.681   6.194   6.565  0.7033  2.6915  1.2537
  147SAPE   C2516176   1.872   6.303   6.571  0.0201 -0.5476  0.3417
  147SAPE   H5R16177   1.861   6.383   6.496 -0.1901 -2.0499 -1.3037
  147SAPE   C2616178   1.969   6.314   6.666  0.1270  0.2262  0.4375
  147SAPE   H6R16179   2.033   6.403   6.665 -0.0230  0.3327  0.0121
  147SAPE   C2716180   2.013   6.216   6.773 -0.3305  0.0233  0.2063
  147SAPE   H7R16181   1.947   6.126   6.769 -0.1984 -0.0655  0.0432
  147SAPE   H7S16182   1.996   6.262   6.872 -0.1261 -0.7428  0.6000
  147SAPE   C2816183   2.157   6.179   6.755 -0.1766  0.0043  0.4174
  147SAPE   H8R16184   2.165   6.093   6.687  0.7346  1.5525 -1.5135
  147SAPE   C2916185   2.264   6.223   6.817 -0.1546  0.0569 -0.1576
  147SAPE   H9R16186   2.364   6.192   6.783 -0.7116  0.2114 -1.9865
  147SAPE  C21016187   2.262   6.322   6.927 -0.3097  0.5202  0.2606
  147SAPE  H10R16188   2.160   6.324   6.971 -0.4789  0.8482 -0.1325
  147SAPE  H10S16189   2.288   6.421   6.883  2.3417 -0.1785  0.0756
  147SAPE  C21116190   2.376   6.286   7.022 -0.3882 -0.6390 -0.3289
  147SAPE  H11R16191   2.478   6.273   6.984  0.3183  0.2622  1.1350
  147SAPE  C21216192   2.361   6.271   7.152  0.0347 -0.2612 -0.0745
  147SAPE  H12R16193   2.444   6.240   7.217  0.3142  2.7826  1.1698
  147SAPE  C21316194   2.243   6.286   7.243 -0.2729 -0.2624 -0.1702
  147SAPE  H13R16195   2.263   6.234   7.339  0.2239  1.8949  0.9546
  147SAPE  H13S16196   2.154   6.237   7.196 -1.2419 -1.1595  2.4133
  147SAPE  C21416197   2.213   6.438   7.256 -0.7724 -0.0570 -0.0339
  147SAPE  H14R16198   2.244   6.492   7.166  1.2069 -0.1054  0.5606
  147SAPE  C21516199   2.179   6.500   7.371  0.0054 -0.6782  0.5642
  147SAPE  H15R16200   2.173   6.609   7.371  1.2458 -0.5927 -0.1150
  147SAPE  C21616201   2.138   6.439   7.504 -0.7822 -0.5379  0.2286
  147SAPE  H16R16202   2.108   6.334   7.484  0.3200 -0.9814  0.8271
  147SAPE  H16S16203   2.050   6.497   7.538  0.0563  1.0598 -0.2479
  147SAPE  C21716204   2.254   6.448   7.610 -0.6945  0.0300  0.3000
  147SAPE  H17R16205   2.333   6.394   7.554 -0.8725 -0.6076  0.6533
  147SAPE  H17S16206   2.213   6.397   7.700 -3.8016  2.1985  0.2601
  147SAPE  C21816207   2.293   6.594   7.645 -0.8533 -0.3933  0.0803
  147SAPE  H18R16208   2.306   6.650   7.550  0.2323 -2.5038 -1.0831
  147SAPE  H18S16209   2.394   6.609   7.690 -0.6894  3.2028 -1.1749
  147SAPE  C21916210   2.196   6.667   7.739  0.9536 -0.6730  0.1723
  147SAPE  H19R16211   2.201   6.626   7.843 -1.7658  0.6109  0.8982
  147SAPE  H19S16212   2.091   6.644   7.712  1.3011  0.8160 -2.7011
  147SAPE  C22016213   2.208   6.817   7.743 -0.6196 -0.4839  0.2016
  147SAPE  H20R16214   2.202   6.867   7.644 -0.6791  0.0617  0.4738
  147SAPE  H20S16215   2.315   6.828   7.770  0.1371  1.9398 -3.1357
  147SAPE  H20T16216   2.136   6.865   7.813 -0.1557  2.6260 -1.2950
  147SAPE   C3316217   2.207   5.598   6.346 -0.0703  0.1845  0.6311
  147SAPE   H3X16218   2.178   5.493   6.322 -0.6316 -0.0981  2.4200
  147SAPE   H3Y16219   2.120   5.663   6.323  0.6965  0.5654 -1.3884
  147SAPE   C3416220   2.243   5.625   6.496  0.5799  0.3222 -0.5315
  147SAPE   H4X16221   2.290   5.723   6.517 -0.7275  0.2582  3.6289
  147SAPE   H4Y16222   2.315   5.544   6.522  0.1629 -0.2763 -1.2020
  147SAPE   C3516223   2.121   5.616   6.590 -0.9653 -0.0297 -0.3509
  147SAPE   H5X16224   2.150   5.594   6.696 -0.7992 -1.5221 -0.6804
  147SAPE   H5Y16225   2.059   5.533   6.551 -1.0402  1.5999 -4.0335
  147SAPE   C3616226   2.048   5.745   6.588 -0.0239 -0.6119  0.5105
  147SAPE   H6X16227   1.987   5.741   6.496  1.3317 -1.8744 -0.3777
  147SAPE   H6Y16228   2.112   5.836   6.596  1.1267 -1.3163 -0.5015
  147SAPE   C3716229   1.946   5.769   6.698  0.2367 -0.0660 -0.4501
  147SAPE   H7X16230   1.914   5.875   6.687  1.1590  0.3841  0.8798
  147SAPE   H7Y16231   1.991   5.770   6.800  0.3038 -0.9253 -0.4686
  147SAPE   C3816232   1.836   5.656   6.688  0.4134  0.1700 -0.2151
  147SAPE   H8X16233   1.885   5.558   6.702  1.3747  0.3080 -2.2421
  147SAPE   H8Y16234   1.790   5.670   6.587  0.5646  3.5587  0.0508
  147SAPE   C3916235   1.721   5.661   6.792  0.5753  0.4144 -0.3504
  147SAPE   H9X16236   1.656   5.571   6.790  0.8222  0.1897 -3.3646
  147SAPE   H9Y16237   1.663   5.756   6.787 -0.1940  0.2577  2.9141
  147SAPE  C31016238   1.773   5.664   6.926 -0.9271 -0.6991  0.1629
  147SAPE  H10X16239   1.684   5.650   6.990 -2.9685 -0.7157 -2.4844
  147SAPE  H10Y16240   1.802   5.771   6.934 -2.5871 -0.2304  0.3072
  147SAPE  C31116241   1.875   5.558   6.958 -0.3598 -0.2177 -0.2737
  147SAPE  H11X16242   1.966   5.592   6.904 -2.1930  1.0725 -2.7115
  147SAPE  H11Y16243   1.862   5.456   6.916  2.4140 -1.3005  1.2556
  147SAPE  C31216244   1.904   5.541   7.114  0.6805 -0.4084  0.0723
  147SAPE  H12X16245   1.931   5.631   7.173 -2.1419 -0.9857  2.4584
  147SAPE  H12Y16246   2.001   5.485   7.115  1.0341  0.0770 -2.0830
  147SAPE  C31316247   1.790   5.468   7.185 -0.3991 -0.4246  0.2707
  147SAPE  H13X16248   1.781   5.373   7.128  1.8790  0.2783 -1.3937
  147SAPE  H13Y16249   1.704   5.537   7.171 -2.0339 -1.7037  3.1010
  147SAPE  C31416250   1.821   5.462   7.336 -0.3138  0.4168 -0.5018
  147SAPE  H14X16251   1.806   5.561   7.383 -0.1128  0.1314  0.1785
  147SAPE  H14Y16252   1.920   5.414   7.349 -1.3996 -2.5623 -2.2453
  147SAPE  C31516253   1.710   5.375   7.409  0.9771 -0.1092  0.1200
  147SAPE  H15X16254   1.721   5.273   7.366  0.4661  0.7586 -2.2036
  147SAPE  H15Y16255   1.613   5.421   7.382  0.5184 -0.1761  1.5818
  147SAPE  C31616256   1.731   5.367   7.559 -0.1112  0.3763  0.2515
  147SAPE  H16X16257   1.749   5.463   7.611 -2.2038 -0.2661  2.3581
  147SAPE  H16Y16258   1.829   5.317   7.573  1.2813  2.8890 -0.0983
  147SAPE  C31716259   1.619   5.294   7.642 -0.2334 -0.1407  0.4721
  147SAPE  H17X16260   1.589   5.199   7.593  1.8970 -0.0656 -1.1294
  147SAPE  H17Y16261   1.528   5.358   7.641 -0.4184 -0.3982 -0.5674
  147SAPE  C31816262   1.662   5.267   7.791 -0.0057  0.1208 -0.6194
  147SAPE  H18X16263   1.665   5.363   7.845 -0.8294 -0.8934  1.3176
  147SAPE  H18Y16264   1.762   5.219   7.783  0.6753  1.0052  1.8628
  147SAPE  H18Z16265   1.596   5.191   7.839 -2.2204  1.0073 -2.0974
  148SAPE     N16266   2.876   4.391   5.970  0.2967 -0.0951  0.2541
  148SAPE   HN116267   2.938   4.338   5.905 -0.9515 -0.8582 -0.3484
  148SAPE   HN216268   2.818   4.436   5.897  0.1552 -0.4731  0.1283
  148SAPE   HN316269   2.935   4.462   6.018 -0.4920 -0.3142  1.5959
  148SAPE   C1216270   2.794   4.309   6.067 -0.8651  0.3585  0.5658
  148SAPE  H12A16271   2.718   4.374   6.116  0.4419  0.6625  2.2463
  148SAPE  H12B16272   2.869   4.259   6.131 -1.2882 -1.7806 -0.5141
  148SAPE   C1116273   2.729   4.185   5.990 -0.6322  0.3806 -0.1934
  148SAPE  H11A16274   2.632   4.215   5.944 -0.9320  0.7898  0.6882
  148SAPE  H11B16275   2.704   4.113   6.071 -1.1283  1.6978  0.8599
  148SAPE     P16276   2.783   3.987   5.827  0.0398 -0.1541  0.2557
  148SAPE   O1316277   2.655   4.001   5.758  0.2883  0.2071 -0.0047
  148SAPE   O1416278   2.895   3.948   5.736 -0.1799  0.1599 -0.2110
  148SAPE   O1216279   2.817   4.126   5.894  0.7813 -0.1916  0.0430
  148SAPE   O1116280   2.763   3.893   5.954 -0.2829 -0.5721  0.7049
  148SAPE    C116281   2.875   3.854   6.030  0.0924  1.1006  0.2101
  148SAPE    HA16282   2.923   3.772   5.973 -1.2443 -3.2493  4.6130
  148SAPE    HB16283   2.952   3.932   6.049  1.9320 -0.4454 -0.5092
  148SAPE    C216284   2.842   3.791   6.169  0.0603  0.5076 -0.5233
  148SAPE    HS16285   2.810   3.685   6.157  1.1872  0.2302 -1.3083
  148SAPE   O2116286   2.749   3.873   6.244 -0.0700 -0.0484  0.1113
  148SAPE   C2116287   2.673   3.808   6.333 -0.1518  0.2861  0.1596
  148SAPE   O2216288   2.676   3.686   6.352 -0.2817 -0.0351  0.5817
  148SAPE   C2216289   2.603   3.902   6.427 -0.0273  0.0131 -0.9579
  148SAPE   H2R16290   2.678   3.964   6.480 -1.6878  1.3525 -0.0917
  148SAPE   H2S16291   2.527   3.967   6.379  1.2072  1.8085 -0.5629
  148SAPE    C316292   2.977   3.775   6.242 -0.9483 -0.0532 -0.2841
  148SAPE    HX16293   3.024   3.875   6.248 -1.5999  0.2133  0.6687
  148SAPE    HY16294   3.043   3.716   6.175 -1.0476 -2.5767  1.6815
  148SAPE   O3116295   2.969   3.704   6.372  0.2642 -0.5432 -0.4386
  148SAPE   C3116296   2.964   3.776   6.479  0.5381 -0.6524 -1.1561
  148SAPE   O3216297   2.960   3.897   6.489  0.1433 -0.4543 -0.0180
  148SAPE   C3216298   2.958   3.688   6.605  0.1793 -0.6057  0.5089
  148SAPE   H2X16299   3.051   3.627   6.606  1.1726  0.7508 -1.3551
  148SAPE   H2Y16300   2.871   3.620   6.598  1.0353 -1.5760 -1.4135
  148SAPE   C2316301   2.532   3.814   6.541 -0.4446 -0.0749  0.2699
  148SAPE   H3R16302   2.616   3.771   6.599 -0.2157  1.4912  1.1586
  148SAPE   H3S16303   2.476   3.729   6.497  1.3315  0.1002 -2.6317
  148SAPE   C2416304   2.433   3.898   6.628 -0.4017  0.5538  0.7436
  148SAPE   H4R16305   2.489   3.982   6.676  1.7956 -0.3144 -0.1630
  148SAPE   H4S16306   2.392   3.827   6.703 -0.8287 -0.1005 -0.0882
  148SAPE   C2516307   2.317   3.953   6.546 -0.0087 -0.1251 -0.5289
  148SAPE   H5R16308   2.337   4.044   6.488 -0.6645  0.3814  0.0271
  148SAPE   C2616309   2.192   3.914   6.556  0.4071  0.1226  0.1815
  148SAPE   H6R16310   2.114   3.980   6.515  2.0344  1.8906 -0.2061
  148SAPE   C2716311   2.129   3.806   6.639 -0.5105 -0.0403 -0.8337
  148SAPE   H7R16312   2.085   3.848   6.732 -1.7551 -1.9283 -0.5239
  148SAPE   H7S16313   2.206   3.730   6.666 -0.2707  0.6831  0.6098
  148SAPE   C2816314   2.027   3.722   6.576  0.1173  0.2961  0.3896
  148SAPE   H8R16315   2.067   3.655   6.499 -1.2117  0.3059 -0.3356
  148SAPE   C2916316   1.895   3.716   6.605  0.9417  0.1319  0.1897
  148SAPE   H9R16317   1.834   3.654   6.538  0.1879 -1.4641  2.2237
  148SAPE  C21016318   1.813   3.807   6.698  0.0708 -0.5440 -0.0306
  148SAPE  H10R16319   1.847   3.795   6.803  1.9548  1.9026 -0.2679
  148SAPE  H10S16320   1.707   3.775   6.691 -1.3487  3.6997 -1.0982
  148SAPE  C21116321   1.821   3.953   6.653 -0.1420  0.1972  0.3645
  148SAPE  H11R16322   1.889   3.982   6.572 -0.6335  1.2466  0.3121
  148SAPE  C21216323   1.772   4.058   6.720  0.1551 -0.6833 -0.2070
  148SAPE  H12R16324   1.766   4.157   6.671 -1.4347 -0.6967 -0.0843
  148SAPE  C21316325   1.713   4.052   6.865 -0.7416  0.4186 -0.1317
  148SAPE  H13R16326   1.790   3.995   6.923  0.2553  1.6389 -0.2171
  148SAPE  H13S16327   1.622   3.988   6.866  1.1978 -2.5489 -1.3256
  148SAPE  C21416328   1.674   4.183   6.926  0.4821  0.1770 -0.3827
  148SAPE  H14R16329   1.605   4.236   6.858  3.1017  0.7339 -2.8091
  148SAPE  C21516330   1.713   4.248   7.039  0.0090  1.0225 -0.4175
  148SAPE  H15R16331   1.667   4.346   7.054  0.2200  1.2132 -0.9878
  148SAPE  C21616332   1.811   4.203   7.140 -0.3894  0.4311 -0.5315
  148SAPE  H16R16333   1.825   4.093   7.142 -0.6448  0.3386 -2.6259
  148SAPE  H16S16334   1.780   4.232   7.243  2.0796 -0.3721  0.5332
  148SAPE  C21716335   1.949   4.278   7.132 -0.7996  0.2726 -0.3791
  148SAPE  H17R16336   2.011   4.251   7.220 -1.3439 -0.3210 -0.1608
  148SAPE  H17S16337   1.942   4.388   7.133  2.5454  0.6198 -2.1068
  148SAPE  C21816338   2.036   4.240   7.010 -0.6800  0.2633  0.0840
  148SAPE  H18R16339   2.125   4.304   7.026 -0.4292 -0.0769  0.0443
  148SAPE  H18S16340   1.997   4.250   6.906  1.1773 -0.6409 -0.7332
  148SAPE  C21916341   2.097   4.107   7.008 -0.6241  0.2762 -0.2447
  148SAPE  H19R16342   2.027   4.021   6.999  2.1681 -2.4253  1.7309
  148SAPE  H19S16343   2.134   4.079   7.109 -3.0029 -0.8968  0.3777
  148SAPE  C22016344   2.199   4.082   6.899 -0.6647 -0.0295  0.3805
  148SAPE  H20R16345   2.275   4.164   6.899  1.4872 -1.8762 -1.2292
  148SAPE  H20S16346   2.145   4.081   6.802  0.5883 -0.4578 -0.3319
  148SAPE  H20T16347   2.255   3.987   6.913 -0.6469  0.0535  0.8789
  148SAPE   C3316348   2.937   3.773   6.730 -0.4342 -0.3600 -0.0158
  148SAPE   H3X16349   2.836   3.821   6.735  0.3308  1.4133 -0.7735
  148SAPE   H3Y16350   3.001   3.862   6.717 -1.2460 -0.0410 -2.2685
  148SAPE   C3416351   2.964   3.689   6.859  0.7182 -0.3045  0.4255
  148SAPE   H4X16352   3.073   3.673   6.842  1.0355  1.9685  0.0281
  148SAPE   H4Y16353   2.893   3.606   6.877 -0.5246  0.3767 -1.1612
  148SAPE   C3516354   2.970   3.757   6.995 -0.2957 -0.1244 -0.0291
  148SAPE   H5X16355   2.877   3.742   7.053  1.1587 -0.8037  2.2564
  148SAPE   H5Y16356   2.983   3.866   6.981  1.1196 -0.2087  0.4587
  148SAPE   C3616357   3.079   3.704   7.092  0.2563 -0.5661 -0.1606
  148SAPE   H6X16358   3.102   3.778   7.172 -0.4983 -0.6906  0.1748
  148SAPE   H6Y16359   3.171   3.680   7.034 -0.2485 -0.3444 -1.0864
  148SAPE   C3716360   3.026   3.584   7.162 -0.1820 -0.1702 -0.0393
  148SAPE   H7X16361   3.036   3.489   7.105 -1.3223 -0.7253  0.6525
  148SAPE   H7Y16362   2.922   3.606   7.193 -0.4827 -0.1628 -0.9976
  148SAPE   C3816363   3.099   3.550   7.284 -0.0813  0.3650 -0.3697
  148SAPE   H8X16364   3.057   3.608   7.369  0.4660 -0.0962  0.2220
  148SAPE   H8Y16365   3.204   3.587   7.277  0.1921 -0.5610 -1.5567
  148SAPE   C3916366   3.114   3.406   7.336 -0.3691  0.1968 -0.0757
  148SAPE   H9X16367   3.021   3.353   7.304 -0.2115 -1.0443  1.4107
  148SAPE   H9Y16368   3.113   3.407   7.447 -0.4052 -1.6802 -0.0335
  148SAPE  C31016369   3.243   3.338   7.294 -0.0054  0.2023  0.4314
  148SAPE  H10X16370   3.321   3.413   7.271  0.3732 -0.8246 -1.8501
  148SAPE  H10Y16371   3.231   3.275   7.203  0.9292 -1.3559  1.3322
  148SAPE  C31116372   3.292   3.240   7.403  0.3410  0.1744  0.3494
  148SAPE  H11X16373   3.385   3.192   7.366  1.3195  2.3025 -0.0777
  148SAPE  H11Y16374   3.213   3.163   7.417 -0.0632  0.6130  0.4935
  148SAPE  C31216375   3.326   3.295   7.545 -0.1837  0.0476  0.4223
  148SAPE  H12X16376   3.253   3.370   7.583  0.3362  0.8634 -0.1509
  148SAPE  H12Y16377   3.424   3.341   7.521 -1.5129  2.0723 -1.5154
  148SAPE  C31316378   3.346   3.194   7.661 -0.4656  0.2607 -0.7194
  148SAPE  H13X16379   3.402   3.107   7.622 -1.2335  0.3477 -2.1122
  148SAPE  H13Y16380   3.249   3.144   7.682 -0.0790  0.5143  1.9324
  148SAPE  C31416381   3.401   3.249   7.795 -0.6651  0.6853  0.4193
  148SAPE  H14X16382   3.367   3.173   7.868  2.2913  0.3202  1.5577
  148SAPE  H14Y16383   3.371   3.350   7.831 -0.0267  1.4481 -1.1063
  148SAPE  C31516384   3.556   3.263   7.778  0.3509 -0.4535 -0.7225
  148SAPE  H15X16385   3.575   3.339   7.699  0.1537 -0.5964 -0.9078
  148SAPE  H15Y16386   3.598   3.177   7.721 -0.9411 -1.1190 -0.7095
  148SAPE  C31616387   3.633   3.300   7.903 -0.3451  0.0875 -0.4576
  148SAPE  H16X16388   3.577   3.364   7.975  0.9184 -1.7090  2.2746
  148SAPE  H16Y16389   3.727   3.353   7.878 -0.7472  0.8713 -0.3789
  148SAPE  C31716390   3.653   3.178   7.998 -0.0834 -0.0794  0.4623
  148SAPE  H17X16391   3.723   3.105   7.953 -0.3689 -1.9699  2.8730
  148SAPE  H17Y16392   3.559   3.123   8.022  0.1039 -0.6462 -0.0770
  148SAPE  C31816393   3.721   3.217   8.133  1.0705 -0.2020 -0.2496
  148SAPE  H18X16394   3.757   3.119   8.170  3.3298  0.2451 -1.0926
  148SAPE  H18Y16395   3.654   3.261   8.210  2.1303 -0.0154  0.5792
  148SAPE  H18Z16396   3.811   3.279   8.118  1.0477 -0.1638 -0.2280
  149SAPE     N16397   3.108   3.246   6.281 -0.0794 -0.2022  0.2018
  149SAPE   HN116398   3.169   3.205   6.354 -2.2559  0.9439  2.8637
  149SAPE   HN216399   3.046   3.313   6.332  2.4109  1.4815  1.2036
  149SAPE   HN316400   3.048   3.173   6.237  1.8294 -1.3542 -0.5675
  149SAPE   C1216401   3.170   3.332   6.183  0.4118 -0.5360 -0.1990
  149SAPE  H12A16402   3.229   3.408   6.239  1.6438 -0.9247 -0.9140
  149SAPE  H12B16403   3.090   3.372   6.117 -0.5378 -1.2418  0.4987
  149SAPE   C1116404   3.269   3.248   6.098 -0.0024 -0.5836  0.6289
  149SAPE  H11A16405   3.300   3.315   6.014 -2.4587  0.0592  0.1482
  149SAPE  H11B16406   3.222   3.161   6.048  1.0997 -1.3145  0.8420
  149SAPE     P16407   3.535   3.209   6.139  0.1289  0.1865 -0.2097
  149SAPE   O1316408   3.591   3.080   6.100 -0.3412 -0.7062  0.2783
  149SAPE   O1416409   3.565   3.334   6.066 -0.6306 -0.3922 -0.2268
  149SAPE   O1216410   3.383   3.197   6.171 -0.1850  0.4787 -0.7150
  149SAPE   O1116411   3.594   3.234   6.290  0.2899 -0.1763 -0.4551
  149SAPE    C116412   3.530   3.153   6.388  0.0112  0.6330  0.2391
  149SAPE    HA16413   3.461   3.222   6.440 -2.0946 -1.7849  0.8551
  149SAPE    HB16414   3.486   3.055   6.359  2.5121 -0.8445  1.0874
  149SAPE    C216415   3.633   3.109   6.494 -0.3079 -0.6542  0.1322
  149SAPE    HS16416   3.581   3.103   6.593  0.4656 -2.4022  0.4720
  149SAPE   O2116417   3.730   3.213   6.505  0.1879  0.2931 -0.5330
  149SAPE   C2116418   3.699   3.319   6.571  0.7579  0.2857 -0.3390
  149SAPE   O2216419   3.597   3.351   6.632  0.6490 -0.2851  0.1350
  149SAPE   C2216420   3.812   3.421   6.562 -0.4074  0.6133 -0.6775
  149SAPE   H2R16421   3.802   3.468   6.462  1.2749 -0.4002 -1.3745
  149SAPE   H2S16422   3.775   3.496   6.635  1.4200  0.5602  0.3592
  149SAPE    C316423   3.699   2.979   6.454  0.2318  0.2214  0.8760
  149SAPE    HX16424   3.741   3.001   6.354 -1.5608  2.0248  0.4692
  149SAPE    HY16425   3.618   2.905   6.439 -0.0222  0.3141  1.7267
  149SAPE   O3116426   3.784   2.931   6.559 -0.0867  0.1749 -0.1954
  149SAPE   C3116427   3.912   2.913   6.521  0.0946 -0.4784 -0.1697
  149SAPE   O3216428   3.954   2.915   6.410 -0.1373  0.9129  0.1875
  149SAPE   C3216429   3.989   2.891   6.656 -0.2991  0.2933 -0.0796
  149SAPE   H2X16430   4.066   2.971   6.655 -1.0453  1.0514  1.0899
  149SAPE   H2Y16431   4.052   2.801   6.637  1.1906  1.0503  1.0528
  149SAPE   C2316432   3.957   3.370   6.582  0.0005  0.0834 -0.1420
  149SAPE   H3R16433   4.033   3.441   6.542 -0.9475  0.6542 -0.9713
  149SAPE   H3S16434   3.971   3.282   6.515  2.0670  0.0331  0.3037
  149SAPE   C2416435   3.977   3.313   6.720  0.7295  0.2539  0.1352
  149SAPE   H4R16436   3.896   3.239   6.737  0.3117  0.7284  0.2237
  149SAPE   H4S16437   3.980   3.384   6.806  1.0011  1.5781 -0.9484
  149SAPE   C2516438   4.105   3.241   6.733 -0.0914  0.0823  0.1725
  149SAPE   H5R16439   4.117   3.153   6.667 -3.5215 -1.7633  1.7315
  149SAPE   C2616440   4.219   3.280   6.795 -0.0570  0.2042  0.3412
  149SAPE   H6R16441   4.303   3.208   6.799 -0.7231 -0.6940 -0.9491
  149SAPE   C2716442   4.240   3.405   6.878 -0.1278 -0.0075 -0.7721
  149SAPE   H7R16443   4.206   3.496   6.825 -1.1454  0.8942  1.2928
  149SAPE   H7S16444   4.351   3.419   6.876 -0.3280  1.9385 -3.1104
  149SAPE   C2816445   4.192   3.403   7.023 -0.0017  0.0252 -0.4565
  149SAPE   H8R16446   4.199   3.311   7.083 -3.0951  1.0267  1.6554
  149SAPE   C2916447   4.134   3.505   7.089  0.4697 -0.4040 -0.4507
  149SAPE   H9R16448   4.123   3.498   7.198 -0.0195  0.7755 -0.4114
  149SAPE  C21016449   4.101   3.638   7.033  0.1040  0.1467  0.2132
  149SAPE  H10R16450   4.024   3.686   7.098 -0.4480  0.2631 -0.5217
  149SAPE  H10S16451   4.055   3.611   6.936  0.6450 -1.2184  0.3053
  149SAPE  C21116452   4.223   3.729   7.007 -0.5705  0.8482  1.0382
  149SAPE  H11R16453   4.271   3.714   6.909  0.3481 -0.3954  1.6491
  149SAPE  C21216454   4.281   3.806   7.097  0.4641 -0.7966 -0.5417
  149SAPE  H12R16455   4.370   3.865   7.072  0.5762 -0.8810 -0.3386
  149SAPE  C21316456   4.221   3.821   7.236  0.4183  0.2161  0.1391
  149SAPE  H13R16457   4.160   3.739   7.278 -0.3888  1.1548  0.8424
  149SAPE  H13S16458   4.155   3.910   7.227  1.0602  0.8454  1.4074
  149SAPE  C21416459   4.335   3.839   7.329 -0.6473  0.0784  0.9384
  149SAPE  H14R16460   4.426   3.793   7.288 -2.3477 -1.0478 -1.8599
  149SAPE  C21516461   4.337   3.889   7.453 -0.6296  0.0585 -0.0887
  149SAPE  H15R16462   4.435   3.900   7.503 -0.2914 -1.6026 -0.3103
  149SAPE  C21616463   4.215   3.949   7.520 -1.2283  0.4677 -0.4838
  149SAPE  H16R16464   4.131   3.880   7.542 -1.7615  1.2918  0.1890
  149SAPE  H16S16465   4.173   4.033   7.460 -1.5812 -0.9124 -2.2354
  149SAPE  C21716466   4.262   4.004   7.655 -0.3885  0.3944 -0.5563
  149SAPE  H17R16467   4.186   4.078   7.688 -0.8641 -0.9396  1.5336
  149SAPE  H17S16468   4.348   4.074   7.659 -1.2938  1.5153  3.4148
  149SAPE  C21816469   4.276   3.899   7.761  0.1639 -0.0573 -1.1772
  149SAPE  H18R16470   4.303   3.803   7.714 -1.0502 -0.9463 -0.1396
  149SAPE  H18S16471   4.182   3.883   7.818  0.9590  0.1621  0.2453
  149SAPE  C21916472   4.381   3.933   7.870  0.5649  0.7512  0.9950
  149SAPE  H19R16473   4.484   3.944   7.830 -0.0690 -0.2470 -1.0329
  149SAPE  H19S16474   4.388   3.852   7.946  2.6159  1.2460  1.3999
  149SAPE  C22016475   4.346   4.066   7.942 -0.8437 -0.0146 -0.0524
  149SAPE  H20R16476   4.248   4.067   7.994 -1.5598  0.9878 -1.3566
  149SAPE  H20S16477   4.352   4.158   7.880 -1.6984  0.4462  0.5341
  149SAPE  H20T16478   4.425   4.093   8.016 -1.1275 -0.5631  0.4606
  149SAPE   C3316479   3.909   2.894   6.784 -0.6689  0.3993 -0.3941
  149SAPE   H3X16480   3.824   2.822   6.780  0.1681 -0.6452 -0.0386
  149SAPE   H3Y16481   3.863   2.993   6.804 -0.8924  0.6179 -1.9387
  149SAPE   C3416482   3.994   2.864   6.912 -0.7088 -0.1844  0.1419
  149SAPE   H4X16483   4.076   2.939   6.918 -0.1772 -0.6262 -1.1542
  149SAPE   H4Y16484   4.046   2.766   6.908  0.1667  0.2902 -0.4587
  149SAPE   C3516485   3.901   2.842   7.037 -0.1433 -0.0646  0.0696
  149SAPE   H5X16486   3.872   2.735   7.032 -0.5560  0.0947 -1.1507
  149SAPE   H5Y16487   3.809   2.902   7.019 -1.9905 -2.9516 -0.8694
  149SAPE   C3616488   3.968   2.883   7.170 -0.1602 -0.1329 -0.3680
  149SAPE   H6X16489   3.993   2.991   7.177 -2.4919  0.4243  0.6395
  149SAPE   H6Y16490   4.058   2.818   7.177  1.5106  1.9273 -1.6455
  149SAPE   C3716491   3.879   2.851   7.290 -0.5797 -0.4316  0.1647
  149SAPE   H7X16492   3.830   2.752   7.282 -0.1968 -0.5088 -1.6640
  149SAPE   H7Y16493   3.790   2.916   7.301 -1.2631 -1.2002 -0.7164
  149SAPE   C3816494   3.952   2.861   7.418 -0.1832  0.0336  0.2159
  149SAPE   H8X16495   3.996   2.962   7.429 -0.1064  0.3142 -2.1691
  149SAPE   H8Y16496   4.027   2.780   7.423  1.3897  1.2010 -2.4921
  149SAPE   C3916497   3.850   2.820   7.530  0.3917  0.1144  0.3551
  149SAPE   H9X16498   3.795   2.732   7.489  0.0738  0.3140  0.3572
  149SAPE   H9Y16499   3.765   2.887   7.553 -0.2681 -0.2696 -0.8931
  149SAPE  C31016500   3.909   2.770   7.664 -0.0228  0.0900 -0.1414
  149SAPE  H10X16501   3.996   2.702   7.653 -0.3922 -0.5280  0.6549
  149SAPE  H10Y16502   3.829   2.710   7.712 -0.0573 -1.3520 -1.8783
  149SAPE  C31116503   3.936   2.893   7.753 -0.2009 -0.5859  0.0098
  149SAPE  H11X16504   3.847   2.959   7.742 -0.7369 -0.8401  2.3090
  149SAPE  H11Y16505   4.024   2.948   7.714  0.3885  0.5545  2.6679
  149SAPE  C31216506   3.956   2.862   7.902  0.7487 -0.6288  0.2914
  149SAPE  H12X16507   3.971   2.960   7.953  2.3266 -2.0965  2.8203
  149SAPE  H12Y16508   4.057   2.815   7.904  0.2421 -2.4583 -4.2006
  149SAPE  C31316509   3.824   2.804   7.969  0.0009 -0.4523  0.3813
  149SAPE  H13X16510   3.802   2.703   7.928 -0.0207  0.2893 -1.5160
  149SAPE  H13Y16511   3.738   2.863   7.931 -0.6059 -0.6748  1.3639
  149SAPE  C31416512   3.829   2.805   8.125  0.4490  0.7494 -0.0455
  149SAPE  H14X16513   3.734   2.774   8.174  0.4944 -1.0927 -1.0108
  149SAPE  H14Y16514   3.856   2.910   8.145  2.3981 -0.0737  2.0077
  149SAPE  C31516515   3.942   2.731   8.193  0.0616  0.7884 -0.0636
  149SAPE  H15X16516   3.968   2.783   8.287  1.0833  0.4883 -0.1637
  149SAPE  H15Y16517   4.037   2.727   8.135 -0.4399  1.9881 -1.0289
  149SAPE  C31616518   3.907   2.588   8.216  1.0937 -0.1447  0.2448
  149SAPE  H16X16519   3.895   2.530   8.122  1.5616  0.3456 -0.1193
  149SAPE  H16Y16520   3.816   2.566   8.276  1.8274  1.7183  2.1673
  149SAPE  C31716521   4.025   2.525   8.289 -0.0608  0.6275  0.0962
  149SAPE  H17X16522   4.116   2.549   8.230  2.1492 -1.8490  2.2202
  149SAPE  H17Y16523   4.025   2.414   8.282  2.4416  0.6593 -2.9586
  149SAPE  C31816524   4.044   2.585   8.426 -0.1629 -0.2581  0.3117
  149SAPE  H18X16525   3.972   2.665   8.453  1.4253  0.3401  3.2392
  149SAPE  H18Y16526   4.144   2.633   8.439 -0.5109 -0.0968  3.1894
  149SAPE  H18Z16527   4.047   2.508   8.506 -0.6987  1.2634  1.8918
  150SAPE     N16528   0.085   0.416   5.949  0.0944 -0.1914  0.8099
  150SAPE   HN116529  -0.013   0.428   5.915  0.3716 -0.9299 -0.3246
  150SAPE   HN216530   0.141   0.503   5.961  2.4300 -1.2136 -1.5378
  150SAPE   HN316531   0.131   0.369   5.868 -2.8163  1.2315 -1.8596
  150SAPE   C1216532   0.081   0.340   6.076  0.1252  0.0997  0.5160
  150SAPE  H12A16533   0.019   0.255   6.042 -0.7215 -0.0497  2.3475
  150SAPE  H12B16534   0.027   0.400   6.152  0.3639  0.2140  0.5966
  150SAPE   C1116535   0.220   0.294   6.122 -0.7194  0.1323  0.4512
  150SAPE  H11A16536   0.224   0.260   6.228  1.8934 -0.6421  0.1823
  150SAPE  H11B16537   0.279   0.387   6.136 -1.7008  0.7247  0.7685
  150SAPE     P16538   0.251   0.040   6.094  0.3511  0.0657  0.1850
  150SAPE   O1316539   0.107   0.025   6.098 -0.2397 -0.3457  0.2104
  150SAPE   O1416540   0.325  -0.044   6.004 -0.0588 -0.2056  0.2287
  150SAPE   O1216541   0.280   0.192   6.043 -0.0953 -0.3344 -0.4550
  150SAPE   O1116542   0.315   0.031   6.235 -0.1565 -0.1401 -0.0630
  150SAPE    C116543   0.451   0.021   6.265 -0.4025  0.3444  1.4667
  150SAPE    HA16544   0.495  -0.066   6.212  0.5151  1.5747  0.1181
  150SAPE    HB16545   0.506   0.107   6.221 -0.1825 -0.4372  0.1896
  150SAPE    C216546   0.479   0.003   6.413 -0.1940 -0.5354  0.0617
  150SAPE    HS16547   0.586  -0.018   6.435 -0.5917 -0.5314  2.1945
  150SAPE   O2116548   0.400  -0.097   6.483 -0.5489 -0.4212 -0.0436
  150SAPE   C2116549   0.441  -0.219   6.476  0.6163 -0.0909 -0.4187
  150SAPE   O2216550   0.517  -0.264   6.394 -0.3839 -0.3925  0.1030
  150SAPE   C2216551   0.396  -0.294   6.595  0.4868 -0.8865 -0.0024
  150SAPE   H2R16552   0.319  -0.225   6.638  0.5386  1.0005 -2.6940
  150SAPE   H2S16553   0.356  -0.395   6.570 -1.3364 -1.0368  3.0078
  150SAPE    C316554   0.443   0.142   6.491  0.3819  0.0872 -0.2587
  150SAPE    HX16555   0.336   0.170   6.478 -0.4616 -0.7241  3.6404
  150SAPE    HY16556   0.497   0.229   6.448 -1.8182  1.1094 -1.0988
  150SAPE   O3116557   0.475   0.143   6.633 -0.0553 -0.0733  0.0543
  150SAPE   C3116558   0.598   0.193   6.666  0.3476  0.2451  0.7226
  150SAPE   O3216559   0.689   0.209   6.586  0.3519 -0.0507 -0.3250
  150SAPE   C3216560   0.598   0.231   6.810 -0.0430 -0.0934  0.0704
  150SAPE   H2X16561   0.655   0.325   6.827  0.5609 -0.7864  2.1504
  150SAPE   H2Y16562   0.650   0.152   6.868  0.1081 -0.6945 -0.8704
  150SAPE   C2316563   0.513  -0.305   6.687  0.2083  0.2382 -0.6557
  150SAPE   H3R16564   0.585  -0.222   6.669  1.8524 -0.7936  0.7967
  150SAPE   H3S16565   0.575  -0.396   6.670 -0.7239 -0.1970 -1.8640
  150SAPE   C2416566   0.467  -0.304   6.835  1.0626  0.3310 -0.4050
  150SAPE   H4R16567   0.557  -0.343   6.886 -0.3381  0.4609  2.3798
  150SAPE   H4S16568   0.387  -0.381   6.845  0.4933  0.9705  0.0856
  150SAPE   C2516569   0.424  -0.174   6.908 -0.6684 -0.2688  0.4600
  150SAPE   H5R16570   0.371  -0.103   6.843 -0.0451  0.6908  0.9761
  150SAPE   C2616571   0.460  -0.141   7.038 -0.2366  1.6011 -0.3372
  150SAPE   H6R16572   0.424  -0.048   7.086  0.5656  1.4182  0.6733
  150SAPE   C2716573   0.534  -0.232   7.131 -0.0464  0.0214  0.1231
  150SAPE   H7R16574   0.600  -0.174   7.199  0.4309 -2.8884  2.3458
  150SAPE   H7S16575   0.601  -0.311   7.089 -0.1545 -1.0721  1.8894
  150SAPE   C2816576   0.443  -0.308   7.224  0.5549 -0.0008  0.4204
  150SAPE   H8R16577   0.340  -0.311   7.186  0.9096  0.1250 -0.5748
  150SAPE   C2916578   0.462  -0.346   7.352 -0.2218  0.0649  0.6329
  150SAPE   H9R16579   0.383  -0.409   7.395 -0.3759 -0.2177 -0.0427
  150SAPE  C21016580   0.591  -0.341   7.422 -0.1348  0.3357 -0.3127
  150SAPE  H10R16581   0.678  -0.360   7.356  1.1281 -2.2449  1.8885
  150SAPE  H10S16582   0.594  -0.416   7.504  0.6199  0.7059  0.0071
  150SAPE  C21116583   0.613  -0.211   7.486  0.1138 -0.0190 -0.5446
  150SAPE  H11R16584   0.582  -0.125   7.425  1.4353  0.0413 -1.1779
  150SAPE  C21216585   0.664  -0.182   7.610 -0.7812  0.6112  0.6988
  150SAPE  H12R16586   0.686  -0.078   7.638  2.5242 -0.1629  1.3400
  150SAPE  C21316587   0.712  -0.281   7.709 -0.2545  0.6497  0.4745
  150SAPE  H13R16588   0.683  -0.386   7.691  2.1942 -0.2313  1.2781
  150SAPE  H13S16589   0.668  -0.254   7.808 -1.1247  2.2916 -0.3248
  150SAPE  C21416590   0.861  -0.288   7.713  0.7193 -0.1063 -0.3206
  150SAPE  H14R16591   0.914  -0.265   7.620  2.6116 -0.0601  0.7231
  150SAPE  C21516592   0.927  -0.338   7.820 -0.2451  0.4192  0.1977
  150SAPE  H15R16593   1.037  -0.330   7.820 -0.2161  0.5997 -2.1459
  150SAPE  C21616594   0.872  -0.376   7.956 -0.0015  0.1722 -0.3720
  150SAPE  H16R16595   0.870  -0.486   7.975 -0.6221  0.5218  1.7963
  150SAPE  H16S16596   0.764  -0.350   7.960  0.0548  0.4863 -0.8637
  150SAPE  C21716597   0.945  -0.321   8.084 -0.5012 -0.2512  0.2376
  150SAPE  H17R16598   1.045  -0.371   8.079 -0.5610 -0.2721 -2.7552
  150SAPE  H17S16599   0.888  -0.343   8.176 -0.1713 -0.8916  0.2942
  150SAPE  C21816600   0.970  -0.171   8.079  0.3911 -0.0111  0.5913
  150SAPE  H18R16601   1.023  -0.140   7.987 -0.9857  0.6742 -0.0136
  150SAPE  H18S16602   1.040  -0.148   8.161  0.4257  0.4221  0.4437
  150SAPE  C21916603   0.839  -0.086   8.084  0.1449 -0.2156  0.1242
  150SAPE  H19R16604   0.772  -0.129   8.161  0.5897  2.8988  2.4519
  150SAPE  H19S16605   0.781  -0.098   7.990 -0.6077  1.9545  0.2651
  150SAPE  C22016606   0.861   0.067   8.118  0.0593 -0.3405 -0.4230
  150SAPE  H20R16607   0.911   0.080   8.216 -0.4504 -0.3588 -0.1577
  150SAPE  H20S16608   0.762   0.117   8.120 -0.0120 -0.4749 -0.5607
  150SAPE  H20T16609   0.921   0.113   8.036  2.0281 -1.9655  0.0097
  150SAPE   C3316610   0.461   0.258   6.872  0.9598  0.1054  0.1111
  150SAPE   H3X16611   0.408   0.162   6.887  3.1565 -1.5639 -1.9102
  150SAPE   H3Y16612   0.398   0.330   6.815  1.7766  1.2199  0.5722
  150SAPE   C3416613   0.451   0.331   7.003 -0.6826 -0.5484  0.0390
  150SAPE   H4X16614   0.487   0.434   6.984 -0.8422 -0.1311  1.8735
  150SAPE   H4Y16615   0.528   0.297   7.076 -1.2254  1.2149  1.5051
  150SAPE   C3516616   0.316   0.325   7.073  0.4164  0.6565  0.6040
  150SAPE   H5X16617   0.280   0.220   7.084  0.1894  0.7582  0.8448
  150SAPE   H5Y16618   0.247   0.380   7.006 -1.9529 -0.7330  1.7543
  150SAPE   C3616619   0.301   0.376   7.215 -0.0246  0.1767 -0.1356
  150SAPE   H6X16620   0.369   0.312   7.276 -0.3285 -3.0660 -2.8991
  150SAPE   H6Y16621   0.193   0.373   7.244 -0.2590  0.8334 -0.9017
  150SAPE   C3716622   0.353   0.523   7.229 -0.6435  0.0271 -0.4375
  150SAPE   H7X16623   0.278   0.586   7.175  0.2075  1.5285  0.0515
  150SAPE   H7Y16624   0.456   0.536   7.190 -0.4084 -2.2905 -0.7143
  150SAPE   C3816625   0.359   0.566   7.375 -0.0729  0.2897 -0.9468
  150SAPE   H8X16626   0.400   0.670   7.377 -1.5116  0.8636  0.0432
  150SAPE   H8Y16627   0.434   0.494   7.414 -0.6810  0.0046 -0.2774
  150SAPE   C3916628   0.216   0.567   7.442 -0.3592 -0.0087 -0.0925
  150SAPE   H9X16629   0.174   0.464   7.442  2.0437 -1.0536  0.7178
  150SAPE   H9Y16630   0.136   0.632   7.402  0.9890  1.2849 -0.7384
  150SAPE  C31016631   0.221   0.614   7.589 -0.4183 -0.0226 -0.6553
  150SAPE  H10X16632   0.293   0.557   7.650  0.0239  0.8104 -0.3806
  150SAPE  H10Y16633   0.124   0.589   7.637  0.2495  0.4046  0.9923
  150SAPE  C31116634   0.248   0.761   7.593  0.1309 -0.4129 -0.0043
  150SAPE  H11X16635   0.183   0.806   7.516  2.7849  1.4280 -1.3412
  150SAPE  H11Y16636   0.346   0.789   7.548 -0.3598 -1.5684 -1.8859
  150SAPE  C31216637   0.219   0.824   7.729 -0.4156 -0.8213 -0.1493
  150SAPE  H12X16638   0.283   0.776   7.805 -0.9552  1.2982  1.7371
  150SAPE  H12Y16639   0.119   0.809   7.775 -0.0855 -1.4416  0.3759
  150SAPE  C31316640   0.244   0.980   7.727 -0.7410  0.3267 -0.2155
  150SAPE  H13X16641   0.193   1.025   7.640 -1.1537 -0.0100 -0.1515
  150SAPE  H13Y16642   0.351   0.982   7.697 -0.4187  1.0468  0.9034
  150SAPE  C31416643   0.203   1.052   7.855  0.0419  0.4459  0.7824
  150SAPE  H14X16644   0.108   1.009   7.892 -0.0352  0.8379  1.0530
  150SAPE  H14Y16645   0.198   1.162   7.837  2.6741  0.4253 -0.6145
  150SAPE  C31516646   0.314   1.015   7.959  0.2383 -0.3439  0.6141
  150SAPE  H15X16647   0.406   1.062   7.919  0.7716 -1.7482  0.1293
  150SAPE  H15Y16648   0.322   0.905   7.972 -2.4820 -0.5826  0.9262
  150SAPE  C31616649   0.276   1.059   8.103  0.0459 -0.2475 -0.9759
  150SAPE  H16X16650   0.334   1.014   8.187  0.2432  2.0254  0.1767
  150SAPE  H16Y16651   0.168   1.035   8.119 -0.0455  1.4657  1.5128
  150SAPE  C31716652   0.270   1.211   8.139 -0.2922  0.1243 -0.0219
  150SAPE  H17X16653   0.192   1.256   8.075 -0.3239  0.0016 -0.0690
  150SAPE  H17Y16654   0.372   1.255   8.127  1.2381 -3.4086 -1.2818
  150SAPE  C31816655   0.229   1.228   8.287 -0.1359  0.0199 -0.2440
  150SAPE  H18X16656   0.317   1.219   8.355 -0.9694  2.8146  1.3916
  150SAPE  H18Y16657   0.155   1.151   8.316  1.4095 -1.4269  0.0197
  150SAPE  H18Z16658   0.181   1.327   8.303 -1.1011 -0.8482  3.0478
  151SAPE     N16659   4.252   2.519   6.256 -0.0718 -0.2590  0.0076
  151SAPE   HN116660   4.155   2.496   6.286 -0.0887  0.8147  0.8178
  151SAPE   HN216661   4.307   2.516   6.344  0.0465  1.4425  0.0168
  151SAPE   HN316662   4.258   2.616   6.219 -0.9917  0.0956  0.7394
  151SAPE   C1216663   4.310   2.425   6.152  0.5924 -0.0482  0.1897
  151SAPE  H12A16664   4.238   2.340   6.143 -1.9101  1.9896 -0.1233
  151SAPE  H12B16665   4.407   2.391   6.194  2.1478  2.0570 -1.4752
  151SAPE   C1116666   4.326   2.492   6.017  0.0746  0.0036 -0.2125
  151SAPE  H11A16667   4.233   2.535   5.974  0.4390 -0.3002 -1.3390
  151SAPE  H11B16668   4.365   2.409   5.955  1.1744  2.4404 -3.0068
  151SAPE     P16669   4.398   2.742   6.026 -0.1554  0.3684 -0.2455
  151SAPE   O1316670   4.421   2.792   5.893  0.2864  0.3985 -0.1833
  151SAPE   O1416671   4.274   2.778   6.094 -0.2050 -0.1206  0.6107
  151SAPE   O1216672   4.427   2.587   6.030 -0.6972  0.7338  0.1797
  151SAPE   O1116673   4.518   2.794   6.110  0.6905 -0.0692 -0.2706
  151SAPE    C116674   4.647   2.724   6.111  0.4090 -0.0892 -0.5718
  151SAPE    HA16675   4.666   2.656   6.025  0.6299 -0.2644 -0.3830
  151SAPE    HB16676   4.728   2.799   6.105  1.9334 -1.6563 -0.1487
  151SAPE    C216677   4.684   2.639   6.233  0.1192 -0.7258 -0.2058
  151SAPE    HS16678   4.615   2.552   6.240  0.6850 -1.1081  0.6540
  151SAPE   O2116679   4.675   2.727   6.350  0.2063 -0.0241  0.0489
  151SAPE   C2116680   4.555   2.719   6.416  0.0151  0.1872 -0.4433
  151SAPE   O2216681   4.463   2.642   6.391 -0.6756 -0.1102  0.9162
  151SAPE   C2216682   4.566   2.810   6.535  0.1461 -0.3259 -0.4257
  151SAPE   H2R16683   4.665   2.794   6.582  1.6081  4.2375 -1.4191
  151SAPE   H2S16684   4.569   2.911   6.489  0.3570 -1.5979 -3.4473
  151SAPE    C316685   4.827   2.592   6.239 -0.3240  0.2262 -0.1466
  151SAPE    HX16686   4.889   2.683   6.254 -1.4185  1.1246 -0.9113
  151SAPE    HY16687   4.858   2.544   6.144 -0.6976 -0.4674  0.0770
  151SAPE   O3116688   4.851   2.493   6.346 -0.1809 -1.0901  0.0570
  151SAPE   C3116689   4.809   2.374   6.309 -0.5886 -0.1659  0.7171
  151SAPE   O3216690   4.764   2.338   6.202 -0.0295  0.6452 -0.0915
  151SAPE   C3216691   4.827   2.283   6.427 -0.3561  0.6568  0.4254
  151SAPE   H2X16692   4.886   2.335   6.505  1.0620  0.6202 -0.5709
  151SAPE   H2Y16693   4.886   2.193   6.400 -0.2825  1.1162 -1.0850
  151SAPE   C2316694   4.449   2.799   6.635  0.8774  0.1560  0.1493
  151SAPE   H3R16695   4.446   2.690   6.658 -0.9410  0.2775  0.6431
  151SAPE   H3S16696   4.356   2.811   6.576  0.1561 -0.0031  1.2238
  151SAPE   C2416697   4.471   2.883   6.758 -0.5337  0.0585  0.1877
  151SAPE   H4R16698   4.485   2.989   6.728 -4.3215  1.1368  1.6166
  151SAPE   H4S16699   4.567   2.851   6.805  0.3072 -0.0279 -1.5346
  151SAPE   C2516700   4.350   2.886   6.852  0.1797  0.0024 -0.6268
  151SAPE   H5R16701   4.260   2.833   6.817 -0.6018  1.4227 -0.8414
  151SAPE   C2616702   4.352   2.940   6.976 -0.1916  1.0616  0.4786
  151SAPE   H6R16703   4.263   2.936   7.041  0.1042 -0.2566  0.8310
  151SAPE   C2716704   4.473   3.009   7.036 -0.5505 -0.1595 -0.2381
  151SAPE   H7R16705   4.441   3.111   7.064 -0.2189 -0.7482  2.5913
  151SAPE   H7S16706   4.557   3.014   6.964  0.0024 -1.5508  0.2726
  151SAPE   C2816707   4.522   2.931   7.155  0.4070  0.3671 -0.1925
  151SAPE   H8R16708   4.589   2.849   7.126  1.2384  0.9468  0.0342
  151SAPE   C2916709   4.515   2.971   7.282  0.5879 -0.7247  0.1361
  151SAPE   H9R16710   4.568   2.909   7.355  3.0043  0.0383 -0.8580
  151SAPE  C21016711   4.440   3.083   7.343 -0.4086  0.3273 -0.2800
  151SAPE  H10R16712   4.427   3.165   7.270  0.0322  0.6320 -0.0223
  151SAPE  H10S16713   4.513   3.117   7.420  0.7996  0.8378 -1.6240
  151SAPE  C21116714   4.306   3.038   7.411 -0.1701 -0.4815  0.1077
  151SAPE  H11R16715   4.227   3.016   7.337  1.1411 -0.5851 -1.3221
  151SAPE  C21216716   4.296   3.029   7.550 -0.0386  0.6020  0.6060
  151SAPE  H12R16717   4.192   3.028   7.586 -0.2164  0.5088  0.1096
  151SAPE  C21316718   4.404   3.047   7.652  0.5649  0.3642 -0.3622
  151SAPE  H13R16719   4.502   3.020   7.607  0.5659 -0.5130  0.1491
  151SAPE  H13S16720   4.400   2.965   7.726  1.5975  0.7621  0.1502
  151SAPE  C21416721   4.419   3.181   7.728  0.4169 -0.1677  0.1914
  151SAPE  H14R16722   4.399   3.269   7.665 -2.0929 -0.9252 -0.1838
  151SAPE  C21516723   4.463   3.194   7.855  0.0569 -0.3059 -0.3251
  151SAPE  H15R16724   4.475   3.298   7.891 -2.0076  0.2900 -1.2207
  151SAPE  C21616725   4.502   3.080   7.950  0.1632 -0.1860 -0.0717
  151SAPE  H16R16726   4.581   3.112   8.021  0.7381  0.1140 -0.8217
  151SAPE  H16S16727   4.546   2.994   7.895 -0.0551 -0.9132  0.8838
  151SAPE  C21716728   4.376   3.028   8.020  0.7485 -0.4649 -0.4649
  151SAPE  H17R16729   4.391   2.926   8.061  0.8503 -0.4977 -0.5852
  151SAPE  H17S16730   4.287   3.018   7.954  0.0275  0.9549  0.2409
  151SAPE  C21816731   4.327   3.118   8.138  0.6927  0.1041 -0.7250
  151SAPE  H18R16732   4.292   3.210   8.086  1.0348  0.6898  0.0609
  151SAPE  H18S16733   4.409   3.137   8.210  1.3755 -0.3214 -1.3805
  151SAPE  C21916734   4.209   3.048   8.216 -0.1441 -0.1572  0.0813
  151SAPE  H19R16735   4.258   2.954   8.249  1.4952  1.5731  2.9190
  151SAPE  H19S16736   4.132   3.024   8.140 -1.3250 -4.7262  2.3891
  151SAPE  C22016737   4.150   3.127   8.339 -0.0012 -0.2423  0.0021
  151SAPE  H20R16738   4.117   3.231   8.317 -0.9232  0.1301  2.7587
  151SAPE  H20S16739   4.055   3.076   8.365 -2.0320  3.4887  0.6817
  151SAPE  H20T16740   4.210   3.126   8.433 -0.0175  1.0654  0.0482
  151SAPE   C3316741   4.700   2.232   6.481  0.3471 -0.1274  0.2765
  151SAPE   H3X16742   4.642   2.169   6.410  0.5671  1.3094 -1.2305
  151SAPE   H3Y16743   4.633   2.318   6.501  0.0610  0.1579 -1.6663
  151SAPE   C3416744   4.719   2.158   6.619  0.4248 -0.6583  0.2216
  151SAPE   H4X16745   4.788   2.072   6.603  2.0856  0.9263 -1.7654
  151SAPE   H4Y16746   4.624   2.108   6.648  0.1191  0.5464  1.3712
  151SAPE   C3516747   4.759   2.242   6.733 -0.5804 -0.3488 -0.3588
  151SAPE   H5X16748   4.697   2.334   6.729 -1.0543 -0.7121 -1.9986
  151SAPE   H5Y16749   4.861   2.282   6.712 -0.2743 -0.6873  0.4200
  151SAPE   C3616750   4.758   2.181   6.880 -0.6362  0.4289 -0.4087
  151SAPE   H6X16751   4.825   2.093   6.879 -0.9134  0.1876 -2.5025
  151SAPE   H6Y16752   4.657   2.137   6.897  0.3559 -1.6531  0.3354
  151SAPE   C3716753   4.788   2.281   6.998  0.6554 -0.2587  0.7816
  151SAPE   H7X16754   4.727   2.372   6.979  3.5340  1.9613  1.5580
  151SAPE   H7Y16755   4.893   2.316   7.004  0.1901  1.6761 -1.0264
  151SAPE   C3816756   4.738   2.228   7.133  0.9476  0.1360  0.3575
  151SAPE   H8X16757   4.779   2.126   7.144  0.2326 -0.4028 -1.5153
  151SAPE   H8Y16758   4.627   2.224   7.129  0.8781  2.1041 -1.0384
  151SAPE   C3916759   4.785   2.309   7.251 -0.4572 -0.3006  0.3669
  151SAPE   H9X16760   4.728   2.404   7.250  0.9150  0.5415 -0.7879
  151SAPE   H9Y16761   4.890   2.337   7.229 -0.4254  0.8098  1.8151
  151SAPE  C31016762   4.753   2.242   7.379 -0.5574 -0.8995 -0.6719
  151SAPE  H10X16763   4.823   2.156   7.385 -0.3986 -0.7489 -0.3531
  151SAPE  H10Y16764   4.645   2.216   7.377 -0.6246 -0.5767 -1.5060
  151SAPE  C31116765   4.782   2.319   7.500  0.6796  0.0606 -0.7812
  151SAPE  H11X16766   4.716   2.408   7.502 -0.1631 -0.4129  3.9538
  151SAPE  H11Y16767   4.885   2.360   7.497  1.2424 -1.1457  0.9258
  151SAPE  C31216768   4.766   2.240   7.630  0.1056  0.4644 -0.7458
  151SAPE  H12X16769   4.826   2.148   7.614 -1.6794 -1.4357  2.4318
  151SAPE  H12Y16770   4.656   2.223   7.635 -0.1985  2.2456 -0.7454
  151SAPE  C31316771   4.833   2.317   7.744 -0.2252  0.0839 -0.5436
  151SAPE  H13X16772   4.779   2.408   7.776 -1.0437 -0.7891  0.6519
  151SAPE  H13Y16773   4.936   2.345   7.711  0.0051 -1.5584 -1.3054
  151SAPE  C31416774   4.863   2.238   7.869 -0.7396  0.0891 -0.2934
  151SAPE  H14X16775   4.909   2.313   7.936  1.3875 -1.2685 -0.1604
  151SAPE  H14Y16776   4.943   2.163   7.851 -0.4005  0.2634  0.4342
  151SAPE  C31516777   4.737   2.172   7.949  0.3893 -0.5153  0.0443
  151SAPE  H15X16778   4.667   2.127   7.875 -0.7180  0.4604  0.4546
  151SAPE  H15Y16779   4.690   2.264   7.991 -1.8129 -2.3895  1.9701
  151SAPE  C31616780   4.786   2.076   8.045  0.5418  0.5100 -0.3735
  151SAPE  H16X16781   4.875   2.126   8.089  1.3250 -2.1655  1.3139
  151SAPE  H16Y16782   4.820   1.976   8.010 -0.4366 -0.1443  0.4933
  151SAPE  C31716783   4.682   2.037   8.147  0.5851  0.4522 -0.2575
  151SAPE  H17X16784   4.605   1.965   8.112 -0.0161 -0.0208  1.9025
  151SAPE  H17Y16785   4.635   2.130   8.186  0.2488  0.8749 -1.5985
  151SAPE  C31816786   4.739   1.953   8.265 -0.3368  0.1063 -0.1372
  151SAPE  H18X16787   4.813   2.016   8.320 -0.9446  0.7743 -0.0676
  151SAPE  H18Y16788   4.789   1.860   8.231  0.5152  0.7628 -0.7108
  151SAPE  H18Z16789   4.661   1.912   8.333  0.6023 -2.1292 -0.2995
  152SAPE     N16790   0.770   1.602   5.855 -0.0759 -0.4300 -0.0097
  152SAPE   HN116791   0.672   1.607   5.819 -0.2505 -1.1143  0.3552
  152SAPE   HN216792   0.813   1.692   5.825 -0.3721 -0.2252  0.1644
  152SAPE   HN316793   0.817   1.520   5.813  0.9695 -0.4790  1.2075
  152SAPE   C1216794   0.770   1.598   6.006 -0.0181 -0.2312 -0.1619
  152SAPE  H12A16795   0.869   1.556   6.032  0.8828  0.4169 -2.3393
  152SAPE  H12B16796   0.687   1.528   6.032  0.0660 -0.3502 -0.2104
  152SAPE   C1116797   0.757   1.743   6.070  1.1628  0.6460  0.4146
  152SAPE  H11A16798   0.750   1.747   6.181 -1.4348 -0.0855  0.3382
  152SAPE  H11B16799   0.662   1.794   6.044 -0.8018 -2.5006  0.9457
  152SAPE     P16800   0.991   1.849   6.082  0.1904  0.1201  0.3143
  152SAPE   O1316801   1.035   1.724   6.145  0.0911 -0.6528 -0.2618
  152SAPE   O1416802   1.085   1.913   5.989 -0.4904  0.5697  0.2171
  152SAPE   O1216803   0.846   1.828   6.013 -0.5491 -0.0636 -0.5106
  152SAPE   O1116804   0.952   1.956   6.187  0.0553 -0.4285  0.5037
  152SAPE    C116805   0.865   2.070   6.176  0.4096 -0.0860  0.3597
  152SAPE    HA16806   0.813   2.077   6.078  0.1145 -2.2772  0.3209
  152SAPE    HB16807   0.775   2.067   6.242 -0.0500 -0.3665 -0.2710
  152SAPE    C216808   0.951   2.200   6.206  0.4417  0.9307 -0.0937
  152SAPE    HS16809   1.037   2.198   6.136  1.1492  2.2665  0.6790
  152SAPE   O2116810   0.999   2.185   6.336  0.2700  0.1954  0.1389
  152SAPE   C2116811   1.100   2.268   6.369 -0.0819 -0.4694  0.4333
  152SAPE   O2216812   1.156   2.335   6.283  0.4461  0.1813 -0.2423
  152SAPE   C2216813   1.122   2.283   6.519  0.1543  0.1094 -0.5898
  152SAPE   H2R16814   1.106   2.181   6.560 -1.6573 -0.3347 -2.2628
  152SAPE   H2S16815   1.224   2.323   6.534  0.3530 -1.1695  2.1254
  152SAPE    C316816   0.871   2.329   6.176 -0.2569 -0.3750  0.1855
  152SAPE    HX16817   0.830   2.330   6.073  1.7692  2.0186 -0.6886
  152SAPE    HY16818   0.939   2.417   6.182 -0.7094 -0.1085  2.2645
  152SAPE   O3116819   0.770   2.361   6.274  0.3797 -0.0011 -0.2915
  152SAPE   C3116820   0.644   2.316   6.250 -0.0849 -0.0976 -0.1683
  152SAPE   O3216821   0.612   2.256   6.147  0.3808  0.5336  0.2939
  152SAPE   C3216822   0.559   2.349   6.365 -0.0865 -0.2560 -0.1974
  152SAPE   H2X16823   0.511   2.254   6.397 -1.9619  0.4995 -0.6593
  152SAPE   H2Y16824   0.474   2.419   6.352  0.6145  0.4421 -1.2141
  152SAPE   C2316825   1.022   2.385   6.583 -0.5127  0.1828  0.9155
  152SAPE   H3R16826   0.918   2.346   6.574 -0.1297 -0.5357 -0.7844
  152SAPE   H3S16827   1.026   2.484   6.532 -0.0534  0.5308  1.6190
  152SAPE   C2416828   1.051   2.412   6.734 -0.1606  0.1025  0.3707
  152SAPE   H4R16829   0.990   2.499   6.765 -0.4307 -0.4888  1.5620
  152SAPE   H4S16830   1.152   2.456   6.742 -0.1303  0.4485 -1.4284
  152SAPE   C2516831   1.035   2.292   6.826 -0.4179 -0.0503  0.3235
  152SAPE   H5R16832   1.026   2.190   6.785  1.2151 -0.3183  0.5397
  152SAPE   C2616833   1.027   2.314   6.956 -0.2874 -0.6396 -0.4886
  152SAPE   H6R16834   1.004   2.233   7.027  0.4906  1.0931  1.8555
  152SAPE   C2716835   1.057   2.433   7.044  0.0820 -0.1302 -0.3476
  152SAPE   H7R16836   0.964   2.489   7.068  0.0679  0.5850 -1.9299
  152SAPE   H7S16837   1.115   2.505   6.982  0.3827  0.2121  0.3234
  152SAPE   C2816838   1.137   2.400   7.166  0.1063  0.0998 -0.0241
  152SAPE   H8R16839   1.234   2.349   7.152  0.1876  0.2281  0.0595
  152SAPE   C2916840   1.108   2.449   7.288 -0.0825 -0.0099 -0.5858
  152SAPE   H9R16841   1.173   2.411   7.369  0.4531 -1.9400 -1.8595
  152SAPE  C21016842   0.993   2.539   7.331 -0.4224  0.4815 -0.3133
  152SAPE  H10R16843   0.898   2.520   7.277  0.5030 -1.3160 -1.4218
  152SAPE  H10S16844   1.001   2.650   7.322 -1.1119  0.7008  1.4039
  152SAPE  C21116845   0.967   2.516   7.478 -0.1324  0.2602  0.1520
  152SAPE  H11R16846   0.901   2.430   7.497 -2.1686  1.3131 -1.6580
  152SAPE  C21216847   1.027   2.585   7.571  0.0647  0.6998 -0.0425
  152SAPE  H12R16848   1.011   2.564   7.678  0.7211  0.4617  0.0072
  152SAPE  C21316849   1.138   2.690   7.555  0.6927 -0.0560  0.2492
  152SAPE  H13R16850   1.141   2.753   7.464  0.6186 -0.3248  0.0590
  152SAPE  H13S16851   1.239   2.645   7.547  1.5269  2.0358 -2.2720
  152SAPE  C21416852   1.118   2.786   7.671 -0.3551 -0.0601  0.0315
  152SAPE  H14R16853   1.060   2.871   7.634 -0.6162 -0.4475 -0.4485
  152SAPE  C21516854   1.183   2.800   7.786  0.7733  0.1252 -0.4824
  152SAPE  H15R16855   1.153   2.880   7.855 -0.2303  0.0143 -0.7653
  152SAPE  C21616856   1.294   2.710   7.846  0.3048  0.1864 -0.7127
  152SAPE  H16R16857   1.294   2.616   7.787 -0.0020  0.4522 -1.1389
  152SAPE  H16S16858   1.261   2.686   7.949  1.6811  1.1951  0.0051
  152SAPE  C21716859   1.441   2.763   7.855 -0.6782  0.0618  0.6213
  152SAPE  H17R16860   1.505   2.689   7.907  0.0844 -1.2352 -1.9998
  152SAPE  H17S16861   1.449   2.858   7.912 -1.1398 -1.0300  2.5939
  152SAPE  C21816862   1.488   2.800   7.709 -0.1867 -0.9137  0.1887
  152SAPE  H18R16863   1.421   2.881   7.674  0.5059 -0.9885 -1.3951
  152SAPE  H18S16864   1.474   2.714   7.639  0.5832  0.3340 -1.5648
  152SAPE  C21916865   1.636   2.841   7.690 -0.0012  0.4756 -0.5955
  152SAPE  H19R16866   1.701   2.764   7.736 -1.0344  0.8595  1.6613
  152SAPE  H19S16867   1.643   2.928   7.759 -0.2383 -0.3041  0.4364
  152SAPE  C22016868   1.669   2.874   7.542  0.4100  0.0888  0.2391
  152SAPE  H20R16869   1.645   2.979   7.512  0.5952  0.7832  2.4083
  152SAPE  H20S16870   1.626   2.807   7.464  2.3246  2.6225 -3.3171
  152SAPE  H20T16871   1.778   2.858   7.529  0.3869 -0.9870  1.2621
  152SAPE   C3316872   0.637   2.403   6.495  0.1170  0.3357  0.2726
  152SAPE   H3X16873   0.676   2.507   6.484  1.4562  0.0156  1.5871
  152SAPE   H3Y16874   0.706   2.328   6.539 -0.4240 -0.4533 -0.2096
  152SAPE   C3416875   0.530   2.423   6.601 -0.6072  0.6155 -0.6362
  152SAPE   H4X16876   0.496   2.323   6.637 -1.9458  1.2913  0.0448
  152SAPE   H4Y16877   0.446   2.480   6.556 -0.2219  1.3515 -0.4246
  152SAPE   C3516878   0.583   2.509   6.725  0.6595 -0.2606  0.0284
  152SAPE   H5X16879   0.631   2.604   6.695 -0.0877 -0.0542 -0.5628
  152SAPE   H5Y16880   0.663   2.453   6.777  2.2612  4.1485  2.8547
  152SAPE   C3616881   0.463   2.526   6.824 -0.4184 -0.0316  0.5149
  152SAPE   H6X16882   0.425   2.428   6.860 -0.7975 -0.4121 -0.8870
  152SAPE   H6Y16883   0.383   2.583   6.772 -0.3933 -0.5003 -0.0354
  152SAPE   C3716884   0.519   2.603   6.944  0.1660 -0.3029  0.1801
  152SAPE   H7X16885   0.563   2.701   6.916 -1.1891  0.6877  1.3101
  152SAPE   H7Y16886   0.607   2.555   6.993  0.7647 -2.2120 -2.5587
  152SAPE   C3816887   0.422   2.621   7.055 -0.8908  0.6405  0.3430
  152SAPE   H8X16888   0.387   2.521   7.089 -0.4266  0.8929  1.5769
  152SAPE   H8Y16889   0.333   2.671   7.010 -0.7204 -0.8136 -1.7722
  152SAPE   C3916890   0.460   2.713   7.175  0.3058 -0.9655 -0.5161
  152SAPE   H9X16891   0.484   2.811   7.129 -4.2824 -0.4775 -2.4150
  152SAPE   H9Y16892   0.549   2.677   7.230 -1.6340  0.4443  3.9900
  152SAPE  C31016893   0.348   2.718   7.286  0.0295  0.4676 -0.0473
  152SAPE  H10X16894   0.304   2.618   7.301  1.2946  0.0154  0.8275
  152SAPE  H10Y16895   0.273   2.784   7.237  1.2928  1.5952 -0.5480
  152SAPE  C31116896   0.396   2.771   7.424 -0.6008  1.0997  0.3856
  152SAPE  H11X16897   0.449   2.866   7.400 -0.5163  0.9721  0.0715
  152SAPE  H11Y16898   0.451   2.685   7.468 -2.5899 -0.9632 -0.9153
  152SAPE  C31216899   0.273   2.806   7.517 -0.3068 -0.4881 -0.2085
  152SAPE  H12X16900   0.203   2.720   7.512  0.1582 -0.8306 -1.1634
  152SAPE  H12Y16901   0.218   2.890   7.470  0.1300  0.1470  0.4110
  152SAPE  C31316902   0.304   2.809   7.668 -0.7717 -0.0748 -0.3057
  152SAPE  H13X16903   0.402   2.859   7.679 -1.0940  0.2708  1.1486
  152SAPE  H13Y16904   0.300   2.709   7.715  1.5896 -0.0557  0.0520
  152SAPE  C31416905   0.210   2.890   7.742  0.2387  0.1641 -0.2059
  152SAPE  H14X16906   0.117   2.830   7.745  0.1986  0.2605  0.8787
  152SAPE  H14Y16907   0.186   2.985   7.688  1.9655  0.0371 -1.2823
  152SAPE  C31516908   0.262   2.910   7.882 -0.7287  0.6095 -0.7267
  152SAPE  H15X16909   0.353   2.972   7.871 -1.2006  1.7862  1.4491
  152SAPE  H15Y16910   0.292   2.809   7.918 -0.8649  0.3456 -1.3362
  152SAPE  C31616911   0.161   2.969   7.984 -0.4432 -0.6089 -0.2995
  152SAPE  H16X16912   0.062   2.919   7.989 -0.4470 -0.6091 -0.3828
  152SAPE  H16Y16913   0.137   3.071   7.946 -0.5994 -0.8665 -0.8993
  152SAPE  C31716914   0.227   2.982   8.119 -0.1169  0.5331  0.1338
  152SAPE  H17X16915   0.173   3.061   8.176 -0.8515  0.2405 -0.1344
  152SAPE  H17Y16916   0.332   3.016   8.116  0.4185 -0.8802  1.4739
  152SAPE  C31816917   0.227   2.850   8.198 -0.2279 -0.4582  0.0171
  152SAPE  H18X16918   0.258   2.760   8.141  0.4311  0.2628 -0.7796
  152SAPE  H18Y16919   0.122   2.837   8.233 -0.2874  0.1386  0.0690
  152SAPE  H18Z16920   0.296   2.862   8.284 -2.6006  2.0391  1.7647
  153SAPE     N16921   3.484   0.272   6.093 -0.1964 -0.7407 -0.2591
  153SAPE   HN116922   3.429   0.348   6.139 -0.2198 -0.7941 -0.1985
  153SAPE   HN216923   3.428   0.189   6.065  0.3758 -0.7558 -1.3968
  153SAPE   HN316924   3.568   0.248   6.149  1.8681  0.0006 -2.8614
  153SAPE   C1216925   3.535   0.334   5.963  0.0752  0.0774  0.0589
  153SAPE  H12A16926   3.449   0.352   5.895  1.2397  3.0875 -0.7757
  153SAPE  H12B16927   3.605   0.262   5.916  1.5119  1.2423  0.3283
  153SAPE   C1116928   3.622   0.456   5.995 -0.7346 -0.3218  0.5790
  153SAPE  H11A16929   3.672   0.486   5.901  0.7713 -0.4257  1.3128
  153SAPE  H11B16930   3.691   0.430   6.078 -0.1236  0.7978  0.4453
  153SAPE     P16931   3.623   0.694   6.084  0.0049 -0.3485 -0.1056
  153SAPE   O1316932   3.702   0.739   5.964 -0.0241  0.9081 -0.4011
  153SAPE   O1416933   3.518   0.792   6.134  0.6333  0.3370  0.4590
  153SAPE   O1216934   3.544   0.563   6.042  0.1782  0.1212  0.5476
  153SAPE   O1116935   3.723   0.654   6.205 -0.6817  0.2358  0.5135
  153SAPE    C116936   3.668   0.580   6.317 -0.8841  0.2748  0.8971
  153SAPE    HA16937   3.577   0.519   6.299 -0.0908 -0.6298 -0.2028
  153SAPE    HB16938   3.749   0.516   6.358 -0.1923 -0.0641 -0.9338
  153SAPE    C216939   3.638   0.694   6.419  0.1864  0.5348  0.7975
  153SAPE    HS16940   3.568   0.766   6.372  0.9309  1.0450  0.4529
  153SAPE   O2116941   3.756   0.763   6.466 -0.1434  0.6050 -0.0220
  153SAPE   C2116942   3.741   0.889   6.495  0.4581  0.7420  0.1254
  153SAPE   O2216943   3.644   0.959   6.479  0.1210  0.5858  0.0119
  153SAPE   C2216944   3.880   0.933   6.550  0.0892  1.0180 -1.1358
  153SAPE   H2R16945   3.958   0.864   6.511  0.1075  0.9246 -0.9389
  153SAPE   H2S16946   3.895   1.035   6.508 -0.9776  1.2581 -0.9768
  153SAPE    C316947   3.565   0.627   6.543  0.9170 -0.9139  0.4883
  153SAPE    HX16948   3.502   0.552   6.491 -2.1601  2.3965 -1.0386
  153SAPE    HY16949   3.497   0.704   6.586  0.3664 -0.9750 -0.2403
  153SAPE   O3116950   3.651   0.583   6.643 -0.1326  0.5377  0.0351
  153SAPE   C3116951   3.664   0.446   6.666 -0.2240  0.2360  0.7677
  153SAPE   O3216952   3.647   0.361   6.578 -0.0907 -0.5414 -0.8111
  153SAPE   C3216953   3.702   0.415   6.813  0.3816  0.4129  0.6940
  153SAPE   H2X16954   3.625   0.355   6.865  2.6763 -2.8582  0.6713
  153SAPE   H2Y16955   3.728   0.511   6.863  1.2002  0.5486  0.0327
  153SAPE   C2316956   3.876   0.929   6.704 -0.0379  0.2825  0.0233
  153SAPE   H3R16957   3.796   0.992   6.748 -0.2792  0.5748 -0.8177
  153SAPE   H3S16958   3.967   0.988   6.730 -1.6427  1.9784  2.1678
  153SAPE   C2416959   3.871   0.796   6.781 -0.2506  0.0636  0.6472
  153SAPE   H4R16960   3.770   0.749   6.775 -0.2808  0.2864 -1.0364
  153SAPE   H4S16961   3.895   0.810   6.889 -2.0904  0.2868  1.0627
  153SAPE   C2516962   3.972   0.703   6.716  0.7108 -0.3403  1.1532
  153SAPE   H5R16963   3.927   0.642   6.637 -2.7057  0.5004  2.3094
  153SAPE   C2616964   4.092   0.663   6.762 -0.1088 -0.1781  0.7477
  153SAPE   H6R16965   4.142   0.583   6.706 -1.2505 -0.2930 -0.1450
  153SAPE   C2716966   4.163   0.701   6.885  0.0277  0.6445  0.0856
  153SAPE   H7R16967   4.144   0.628   6.967 -0.5830  1.4185  0.6356
  153SAPE   H7S16968   4.120   0.794   6.927  0.0452 -0.3904  2.5341
  153SAPE   C2816969   4.315   0.714   6.873 -0.2079 -0.3320 -0.3991
  153SAPE   H8R16970   4.352   0.816   6.890 -3.5689  0.5648  2.9555
  153SAPE   C2916971   4.394   0.613   6.856 -0.1925  0.5353  0.8735
  153SAPE   H9R16972   4.502   0.630   6.839  0.0099 -1.1764  0.1783
  153SAPE  C21016973   4.346   0.467   6.857 -0.8657  0.0738  0.4203
  153SAPE  H10R16974   4.246   0.442   6.816 -0.9334 -1.6530  1.5044
  153SAPE  H10S16975   4.345   0.428   6.961  0.3591 -0.1377  0.3709
  153SAPE  C21116976   4.446   0.385   6.776  0.4868 -0.2081 -0.4304
  153SAPE  H11R16977   4.433   0.379   6.667  1.5732 -2.9257 -0.5019
  153SAPE  C21216978   4.553   0.324   6.827 -0.2425  0.7399 -0.0333
  153SAPE  H12R16979   4.619   0.276   6.753  0.1527  0.6052  0.4061
  153SAPE  C21316980   4.607   0.337   6.962  0.1903 -0.4132  0.2158
  153SAPE  H13R16981   4.584   0.431   7.016 -0.4110  0.7874 -1.9777
  153SAPE  H13S16982   4.718   0.334   6.959  0.1723 -0.5234 -0.4748
  153SAPE  C21416983   4.568   0.231   7.057  0.0537  0.1809  0.5325
  153SAPE  H14R16984   4.568   0.131   7.011  2.8224  0.0632  0.6530
  153SAPE  C21516985   4.567   0.240   7.192  1.0471 -0.7716 -0.7618
  153SAPE  H15R16986   4.536   0.153   7.251  2.0679 -1.3714 -1.0939
  153SAPE  C21616987   4.576   0.359   7.280  0.0254 -0.2177 -0.7002
  153SAPE  H16R16988   4.493   0.431   7.261 -0.8881 -1.4449 -1.5644
  153SAPE  H16S16989   4.667   0.415   7.250 -1.0955  0.8155 -2.3555
  153SAPE  C21716990   4.583   0.319   7.432  0.2135 -0.0038  0.3557
  153SAPE  H17R16991   4.663   0.243   7.445 -0.1313 -1.2593 -3.5684
  153SAPE  H17S16992   4.492   0.270   7.472 -0.6265 -0.1002 -1.5642
  153SAPE  C21816993   4.621   0.441   7.511  0.0925 -0.8021 -0.1191
  153SAPE  H18R16994   4.549   0.524   7.491 -1.9840 -2.6716 -0.8263
  153SAPE  H18S16995   4.724   0.472   7.485 -0.0889  1.9768  1.9260
  153SAPE  C21916996   4.604   0.430   7.661 -0.7012 -0.2217 -0.3351
  153SAPE  H19R16997   4.682   0.362   7.702 -0.8768  0.7320  1.6899
  153SAPE  H19S16998   4.506   0.385   7.691 -1.2778 -1.0379 -3.1079
  153SAPE  C22016999   4.615   0.566   7.728 -0.0498 -0.2000 -0.3672
  153SAPE  H20R17000   4.714   0.607   7.701 -0.6814  1.5580 -0.1189
  153SAPE  H20S17001   4.602   0.543   7.836 -2.5622 -2.9957 -1.1181
  153SAPE  H20T17002   4.545   0.650   7.712  3.0930  2.7161  0.1230
  153SAPE   C3317003   3.842   0.340   6.807  0.1132  0.2100  0.5013
  153SAPE   H3X17004   3.914   0.388   6.737 -0.4129 -1.7805 -1.5568
  153SAPE   H3Y17005   3.818   0.235   6.776 -0.5981  0.0497  1.5357
  153SAPE   C3417006   3.919   0.346   6.942  0.3449 -0.1610  0.3108
  153SAPE   H4X17007   3.847   0.334   7.025 -0.5114  2.0405 -0.0410
  153SAPE   H4Y17008   3.964   0.447   6.948 -1.3318  0.6243  0.2694
  153SAPE   C3517009   4.024   0.234   6.951  0.1313  0.2541  0.6252
  153SAPE   H5X17010   4.096   0.241   6.866 -0.5939 -1.7095 -0.2235
  153SAPE   H5Y17011   3.982   0.134   6.926  2.1010 -0.0269 -1.9301
  153SAPE   C3617012   4.096   0.230   7.085 -0.1211  0.1346 -0.3210
  153SAPE   H6X17013   4.014   0.253   7.157 -0.7170 -2.0743 -0.2166
  153SAPE   H6Y17014   4.162   0.317   7.101 -1.2875  0.9442  0.2207
  153SAPE   C3717015   4.175   0.108   7.134  0.5524 -0.2027  0.7969
  153SAPE   H7X17016   4.270   0.096   7.078  0.8276  1.0182  0.9805
  153SAPE   H7Y17017   4.119   0.014   7.115  0.2298  0.0889  0.2766
  153SAPE   C3817018   4.199   0.094   7.286 -0.2838 -0.3786 -0.2407
  153SAPE   H8X17019   4.102   0.075   7.337 -0.1756  1.1085  0.5873
  153SAPE   H8Y17020   4.244   0.186   7.331 -0.0004 -0.9772  0.7255
  153SAPE   C3917021   4.289  -0.030   7.321 -0.7779 -0.1832 -0.7210
  153SAPE   H9X17022   4.390  -0.027   7.276  0.0104 -0.7004  0.9418
  153SAPE   H9Y17023   4.240  -0.121   7.279  3.5575 -1.3420 -4.0093
  153SAPE  C31017024   4.322  -0.042   7.469 -0.2387  0.3156 -0.2132
  153SAPE  H10X17025   4.228  -0.066   7.522  0.3751  1.9089  1.6896
  153SAPE  H10Y17026   4.353   0.056   7.510 -0.0259  0.0761  0.2115
  153SAPE  C31117027   4.428  -0.154   7.502  0.7989  0.0171  0.9489
  153SAPE  H11X17028   4.523  -0.117   7.457 -0.3977  1.1985 -0.7309
  153SAPE  H11Y17029   4.401  -0.248   7.449  0.4783 -1.4500  3.5444
  153SAPE  C31217030   4.440  -0.196   7.648 -0.3739 -0.3120 -0.6788
  153SAPE  H12X17031   4.481  -0.299   7.648 -0.3984 -0.3229 -1.0958
  153SAPE  H12Y17032   4.342  -0.205   7.701 -0.6478  2.0124 -0.6595
  153SAPE  C31317033   4.535  -0.095   7.714  0.3372 -0.3105 -0.7813
  153SAPE  H13X17034   4.477  -0.001   7.704 -0.0795 -0.7339 -2.8117
  153SAPE  H13Y17035   4.622  -0.090   7.645  0.7168 -0.2941 -0.3091
  153SAPE  C31417036   4.566  -0.122   7.856 -1.2309  0.1690  0.3357
  153SAPE  H14X17037   4.487  -0.161   7.923 -0.1127 -0.6265  1.2365
  153SAPE  H14Y17038   4.582  -0.018   7.893 -0.1557  0.1199  0.0468
  153SAPE  C31517039   4.685  -0.204   7.895 -0.2762  0.5063  0.0109
  153SAPE  H15X17040   4.770  -0.165   7.836  0.8457  1.2679  2.0157
  153SAPE  H15Y17041   4.668  -0.312   7.875  1.3717  0.4470 -1.2649
  153SAPE  C31617042   4.725  -0.195   8.050  0.2260 -0.0806  0.5757
  153SAPE  H16X17043   4.648  -0.252   8.106  2.6489 -3.0781  1.1750
  153SAPE  H16Y17044   4.718  -0.087   8.071  2.3678  0.3246 -0.5144
  153SAPE  C31717045   4.864  -0.250   8.100 -1.2548 -0.6450  0.2879
  153SAPE  H17X17046   4.884  -0.354   8.068 -1.0543 -0.5392  0.0723
  153SAPE  H17Y17047   4.881  -0.239   8.210 -1.3872 -0.4296  0.2881
  153SAPE  C31817048   4.987  -0.181   8.027  0.0902 -0.5905  0.3933
  153SAPE  H18X17049   4.968  -0.156   7.920  0.1766  0.8851  0.6976
  153SAPE  H18Y17050   5.075  -0.248   8.029  0.6028 -0.0788 -1.8815
  153SAPE  H18Z17051   5.000  -0.087   8.086 -0.7723 -0.8897  1.0742
  154SAPE     N17052   0.983   0.418   5.726  0.3374 -0.2829 -0.5791
  154SAPE   HN117053   0.942   0.468   5.644 -2.9217 -0.5703  0.7280
  154SAPE   HN217054   1.052   0.354   5.681  1.7809  0.9861 -0.2639
  154SAPE   HN317055   0.909   0.370   5.781  1.1484 -0.5018  0.3658
  154SAPE   C1217056   1.063   0.519   5.815 -0.7792  0.5424  0.3435
  154SAPE  H12A17057   1.002   0.604   5.851  0.4339  1.4454  0.3524
  154SAPE  H12B17058   1.151   0.549   5.753  1.5846 -2.0240  2.2049
  154SAPE   C1117059   1.121   0.448   5.938 -0.4485  0.8317  0.1692
  154SAPE  H11A17060   1.034   0.437   6.006 -0.0862 -0.0110  0.5144
  154SAPE  H11B17061   1.195   0.511   5.992  0.3602 -0.8884  1.1388
  154SAPE     P17062   1.176   0.183   5.959 -0.3692 -0.1453  0.2252
  154SAPE   O1317063   1.037   0.140   5.937 -0.0517 -0.3535 -0.2196
  154SAPE   O1417064   1.277   0.102   5.894 -0.2315 -0.0859 -0.0883
  154SAPE   O1217065   1.184   0.323   5.895 -0.4747 -0.2873 -0.5295
  154SAPE   O1117066   1.208   0.210   6.118  0.1617  0.4145 -0.0718
  154SAPE    C117067   1.333   0.274   6.143 -0.4839 -0.2033  0.7459
  154SAPE    HA17068   1.399   0.271   6.054  0.1951  0.7043  1.2066
  154SAPE    HB17069   1.314   0.383   6.156  0.0883 -0.0222  0.0794
  154SAPE    C217070   1.401   0.214   6.264  0.6502 -0.7684 -0.4043
  154SAPE    HS17071   1.502   0.259   6.267 -0.3618  1.6671  2.4778
  154SAPE   O2117072   1.406   0.075   6.266  0.2666  0.2671 -0.2500
  154SAPE   C2117073   1.484   0.024   6.175  0.6326 -0.2214  0.6778
  154SAPE   O2217074   1.579   0.082   6.121  0.0338 -0.4675 -0.5061
  154SAPE   C2217075   1.427  -0.112   6.123  0.5081  0.0833  0.2025
  154SAPE   H2R17076   1.317  -0.104   6.106  0.5231 -1.6861 -0.9557
  154SAPE   H2S17077   1.474  -0.126   6.024  0.9967  1.6508  0.1841
  154SAPE    C317078   1.327   0.260   6.396  0.5828 -0.1792 -0.3395
  154SAPE    HX17079   1.224   0.222   6.376  0.6419 -0.5715  0.0938
  154SAPE    HY17080   1.332   0.370   6.409 -0.7401 -0.2254  0.9607
  154SAPE   O3117081   1.376   0.201   6.517 -0.0757 -0.3568 -0.2962
  154SAPE   C3117082   1.289   0.160   6.605 -0.0836 -0.3203  0.1220
  154SAPE   O3217083   1.167   0.166   6.597  0.0471  0.0326 -0.0134
  154SAPE   C3217084   1.375   0.113   6.724 -0.6555 -0.2408  0.0522
  154SAPE   H2X17085   1.470   0.170   6.724 -0.8349  0.1076  1.6881
  154SAPE   H2Y17086   1.402   0.009   6.693  2.6405  0.5684 -0.2094
  154SAPE   C2317087   1.466  -0.227   6.207 -0.6276 -0.2543 -0.3593
  154SAPE   H3R17088   1.421  -0.205   6.307  2.3347 -0.7913  1.2008
  154SAPE   H3S17089   1.577  -0.222   6.208 -0.4943 -1.9776  2.1615
  154SAPE   C2417090   1.425  -0.358   6.155  0.4954  0.7395  0.7700
  154SAPE   H4R17091   1.418  -0.362   6.044  2.6022  3.2780  0.4386
  154SAPE   H4S17092   1.323  -0.387   6.187  0.3245  0.4313 -0.0460
  154SAPE   C2517093   1.515  -0.468   6.203  0.3834 -0.7237 -0.1217
  154SAPE   H5R17094   1.600  -0.485   6.136 -0.5449 -0.1765 -1.4693
  154SAPE   C2617095   1.495  -0.554   6.301 -1.3046 -0.3491  0.4919
  154SAPE   H6R17096   1.587  -0.613   6.317 -0.2712  0.2311 -2.7170
  154SAPE   C2717097   1.372  -0.567   6.384 -0.0705  0.1533 -0.2010
  154SAPE   H7R17098   1.286  -0.510   6.344  1.1945  3.3298  1.2817
  154SAPE   H7S17099   1.387  -0.528   6.487 -1.9388  0.5504 -0.0413
  154SAPE   C2817100   1.321  -0.706   6.392  0.2856 -0.4741 -0.6567
  154SAPE   H8R17101   1.298  -0.752   6.295  2.3525 -0.0288 -1.4175
  154SAPE   C2917102   1.300  -0.784   6.508 -1.1223 -0.4157 -1.0660
  154SAPE   H9R17103   1.279  -0.891   6.495 -1.0251 -0.9504  2.3425
  154SAPE  C21017104   1.331  -0.748   6.654  0.1306  0.1302 -0.4742
  154SAPE  H10R17105   1.248  -0.776   6.723 -0.4695  0.8543 -0.8895
  154SAPE  H10S17106   1.357  -0.640   6.655  1.8252 -0.2574 -0.0772
  154SAPE  C21117107   1.459  -0.826   6.680  0.2099  0.3300  0.1514
  154SAPE  H11R17108   1.530  -0.834   6.596  1.6708 -0.0693  1.3616
  154SAPE  C21217109   1.503  -0.884   6.792 -0.1535 -0.3340 -0.0100
  154SAPE  H12R17110   1.602  -0.933   6.787  0.8642  1.5742  0.2139
  154SAPE  C21317111   1.430  -0.882   6.923 -0.7420 -0.0697  0.0642
  154SAPE  H13R17112   1.320  -0.882   6.904 -1.4402 -0.2045  3.4428
  154SAPE  H13S17113   1.454  -0.793   6.984 -1.7654 -1.9976  3.5594
  154SAPE  C21417114   1.478  -1.000   7.009 -0.0791  0.3839  0.5047
  154SAPE  H14R17115   1.410  -1.087   7.017  1.2967 -0.8515 -0.6213
  154SAPE  C21517116   1.582  -0.994   7.097 -0.4926  1.2831  0.5722
  154SAPE  H15R17117   1.601  -1.085   7.156 -0.6411  1.1338  0.3927
  154SAPE  C21617118   1.668  -0.873   7.123 -0.6662  0.0177 -0.1711
  154SAPE  H16R17119   1.676  -0.871   7.234  2.3197 -3.7835 -0.1173
  154SAPE  H16S17120   1.617  -0.779   7.092 -1.4088 -0.1622  0.4749
  154SAPE  C21717121   1.809  -0.878   7.061  0.6846 -0.1084  0.1426
  154SAPE  H17R17122   1.844  -0.773   7.063 -0.3808  0.2725  2.5314
  154SAPE  H17S17123   1.809  -0.895   6.952  1.1721  0.5706  0.0306
  154SAPE  C21817124   1.910  -0.956   7.143 -0.6534 -0.0952 -0.1012
  154SAPE  H18R17125   1.869  -1.060   7.143  1.1858 -0.8675  0.5937
  154SAPE  H18S17126   1.923  -0.924   7.248  1.7627 -0.4582 -0.2232
  154SAPE  C21917127   2.054  -0.940   7.086  0.0852  0.3315  0.0634
  154SAPE  H19R17128   2.079  -0.832   7.094 -0.3950  0.3333  1.6839
  154SAPE  H19S17129   2.060  -0.971   6.979  0.1248 -1.9995  0.6977
  154SAPE  C22017130   2.163  -1.016   7.162 -0.0692  0.2855  0.1245
  154SAPE  H20R17131   2.261  -0.996   7.112  0.3630  2.5913  1.7250
  154SAPE  H20S17132   2.145  -1.126   7.159  0.9649  0.1195 -1.6092
  154SAPE  H20T17133   2.171  -0.998   7.271 -0.4770  1.1630  0.0211
  154SAPE   C3317134   1.300   0.118   6.862 -0.4626  0.5812 -0.3966
  154SAPE   H3X17135   1.199   0.077   6.841 -0.1839  0.4602 -1.5885
  154SAPE   H3Y17136   1.283   0.219   6.905  4.3153  1.8547 -0.8836
  154SAPE   C3417137   1.365   0.026   6.971 -0.2681  0.0022 -0.2914
  154SAPE   H4X17138   1.471   0.009   6.940 -1.3362  0.2967 -4.7559
  154SAPE   H4Y17139   1.319  -0.075   6.971  0.4479 -0.3528  0.9339
  154SAPE   C3517140   1.353   0.084   7.115 -0.4178 -0.9880  0.2824
  154SAPE   H5X17141   1.249   0.096   7.153 -0.0201  0.3921  0.9941
  154SAPE   H5Y17142   1.405   0.182   7.117  0.1717 -1.3050  1.0042
  154SAPE   C3617143   1.427   0.002   7.221 -0.5122  0.1518  0.1332
  154SAPE   H6X17144   1.538  -0.003   7.209 -0.3320  0.5737  1.5125
  154SAPE   H6Y17145   1.398  -0.104   7.209  1.4239 -0.2880 -1.2857
  154SAPE   C3717146   1.396   0.038   7.378  0.9510  0.0836 -0.5699
  154SAPE   H7X17147   1.288   0.054   7.398  1.7403  3.7490  1.8203
  154SAPE   H7Y17148   1.459   0.129   7.388 -0.3276  0.7706  2.2903
  154SAPE   C3817149   1.449  -0.066   7.479  0.1374 -0.0453  0.6829
  154SAPE   H8X17150   1.560  -0.058   7.475  0.0261  2.8286  1.3080
  154SAPE   H8Y17151   1.428  -0.169   7.444  1.8767 -0.2149  0.0221
  154SAPE   C3917152   1.389  -0.044   7.613 -0.0633 -0.2059 -0.2113
  154SAPE   H9X17153   1.279  -0.061   7.611 -0.2836  0.7334  1.7421
  154SAPE   H9Y17154   1.419   0.057   7.649 -0.1561 -0.2773  0.0687
  154SAPE  C31017155   1.448  -0.148   7.724  0.1158 -0.2490 -0.4241
  154SAPE  H10X17156   1.556  -0.121   7.723 -0.4185  2.0602 -1.1216
  154SAPE  H10Y17157   1.432  -0.246   7.674  2.2038  1.0073 -3.9199
  154SAPE  C31117158   1.372  -0.139   7.858 -0.3969  0.0164  0.1051
  154SAPE  H11X17159   1.261  -0.142   7.848 -0.2796 -0.4870 -1.3031
  154SAPE  H11Y17160   1.412  -0.046   7.904  0.6897 -0.8155  0.8940
  154SAPE  C31217161   1.414  -0.256   7.942  0.0335  0.0224 -0.5836
  154SAPE  H12X17162   1.525  -0.254   7.931  0.0567  1.3103 -0.2298
  154SAPE  H12Y17163   1.381  -0.355   7.905 -0.9906 -0.2912  1.0745
  154SAPE  C31317164   1.375  -0.238   8.088 -0.3497  0.4531  0.1372
  154SAPE  H13X17165   1.265  -0.226   8.086 -0.6244 -1.2114 -3.5612
  154SAPE  H13Y17166   1.416  -0.151   8.142  1.0398 -0.2333  0.2493
  154SAPE  C31417167   1.405  -0.377   8.156 -0.0098  0.1357  0.0376
  154SAPE  H14X17168   1.514  -0.396   8.150 -0.1109 -0.1364 -1.5994
  154SAPE  H14Y17169   1.365  -0.459   8.092  1.6113 -1.0947  0.5176
  154SAPE  C31517170   1.351  -0.382   8.297 -0.4227  0.2365 -0.2120
  154SAPE  H15X17171   1.241  -0.372   8.309 -0.2253 -0.1352  2.4261
  154SAPE  H15Y17172   1.395  -0.294   8.350  2.0639 -1.3822  0.5636
  154SAPE  C31617173   1.381  -0.508   8.373  0.2446 -0.0300 -0.2565
  154SAPE  H16X17174   1.399  -0.478   8.479 -0.1782  0.4180 -0.3088
  154SAPE  H16Y17175   1.467  -0.568   8.337  0.2202 -1.2597  1.5866
  154SAPE  C31717176   1.258  -0.607   8.378  0.6835 -0.1137 -0.0380
  154SAPE  H17X17177   1.162  -0.563   8.413  0.1066 -0.9754 -0.4962
  154SAPE  H17Y17178   1.283  -0.681   8.457 -1.7702 -0.7768  0.1998
  154SAPE  C31817179   1.235  -0.695   8.257  0.4164  0.5002  0.3502
  154SAPE  H18X17180   1.205  -0.798   8.284  0.5015  0.6007  0.8535
  154SAPE  H18Y17181   1.321  -0.696   8.187  0.4504 -2.0058  0.3422
  154SAPE  H18Z17182   1.150  -0.650   8.201  0.2565  0.5022  0.5902
  155SAPE     N17183   2.363   0.160   5.862  0.5475 -0.9814  0.3419
  155SAPE   HN117184   2.305   0.235   5.820  2.9205  0.8104  0.1104
  155SAPE   HN217185   2.398   0.201   5.951  1.2434 -2.1603  0.6327
  155SAPE   HN317186   2.444   0.132   5.803  0.9609 -1.3597  1.0713
  155SAPE   C1217187   2.273   0.040   5.879 -0.2603 -0.6888  0.1774
  155SAPE  H12A17188   2.335  -0.051   5.893  0.7046 -0.1052 -0.1288
  155SAPE  H12B17189   2.226   0.042   5.778 -0.4888  2.4334  0.2306
  155SAPE   C1117190   2.190   0.060   6.005  0.0335 -0.0907 -0.0786
  155SAPE  H11A17191   2.259   0.057   6.092  1.6073  0.1760 -1.2722
  155SAPE  H11B17192   2.118  -0.023   6.023 -4.2714  2.2285 -4.2152
  155SAPE     P17193   1.970   0.209   5.990 -0.2933 -0.1889 -0.1989
  155SAPE   O1317194   1.959   0.335   5.918 -0.0231 -0.0165 -0.2762
  155SAPE   O1417195   1.904   0.092   5.930  0.0705 -0.5939  0.1017
  155SAPE   O1217196   2.127   0.188   6.008  0.3439  0.2480  0.0146
  155SAPE   O1117197   1.911   0.236   6.132  0.2321  0.2469 -0.8123
  155SAPE    C117198   1.842   0.141   6.205  0.3131  0.5605 -0.3102
  155SAPE    HA17199   1.743   0.187   6.224  0.1086 -0.5142  1.4001
  155SAPE    HB17200   1.827   0.045   6.151  2.5845  0.2417 -0.4653
  155SAPE    C217201   1.914   0.107   6.337  0.3603 -0.4228 -0.1768
  155SAPE    HS17202   1.986   0.024   6.320 -1.0275 -1.4169 -1.5200
  155SAPE   O2117203   1.819   0.075   6.437  0.7111  0.8483  0.1200
  155SAPE   C2117204   1.758  -0.043   6.422 -0.2419 -0.5377  1.0069
  155SAPE   O2217205   1.762  -0.118   6.327  0.8192 -0.1667 -0.6060
  155SAPE   C2217206   1.690  -0.081   6.550 -0.1689 -0.6600 -0.1420
  155SAPE   H2R17207   1.747  -0.044   6.638 -0.5490  0.6088 -0.4053
  155SAPE   H2S17208   1.590  -0.035   6.543  0.2694  0.5784  1.3797
  155SAPE    C317209   1.983   0.236   6.385 -0.6052  1.0219  0.3313
  155SAPE    HX17210   1.908   0.314   6.408 -0.9052  1.1621 -1.0218
  155SAPE    HY17211   2.050   0.280   6.308  2.1807 -1.9061  0.8684
  155SAPE   O3117212   2.064   0.204   6.502  0.7988 -0.0691  0.1865
  155SAPE   C3117213   2.112   0.310   6.563  0.5566 -0.0291  0.3936
  155SAPE   O3217214   2.110   0.426   6.525 -0.4188 -0.6539  0.1689
  155SAPE   C3217215   2.170   0.258   6.701 -0.5033 -0.1523  0.7290
  155SAPE   H2X17216   2.275   0.295   6.699 -0.3380 -0.6229 -0.3142
  155SAPE   H2Y17217   2.189   0.149   6.702 -0.4643 -0.1468  2.3356
  155SAPE   C2317218   1.676  -0.234   6.572 -0.2514  0.2009 -0.5725
  155SAPE   H3R17219   1.769  -0.294   6.587 -0.2508  0.3540  0.0642
  155SAPE   H3S17220   1.633  -0.289   6.486 -1.6536 -2.1178  1.4784
  155SAPE   C2417221   1.576  -0.259   6.698  0.5431 -0.7524 -0.4958
  155SAPE   H4R17222   1.482  -0.203   6.684  0.8889  1.0617  3.2787
  155SAPE   H4S17223   1.636  -0.215   6.780  1.6270 -0.3063 -1.4916
  155SAPE   C2517224   1.552  -0.409   6.715 -0.3686 -0.8882  0.3311
  155SAPE   H5R17225   1.527  -0.455   6.619 -1.3143 -0.0175  0.1408
  155SAPE   C2617226   1.573  -0.488   6.827  0.2007 -0.2530  1.4669
  155SAPE   H6R17227   1.553  -0.597   6.823  3.7851 -1.0243  1.4765
  155SAPE   C2717228   1.618  -0.439   6.959 -0.5562 -0.3326 -0.2429
  155SAPE   H7R17229   1.548  -0.484   7.032 -0.3717  0.8838  0.7222
  155SAPE   H7S17230   1.591  -0.331   6.963  2.6437  0.5753 -0.0505
  155SAPE   C2817231   1.769  -0.462   6.996  0.6959 -0.2249  0.6277
  155SAPE   H8R17232   1.834  -0.469   6.908  0.7071 -0.4392  0.6539
  155SAPE   C2917233   1.818  -0.473   7.123 -0.3954 -0.3080  0.0283
  155SAPE   H9R17234   1.926  -0.470   7.140 -0.5681 -0.8073  1.3872
  155SAPE  C21017235   1.734  -0.445   7.236 -0.6009  0.6893 -0.4487
  155SAPE  H10R17236   1.651  -0.373   7.219 -2.1646 -1.1288 -0.7582
  155SAPE  H10S17237   1.797  -0.381   7.302  0.2332 -0.6187  0.0532
  155SAPE  C21117238   1.676  -0.570   7.297  0.3216 -0.7779  0.4224
  155SAPE  H11R17239   1.618  -0.618   7.217  1.3199 -1.1056 -0.1220
  155SAPE  C21217240   1.654  -0.590   7.423  0.1580 -0.6022  0.6989
  155SAPE  H12R17241   1.592  -0.677   7.448 -0.2310  0.0977  2.3386
  155SAPE  C21317242   1.703  -0.500   7.533  0.3675 -0.0496 -0.0672
  155SAPE  H13R17243   1.660  -0.398   7.521 -0.1974 -0.3068 -0.2160
  155SAPE  H13S17244   1.811  -0.491   7.509  0.1881 -4.6909 -4.0251
  155SAPE  C21417245   1.680  -0.558   7.669 -0.3611  0.5985 -0.8923
  155SAPE  H14R17246   1.615  -0.647   7.670  0.7947 -0.3120  0.9523
  155SAPE  C21517247   1.678  -0.491   7.787 -0.0362  0.9390  0.2252
  155SAPE  H15R17248   1.652  -0.550   7.876 -0.0428 -1.0884 -1.0467
  155SAPE  C21617249   1.751  -0.359   7.803 -0.8141 -0.4817  0.4059
  155SAPE  H16R17250   1.675  -0.278   7.805 -0.6367 -0.2013 -1.9596
  155SAPE  H16S17251   1.811  -0.340   7.712 -2.3787  1.5826 -0.2724
  155SAPE  C21717252   1.843  -0.341   7.922 -0.6391  0.0126 -0.5935
  155SAPE  H17R17253   1.787  -0.329   8.017  0.8728  0.9252  0.2335
  155SAPE  H17S17254   1.886  -0.239   7.919  0.3601 -0.3743 -0.0189
  155SAPE  C21817255   1.953  -0.449   7.938 -0.2689  0.2153  0.3003
  155SAPE  H18R17256   2.025  -0.445   7.853 -1.8954 -2.9516 -1.4120
  155SAPE  H18S17257   1.911  -0.551   7.931  1.2027 -0.3113 -2.1910
  155SAPE  C21917258   2.034  -0.439   8.066  0.0926 -0.1777  0.4124
  155SAPE  H19R17259   2.088  -0.342   8.056  0.7585 -0.6921 -1.3291
  155SAPE  H19S17260   2.102  -0.526   8.074 -0.4097 -0.4462  2.4074
  155SAPE  C22017261   1.963  -0.414   8.200  0.4269  0.6037 -0.0079
  155SAPE  H20R17262   2.032  -0.430   8.285 -1.3644  2.0534  1.8104
  155SAPE  H20S17263   1.870  -0.474   8.208  0.3715  0.7845  0.7298
  155SAPE  H20T17264   1.933  -0.307   8.200  1.1022  0.8030 -0.6703
  155SAPE   C3317265   2.091   0.294   6.829 -0.1560 -0.2815 -0.6660
  155SAPE   H3X17266   2.141   0.238   6.910  3.1385 -0.7334 -2.8064
  155SAPE   H3Y17267   1.984   0.264   6.820 -0.6217  1.7520 -3.0912
  155SAPE   C3417268   2.106   0.442   6.855 -0.5264 -0.2225  0.1117
  155SAPE   H4X17269   2.066   0.512   6.779 -2.4160 -0.6140  0.6832
  155SAPE   H4Y17270   2.215   0.461   6.850 -0.9895  4.4003  2.1444
  155SAPE   C3517271   2.057   0.504   6.993 -0.1187  0.0446  0.3809
  155SAPE   H5X17272   1.947   0.493   6.977 -0.1265  2.7067 -2.1134
  155SAPE   H5Y17273   2.080   0.612   6.991  0.8092 -0.1432  0.5416
  155SAPE   C3617274   2.101   0.433   7.115  0.1579  0.1097  0.3422
  155SAPE   H6X17275   2.210   0.451   7.115 -0.0575  1.7716 -1.0209
  155SAPE   H6Y17276   2.074   0.326   7.106 -3.1095  0.8436 -0.0505
  155SAPE   C3717277   2.043   0.487   7.246 -0.7065  0.0858  0.4884
  155SAPE   H7X17278   1.933   0.490   7.230 -0.7076  3.7940  0.3522
  155SAPE   H7Y17279   2.082   0.589   7.268  0.6587 -0.7527  2.1315
  155SAPE   C3817280   2.073   0.393   7.364 -0.0370  0.3853  0.3333
  155SAPE   H8X17281   2.181   0.371   7.353  0.1647  0.4099  1.9288
  155SAPE   H8Y17282   2.017   0.297   7.352 -2.3054  1.8201 -1.3879
  155SAPE   C3917283   2.055   0.457   7.496  0.6030 -0.1560  0.1645
  155SAPE   H9X17284   2.120   0.546   7.500  1.0758 -0.5096  0.4754
  155SAPE   H9Y17285   2.101   0.385   7.568  0.5024  0.6150  1.0203
  155SAPE  C31017286   1.910   0.486   7.535  0.3693  0.1154 -0.5053
  155SAPE  H10X17287   1.851   0.392   7.532  0.9861 -0.2512 -1.4848
  155SAPE  H10Y17288   1.859   0.553   7.462 -0.2186  1.3725  0.9857
  155SAPE  C31117289   1.896   0.548   7.678 -0.0320  0.8712  0.0174
  155SAPE  H11X17290   1.949   0.480   7.748 -2.0115  0.1502  0.8910
  155SAPE  H11Y17291   1.790   0.535   7.708  0.6406 -1.4689  1.6038
  155SAPE  C31217292   1.946   0.685   7.657 -0.6037 -0.5700  0.0012
  155SAPE  H12X17293   1.917   0.733   7.561 -0.9476 -0.5005  0.1384
  155SAPE  H12Y17294   2.057   0.681   7.662 -0.5881  0.6346  1.9715
  155SAPE  C31317295   1.920   0.776   7.781 -0.1423  0.2672 -1.0787
  155SAPE  H13X17296   1.810   0.791   7.793  0.3115  1.5522  3.2657
  155SAPE  H13Y17297   1.965   0.874   7.756 -0.2573  0.6034 -0.0098
  155SAPE  C31417298   1.974   0.727   7.921  0.6831 -0.0945 -0.2248
  155SAPE  H14X17299   1.932   0.627   7.944 -3.1341  1.4471  0.3834
  155SAPE  H14Y17300   1.936   0.789   8.005  1.3801 -1.2923  1.0065
  155SAPE  C31517301   2.122   0.733   7.920  0.2183 -0.7770 -0.3768
  155SAPE  H15X17302   2.168   0.818   7.864  2.1608 -2.0474 -0.8006
  155SAPE  H15Y17303   2.160   0.640   7.872  0.1540 -0.8935 -0.2011
  155SAPE  C31617304   2.177   0.753   8.063  0.1940 -0.3025  0.8945
  155SAPE  H16X17305   2.148   0.673   8.134 -1.5711 -0.5257 -0.0286
  155SAPE  H16Y17306   2.120   0.844   8.091 -0.2293 -0.8083  1.7107
  155SAPE  C31717307   2.328   0.795   8.066  0.1957  0.1269 -0.1899
  155SAPE  H17X17308   2.338   0.871   7.986  0.2713 -1.7084 -1.9960
  155SAPE  H17Y17309   2.382   0.703   8.037  0.6223  0.4730 -0.5002
  155SAPE  C31817310   2.369   0.840   8.205 -0.0020  0.1222  0.4219
  155SAPE  H18X17311   2.471   0.883   8.212  0.5341 -0.7797 -1.3101
  155SAPE  H18Y17312   2.366   0.750   8.270 -3.8301 -0.1908  0.0518
  155SAPE  H18Z17313   2.294   0.914   8.240  0.1180  1.2909 -1.6217
  156SAPE     N17314   4.382   1.828   5.931  0.3137  0.2723 -0.8420
  156SAPE   HN117315   4.302   1.880   5.888  1.3065  1.7220 -0.9919
  156SAPE   HN217316   4.468   1.886   5.923  0.2219  0.6795  0.7853
  156SAPE   HN317317   4.394   1.737   5.881  2.3029  0.3557 -0.5650
  156SAPE   C1217318   4.349   1.812   6.077  0.1024  0.2260 -0.9465
  156SAPE  H12A17319   4.256   1.752   6.085  1.0479 -1.3033 -1.1587
  156SAPE  H12B17320   4.341   1.914   6.121  1.1325 -0.7956  1.8612
  156SAPE   C1117321   4.460   1.731   6.154  0.1694 -0.7242  0.0563
  156SAPE  H11A17322   4.448   1.622   6.132  2.0491 -0.7361 -1.1574
  156SAPE  H11B17323   4.448   1.736   6.265 -0.2340  0.2553 -0.0213
  156SAPE     P17324   4.668   1.880   6.194 -0.3462 -0.3853 -0.1603
  156SAPE   O1317325   4.816   1.873   6.185  0.0794 -0.0317  0.0309
  156SAPE   O1417326   4.618   2.006   6.135 -0.5148  0.1954  0.0590
  156SAPE   O1217327   4.593   1.762   6.112  1.0145  0.4903 -0.1907
  156SAPE   O1117328   4.635   1.865   6.345  0.3702  0.3785  0.4849
  156SAPE    C117329   4.730   1.817   6.435  0.1902  0.3038 -0.5167
  156SAPE    HA17330   4.836   1.836   6.405  0.4700 -2.2101 -1.3291
  156SAPE    HB17331   4.710   1.872   6.529  1.3041 -0.9928  0.5171
  156SAPE    C217332   4.723   1.666   6.459 -1.3969  0.0168 -0.1143
  156SAPE    HS17333   4.758   1.606   6.372  0.9976 -1.7766  1.9345
  156SAPE   O2117334   4.591   1.627   6.509  0.7765 -0.0860  0.0775
  156SAPE   C2117335   4.571   1.494   6.496 -0.1352  0.3782 -0.2825
  156SAPE   O2217336   4.654   1.419   6.451  0.3116 -0.5594  0.2489
  156SAPE   C2217337   4.439   1.443   6.558 -0.8137  0.9062 -0.7570
  156SAPE   H2R17338   4.441   1.333   6.567 -1.6424  0.9229 -0.2398
  156SAPE   H2S17339   4.434   1.487   6.661 -1.5350  1.3661 -0.9793
  156SAPE    C317340   4.847   1.639   6.562 -0.0764  0.2653  0.3674
  156SAPE    HX17341   4.936   1.673   6.505  1.0022 -2.5445  0.2304
  156SAPE    HY17342   4.871   1.533   6.586  2.8680  0.8152  0.2588
  156SAPE   O3117343   4.842   1.721   6.678 -0.0350  0.0690 -0.0948
  156SAPE   C3117344   4.764   1.677   6.778  0.6557 -0.3004  1.2561
  156SAPE   O3217345   4.710   1.570   6.780  0.0714 -0.2079 -0.0412
  156SAPE   C3217346   4.764   1.781   6.895  0.0892 -0.0289 -1.2929
  156SAPE   H2X17347   4.685   1.857   6.878 -0.1839 -0.2056 -0.8272
  156SAPE   H2Y17348   4.863   1.830   6.905 -1.4227  3.7626 -2.9349
  156SAPE   C2317349   4.311   1.506   6.502 -0.2214  0.5256  0.5941
  156SAPE   H3R17350   4.301   1.481   6.395  0.4878  2.7247 -0.0410
  156SAPE   H3S17351   4.328   1.616   6.505  0.6324  0.4059  0.1880
  156SAPE   C2417352   4.191   1.483   6.590  0.6410  0.0576  0.2626
  156SAPE   H4R17353   4.108   1.557   6.589 -1.6641 -2.3855  0.8356
  156SAPE   H4S17354   4.225   1.482   6.696  0.9301 -0.6291  0.1653
  156SAPE   C2517355   4.118   1.353   6.554 -0.8974 -0.2309  0.0260
  156SAPE   H5R17356   4.111   1.324   6.448 -4.7561  0.5734 -0.0781
  156SAPE   C2617357   4.095   1.252   6.645 -0.0319 -0.0129  0.0512
  156SAPE   H6R17358   4.039   1.165   6.608 -0.5369 -0.1497  1.1081
  156SAPE   C2717359   4.117   1.247   6.792 -0.4036  0.3757 -0.3522
  156SAPE   H7R17360   4.022   1.233   6.849 -0.0693 -0.7523 -0.0440
  156SAPE   H7S17361   4.167   1.341   6.820 -1.2949  0.7726 -0.0509
  156SAPE   C2817362   4.212   1.130   6.829 -0.1264  0.2428  0.5172
  156SAPE   H8R17363   4.276   1.092   6.747 -0.0910 -0.3818  0.8303
  156SAPE   C2917364   4.234   1.075   6.950 -0.3114  0.0594  0.4799
  156SAPE   H9R17365   4.317   1.003   6.963  0.3870  0.6077 -0.7369
  156SAPE  C21017366   4.154   1.109   7.072 -0.0357  0.0662  0.6711
  156SAPE  H10R17367   4.052   1.067   7.064  0.0136 -0.2238  1.4912
  156SAPE  H10S17368   4.137   1.219   7.072  0.2960  0.1211  0.4169
  156SAPE  C21117369   4.225   1.081   7.205  0.9604 -0.2528  0.1494
  156SAPE  H11R17370   4.297   0.998   7.208  2.2458  0.8554  1.9688
  156SAPE  C21217371   4.231   1.158   7.317 -0.4552  0.3615  0.4306
  156SAPE  H12R17372   4.286   1.113   7.401  1.8816  0.0961 -1.1592
  156SAPE  C21317373   4.152   1.285   7.348 -0.1440  0.4153  0.1086
  156SAPE  H13R17374   4.050   1.290   7.306 -0.8834  1.0988  1.8880
  156SAPE  H13S17375   4.200   1.376   7.307 -1.4063  1.7381  1.4700
  156SAPE  C21417376   4.147   1.314   7.494  0.4719 -0.2571 -0.8722
  156SAPE  H14R17377   4.241   1.361   7.526  1.2232 -2.5747  0.5952
  156SAPE  C21517378   4.052   1.269   7.583 -0.0901 -0.1711 -0.1311
  156SAPE  H15R17379   4.058   1.296   7.689  1.3634  1.4463 -0.5733
  156SAPE  C21617380   3.930   1.192   7.536  0.2094  0.3067 -0.0404
  156SAPE  H16R17381   3.886   1.115   7.604  0.5815 -1.0820 -1.3146
  156SAPE  H16S17382   3.958   1.127   7.451 -1.0395 -1.7775  1.0412
  156SAPE  C21717383   3.813   1.286   7.504 -0.1127 -0.3697 -0.6096
  156SAPE  H17R17384   3.734   1.217   7.468 -1.1740  1.1335 -1.3018
  156SAPE  H17S17385   3.839   1.359   7.425 -1.0595  0.1855 -0.4215
  156SAPE  C21817386   3.758   1.361   7.627 -0.0034  0.2450 -0.8336
  156SAPE  H18R17387   3.821   1.443   7.667  0.5397  0.2886 -1.7337
  156SAPE  H18S17388   3.750   1.291   7.712  0.8720 -0.0861 -1.0047
  156SAPE  C21917389   3.623   1.418   7.600 -0.0482 -0.5557  0.9167
  156SAPE  H19R17390   3.568   1.346   7.536  0.8749 -1.0460  0.6546
  156SAPE  H19S17391   3.630   1.512   7.540 -1.8539 -1.1098 -0.2369
  156SAPE  C22017392   3.535   1.432   7.721  1.5096  0.2108 -0.1341
  156SAPE  H20R17393   3.440   1.453   7.667  2.0044  2.2031 -0.3211
  156SAPE  H20S17394   3.560   1.518   7.787  0.7646  0.2305  0.1351
  156SAPE  H20T17395   3.533   1.332   7.769 -0.0737 -0.1241 -0.8263
  156SAPE   C3317396   4.724   1.703   7.025  1.1801  0.4709 -0.0552
  156SAPE   H3X17397   4.777   1.609   7.051  3.0194  1.6569  0.6671
  156SAPE   H3Y17398   4.616   1.677   7.031  1.4410 -0.8366 -0.6770
  156SAPE   C3417399   4.742   1.801   7.139 -0.5039 -0.8997  0.6114
  156SAPE   H4X17400   4.682   1.893   7.124  0.6217  0.1095  1.9738
  156SAPE   H4Y17401   4.847   1.836   7.143 -0.4283 -1.1546  0.8911
  156SAPE   C3517402   4.708   1.738   7.270 -0.0252 -0.9044  0.5405
  156SAPE   H5X17403   4.775   1.655   7.303 -0.8210 -2.5970 -1.8189
  156SAPE   H5Y17404   4.609   1.688   7.278 -1.5834  2.1190  1.6645
  156SAPE   C3617405   4.698   1.850   7.380  0.4381  0.2407  0.1850
  156SAPE   H6X17406   4.656   1.943   7.336  0.7576 -0.7815 -2.5081
  156SAPE   H6Y17407   4.807   1.863   7.398  0.2619 -0.8490  2.3831
  156SAPE   C3717408   4.628   1.804   7.505  0.6173  0.1447 -0.9880
  156SAPE   H7X17409   4.680   1.715   7.547  0.0379 -0.0003 -0.5786
  156SAPE   H7Y17410   4.521   1.777   7.498 -0.3252  3.2883 -0.3322
  156SAPE   C3817411   4.644   1.910   7.616  0.1602  0.3691 -0.7076
  156SAPE   H8X17412   4.603   2.013   7.602 -1.7629  0.5293  4.1171
  156SAPE   H8Y17413   4.750   1.917   7.646 -0.8354 -1.8171  4.5187
  156SAPE   C3917414   4.553   1.870   7.731 -0.3859 -1.1385 -0.4563
  156SAPE   H9X17415   4.449   1.860   7.695 -0.9079  0.3663  0.5283
  156SAPE   H9Y17416   4.550   1.958   7.800  1.9242  0.0559 -1.7251
  156SAPE  C31017417   4.611   1.757   7.822  0.4186 -0.8101 -1.1601
  156SAPE  H10X17418   4.703   1.790   7.875 -0.8760 -1.5098  1.7237
  156SAPE  H10Y17419   4.629   1.660   7.773  0.9838 -3.4178  3.5919
  156SAPE  C31117420   4.512   1.715   7.934  0.3328  0.3446 -0.5797
  156SAPE  H11X17421   4.412   1.696   7.889  0.0032  0.2517  0.1582
  156SAPE  H11Y17422   4.503   1.794   8.012 -1.9785 -1.5403  1.2540
  156SAPE  C31217423   4.547   1.588   8.016 -0.1406  0.5484 -0.3251
  156SAPE  H12X17424   4.641   1.597   8.075 -0.8512 -1.2781  1.1766
  156SAPE  H12Y17425   4.568   1.504   7.947 -4.3186 -0.6211 -0.4493
  156SAPE  C31317426   4.441   1.539   8.112  0.2487  0.7178 -0.5739
  156SAPE  H13X17427   4.413   1.614   8.189 -2.1289 -1.7485  1.1489
  156SAPE  H13Y17428   4.475   1.448   8.166  0.0492  1.2396  0.4504
  156SAPE  C31417429   4.314   1.496   8.034  0.2084 -0.1420  0.3220
  156SAPE  H14X17430   4.341   1.396   7.993  3.5283  1.9325 -3.1703
  156SAPE  H14Y17431   4.288   1.556   7.945 -0.2408 -1.9100 -0.7852
  156SAPE  C31517432   4.189   1.497   8.121  0.6018  0.2060  0.4325
  156SAPE  H15X17433   4.165   1.601   8.153  3.8243  1.3399 -0.4486
  156SAPE  H15Y17434   4.191   1.432   8.210  0.2310  1.9786  1.7979
  156SAPE  C31617435   4.068   1.432   8.052  0.0434 -0.4745  0.2570
  156SAPE  H16X17436   3.991   1.413   8.130  2.6447  0.1919  3.1377
  156SAPE  H16Y17437   4.098   1.333   8.011  1.4646 -0.3946  1.0755
  156SAPE  C31717438   4.007   1.524   7.944  0.1339 -0.5824  0.4265
  156SAPE  H17X17439   3.951   1.460   7.872 -0.1200 -0.6508  0.6849
  156SAPE  H17Y17440   4.098   1.556   7.888 -0.0502 -1.5326 -0.4336
  156SAPE  C31817441   3.934   1.647   8.000 -0.1034  0.3727 -0.2390
  156SAPE  H18X17442   3.858   1.621   8.077 -0.4415 -1.5846 -1.1589
  156SAPE  H18Y17443   3.892   1.693   7.908  2.6715  0.0138 -1.7789
  156SAPE  H18Z17444   4.003   1.714   8.055  0.2164  1.2044 -1.6128
  157SAPE     N17445   4.638   3.361   6.013  0.1185 -0.1080  0.5284
  157SAPE   HN117446   4.709   3.435   5.997 -1.3217  1.6673  1.8580
  157SAPE   HN217447   4.547   3.364   5.962 -0.5023 -0.7107  1.5738
  157SAPE   HN317448   4.609   3.375   6.111 -0.4761 -2.5350  0.7701
  157SAPE   C1217449   4.689   3.218   6.003 -0.1808 -0.0497  0.0052
  157SAPE  H12A17450   4.642   3.187   5.907 -1.1414 -1.2594  0.8481
  157SAPE  H12B17451   4.639   3.170   6.089 -1.4834  1.6921  0.2828
  157SAPE   C1117452   4.848   3.214   6.010  0.7666 -0.8902 -0.8390
  157SAPE  H11A17453   4.894   3.254   5.918  2.2169 -0.6721 -0.0526
  157SAPE  H11B17454   4.877   3.107   6.017  0.6671 -0.8204  1.2744
  157SAPE     P17455   4.998   3.254   6.216 -0.1299 -0.1882  0.1348
  157SAPE   O1317456   5.124   3.248   6.145 -0.6972 -0.0950  0.2088
  157SAPE   O1417457   4.991   3.335   6.339  0.3415 -0.0895  0.4031
  157SAPE   O1217458   4.885   3.295   6.121 -0.2317  0.4795 -0.0165
  157SAPE   O1117459   4.952   3.101   6.251 -0.1593 -0.7489  0.1198
  157SAPE    C117460   4.843   3.077   6.336  0.0270 -0.2841  0.6346
  157SAPE    HA17461   4.768   3.160   6.334  0.1817 -0.1354 -1.1112
  157SAPE    HB17462   4.790   2.988   6.297 -2.3329  1.3305 -0.1030
  157SAPE    C217463   4.884   3.032   6.482 -0.1799  0.2402  0.9181
  157SAPE    HS17464   4.798   2.978   6.527 -2.1536  2.4644  0.0376
  157SAPE   O2117465   4.923   3.143   6.564 -0.3488 -0.3051 -0.2139
  157SAPE   C2117466   4.827   3.201   6.631 -0.8229  0.2159 -0.1979
  157SAPE   O2217467   4.710   3.166   6.635 -0.4434  0.2450 -0.3541
  157SAPE   C2217468   4.884   3.315   6.715 -0.0144 -0.5958  0.3414
  157SAPE   H2R17469   4.917   3.398   6.648 -1.4826 -0.4801 -0.2924
  157SAPE   H2S17470   4.789   3.349   6.761 -0.7163 -1.5809 -0.3361
  157SAPE    C317471   4.998   2.923   6.470  0.5619  0.5254  0.3406
  157SAPE    HX17472   5.056   2.944   6.378  1.4160 -1.5973  0.3428
  157SAPE    HY17473   4.944   2.827   6.452  0.6836  0.3231  1.0263
  157SAPE   O3117474   5.074   2.903   6.593  0.5336 -0.2567 -0.1427
  157SAPE   C3117475   5.187   2.975   6.604  0.0302 -0.1705 -0.3884
  157SAPE   O3217476   5.231   3.042   6.513  0.8370 -0.7359 -0.4204
  157SAPE   C3217477   5.258   2.943   6.731  0.2004 -0.2557 -0.1749
  157SAPE   H2X17478   5.341   2.873   6.710  1.1039  0.6262  0.3268
  157SAPE   H2Y17479   5.176   2.900   6.792  1.1703  0.1943  1.5130
  157SAPE   C2317480   4.994   3.292   6.816 -1.0891 -0.4229 -0.0082
  157SAPE   H3R17481   4.994   3.378   6.887 -0.6848  0.0974 -0.6319
  157SAPE   H3S17482   5.095   3.300   6.770 -1.5753  1.4292 -0.8369
  157SAPE   C2417483   4.986   3.164   6.896 -0.5892 -0.0948  0.2739
  157SAPE   H4R17484   5.074   3.146   6.961 -2.0237 -1.1037  2.0313
  157SAPE   H4S17485   4.997   3.079   6.825 -0.5683  0.6829 -0.6681
  157SAPE   C2517486   4.858   3.156   6.964  0.1079  0.5193 -0.4232
  157SAPE   H5R17487   4.765   3.162   6.905  0.5205 -0.1923 -1.1747
  157SAPE   C2617488   4.835   3.140   7.089 -0.3198  0.1670  0.0914
  157SAPE   H6R17489   4.734   3.122   7.129  0.2617 -1.8679  0.7593
  157SAPE   C2717490   4.940   3.140   7.200 -0.2742 -0.4514  0.6542
  157SAPE   H7R17491   5.045   3.150   7.165 -0.3038 -1.5905  0.1952
  157SAPE   H7S17492   4.938   3.040   7.247 -0.0598 -0.3733  0.8312
  157SAPE   C2817493   4.909   3.248   7.306 -0.1974 -0.0949 -0.1210
  157SAPE   H8R17494   4.870   3.344   7.270  1.2863 -0.0021 -1.6045
  157SAPE   C2917495   4.923   3.229   7.440 -0.1596 -0.4835 -0.5054
  157SAPE   H9R17496   4.904   3.315   7.506 -2.9630 -1.9174  0.6951
  157SAPE  C21017497   4.952   3.095   7.509  0.6363 -0.2274 -1.0205
  157SAPE  H10R17498   5.047   3.105   7.565 -0.1562 -2.1898  0.7926
  157SAPE  H10S17499   4.974   3.011   7.439  1.5435  0.1263 -1.1725
  157SAPE  C21117500   4.840   3.044   7.600 -0.4088  0.1443  0.0838
  157SAPE  H11R17501   4.756   2.996   7.548  1.1093  0.3740 -2.8392
  157SAPE  C21217502   4.822   3.077   7.730 -0.5985  0.6179  0.4085
  157SAPE  H12R17503   4.736   3.037   7.786  0.6573 -1.1807  1.1515
  157SAPE  C21317504   4.905   3.183   7.802 -0.2891 -0.4566 -0.2903
  157SAPE  H13R17505   4.843   3.201   7.892 -0.7343 -1.1511 -0.4510
  157SAPE  H13S17506   4.901   3.276   7.742 -0.5111 -0.5013 -0.3465
  157SAPE  C21417507   5.044   3.143   7.836 -0.3202  0.0075  0.1834
  157SAPE  H14R17508   5.096   3.098   7.751 -0.9479  2.6889 -1.7489
  157SAPE  C21517509   5.098   3.135   7.960 -0.5173 -0.1294 -0.4241
  157SAPE  H15R17510   5.200   3.095   7.970 -1.0479 -1.2726  0.6116
  157SAPE  C21617511   5.049   3.175   8.090  0.1928  0.0545 -0.0648
  157SAPE  H16R17512   4.989   3.268   8.088  1.0470  0.6156 -0.1221
  157SAPE  H16S17513   5.141   3.190   8.149  0.7227 -2.4972 -0.1116
  157SAPE  C21717514   4.975   3.053   8.162 -0.9714 -0.3678 -0.1433
  157SAPE  H17R17515   5.046   2.968   8.175 -0.9668 -0.2374  0.7460
  157SAPE  H17S17516   4.903   3.019   8.084 -0.3327  0.0160 -0.9242
  157SAPE  C21817517   4.903   3.092   8.289 -0.1600 -0.0398  0.1010
  157SAPE  H18R17518   4.851   2.999   8.322  0.3103 -0.3196  0.0514
  157SAPE  H18S17519   4.830   3.174   8.273  1.1769  1.5944  2.0102
  157SAPE  C21917520   4.992   3.136   8.404 -0.1288  0.0392 -0.0144
  157SAPE  H19R17521   5.099   3.112   8.385 -0.1207 -0.3969  0.5803
  157SAPE  H19S17522   4.948   3.079   8.489  1.5668 -3.2422 -1.1689
  157SAPE  C22017523   4.980   3.285   8.445  0.4492 -0.1719 -0.3779
  157SAPE  H20R17524   5.033   3.340   8.364 -1.5437  0.9684 -0.9859
  157SAPE  H20S17525   5.024   3.305   8.545 -1.4383  2.7937 -0.0193
  157SAPE  H20T17526   4.878   3.330   8.445  0.5652  0.2026  1.8534
  157SAPE   C3317527   5.330   3.066   6.802 -0.3764 -0.3494  0.0205
  157SAPE   H3X17528   5.244   3.133   6.823 -0.5464 -0.3251 -0.7167
  157SAPE   H3Y17529   5.395   3.126   6.735  0.4887  1.8315  2.6419
  157SAPE   C3417530   5.419   3.020   6.918  0.0258  0.3307 -0.4175
  157SAPE   H4X17531   5.481   3.109   6.941 -1.1735  1.5145 -1.6049
  157SAPE   H4Y17532   5.486   2.939   6.883  0.1325  0.1002  0.3056
  157SAPE   C3517533   5.336   2.964   7.029 -0.1231  0.4090 -0.2433
  157SAPE   H5X17534   5.286   2.868   7.006 -0.7820  0.5550  0.5171
  157SAPE   H5Y17535   5.251   3.032   7.055 -0.0364 -0.1412  1.6187
  157SAPE   C3617536   5.428   2.957   7.145  0.1644 -0.4524 -0.6976
  157SAPE   H6X17537   5.455   3.062   7.172  2.2329 -1.6396  2.5307
  157SAPE   H6Y17538   5.516   2.892   7.126 -0.8546 -1.9890 -0.3622
  157SAPE   C3717539   5.372   2.905   7.280  0.1665  0.4484  0.8153
  157SAPE   H7X17540   5.332   2.802   7.268  0.6430  0.2148  1.2266
  157SAPE   H7Y17541   5.298   2.983   7.310  0.8790  1.8601 -0.8761
  157SAPE   C3817542   5.474   2.892   7.388 -0.1410  0.7360 -0.7982
  157SAPE   H8X17543   5.538   2.983   7.379 -0.0310  0.5452 -2.0974
  157SAPE   H8Y17544   5.542   2.805   7.375 -0.1402  0.5549  0.3299
  157SAPE   C3917545   5.410   2.887   7.523 -0.2707 -0.0745  0.3180
  157SAPE   H9X17546   5.345   2.797   7.529  2.0925 -2.0191 -1.4210
  157SAPE   H9Y17547   5.346   2.978   7.531 -1.3520 -0.4897 -2.4876
  157SAPE  C31017548   5.511   2.899   7.639 -0.1022 -0.0198  0.1441
  157SAPE  H10X17549   5.580   2.985   7.637  2.6417 -2.0918 -0.2652
  157SAPE  H10Y17550   5.582   2.814   7.628 -1.7371 -1.1344 -3.3043
  157SAPE  C31117551   5.429   2.897   7.772 -0.5037 -0.4388  0.1440
  157SAPE  H11X17552   5.357   2.813   7.770  0.7640 -1.5489 -0.1307
  157SAPE  H11Y17553   5.377   2.994   7.785  1.8862  0.7549  1.5126
  157SAPE  C31217554   5.517   2.890   7.899  0.4843 -0.3767  0.8235
  157SAPE  H12X17555   5.565   2.988   7.919 -1.8508  0.7997  0.9466
  157SAPE  H12Y17556   5.593   2.811   7.880  1.8047  0.9240  0.5381
  157SAPE  C31317557   5.451   2.847   8.032  0.1454 -0.8619  0.5203
  157SAPE  H13X17558   5.404   2.750   8.006  0.5068 -1.5086  2.1673
  157SAPE  H13Y17559   5.368   2.914   8.066  0.2113 -0.9299  0.8124
  157SAPE  C31417560   5.549   2.820   8.145  0.5509  0.0100  0.1248
  157SAPE  H14X17561   5.605   2.908   8.181  0.5989 -0.0998  0.3176
  157SAPE  H14Y17562   5.618   2.744   8.102  0.5252  0.2532 -0.3502
  157SAPE  C31517563   5.471   2.759   8.258  0.4660  0.1632  0.0558
  157SAPE  H15X17564   5.430   2.662   8.221  0.4404  0.0940  0.2617
  157SAPE  H15Y17565   5.389   2.824   8.295  1.2223  0.7378  0.7773
  157SAPE  C31617566   5.552   2.737   8.388  0.1568 -0.2044  0.0509
  157SAPE  H16X17567   5.591   2.838   8.413 -0.0451 -0.6127  2.1697
  157SAPE  H16Y17568   5.633   2.664   8.369 -0.6302 -1.1316  0.1768
  157SAPE  C31717569   5.463   2.685   8.500  0.7344 -0.4196  0.6077
  157SAPE  H17X17570   5.389   2.612   8.460 -0.3488  0.6785  0.5606
  157SAPE  H17Y17571   5.417   2.775   8.546  2.8786  1.1403 -0.1241
  157SAPE  C31817572   5.548   2.615   8.603 -0.2178 -0.1574 -0.4889
  157SAPE  H18X17573   5.645   2.664   8.626 -1.0010  0.4510  1.6886
  157SAPE  H18Y17574   5.569   2.508   8.578  0.4143  0.1768 -1.4418
  157SAPE  H18Z17575   5.491   2.610   8.698  0.2440  1.3115 -0.1152
  158SAPE     N17576   6.739   0.293   5.576  0.0495  0.2552  0.6937
  158SAPE   HN117577   6.740   0.225   5.655 -1.5247  3.1355  3.4355
  158SAPE   HN217578   6.672   0.260   5.504 -0.2555 -0.9089  1.4806
  158SAPE   HN317579   6.825   0.296   5.519 -0.3621 -2.4517 -0.1874
  158SAPE   C1217580   6.700   0.432   5.626  0.4211  0.0510  0.0766
  158SAPE  H12A17581   6.686   0.495   5.535 -1.9056  0.6112  0.7779
  158SAPE  H12B17582   6.783   0.469   5.690  0.2238  1.2307 -0.3206
  158SAPE   C1117583   6.563   0.419   5.697  0.3487 -0.0310 -0.7548
  158SAPE  H11A17584   6.500   0.385   5.612  1.0748 -1.4621 -0.7630
  158SAPE  H11B17585   6.524   0.518   5.728  0.0452 -0.7013  1.1332
  158SAPE     P17586   6.610   0.375   5.953 -0.0978  0.0734 -0.4101
  158SAPE   O1317587   6.629   0.259   6.041 -0.0564 -0.1141  0.0268
  158SAPE   O1417588   6.718   0.471   5.932 -0.3316  0.3468 -0.3231
  158SAPE   O1217589   6.564   0.324   5.810 -0.7901 -0.0651  0.2622
  158SAPE   O1117590   6.472   0.445   5.980  0.6251  0.7875  0.4224
  158SAPE    C117591   6.480   0.590   5.986  0.1878  0.4253 -0.3032
  158SAPE    HA17592   6.532   0.639   5.901 -1.9310  0.0552 -1.8957
  158SAPE    HB17593   6.376   0.628   5.983  0.6212  1.5918 -1.8239
  158SAPE    C217594   6.527   0.646   6.126  0.0531 -0.1398  0.2221
  158SAPE    HS17595   6.636   0.664   6.119 -0.0511  0.5555  0.2757
  158SAPE   O2117596   6.487   0.554   6.233 -0.3791 -0.2934  0.8700
  158SAPE   C2117597   6.559   0.555   6.340 -0.3690 -0.5963 -0.5439
  158SAPE   O2217598   6.662   0.622   6.354 -0.2859  0.1616  0.4897
  158SAPE   C2217599   6.487   0.468   6.443  0.1999 -0.5317 -0.3855
  158SAPE   H2R17600   6.407   0.533   6.484 -0.3395 -0.4796 -1.4774
  158SAPE   H2S17601   6.436   0.379   6.401  2.4256 -1.6044 -0.9820
  158SAPE    C317602   6.471   0.783   6.153 -0.2669  0.1085  0.8035
  158SAPE    HX17603   6.360   0.783   6.156 -0.3117  1.8311  0.3427
  158SAPE    HY17604   6.493   0.842   6.061  0.3004 -3.3020 -1.4135
  158SAPE   O3117605   6.512   0.840   6.281  0.1362  0.3750  0.2017
  158SAPE   C3117606   6.626   0.918   6.269 -0.2179  0.3176 -0.1438
  158SAPE   O3217607   6.683   0.935   6.164 -0.4412  0.2807  0.3105
  158SAPE   C3217608   6.663   0.978   6.405 -0.7374 -0.9401  0.0121
  158SAPE   H2X17609   6.671   0.900   6.483  2.1333  0.2804  1.0867
  158SAPE   H2Y17610   6.581   1.050   6.426  0.2940 -0.0924  1.3102
  158SAPE   C2317611   6.584   0.423   6.554  0.1273 -0.1635  0.5552
  158SAPE   H3R17612   6.592   0.515   6.616 -0.3337  1.0980 -1.1829
  158SAPE   H3S17613   6.675   0.391   6.500 -0.0696  2.3111 -1.3652
  158SAPE   C2417614   6.507   0.325   6.647 -0.2124 -0.1251  0.2785
  158SAPE   H4R17615   6.470   0.236   6.593  1.3997  0.5363 -2.0432
  158SAPE   H4S17616   6.422   0.382   6.690  0.0885  0.2148  0.4347
  158SAPE   C2517617   6.596   0.273   6.758 -0.1647  0.1902  0.2335
  158SAPE   H5R17618   6.662   0.193   6.721 -0.9606 -0.3690  0.0005
  158SAPE   C2617619   6.575   0.288   6.891  0.8530  0.4588 -0.2693
  158SAPE   H6R17620   6.638   0.230   6.959 -1.1918 -2.5635 -0.7362
  158SAPE   C2717621   6.471   0.386   6.948  0.0817  0.4083 -0.2484
  158SAPE   H7R17622   6.438   0.462   6.874  0.0034  0.0678 -0.5624
  158SAPE   H7S17623   6.516   0.443   7.032 -0.0645  0.1887 -0.0212
  158SAPE   C2817624   6.353   0.306   6.995  0.0607  0.3869  0.2567
  158SAPE   H8R17625   6.280   0.303   6.913  0.5349  2.3098 -0.2962
  158SAPE   C2917626   6.319   0.277   7.123  0.3106 -0.2372  0.2739
  158SAPE   H9R17627   6.218   0.237   7.139  0.3589 -0.1718  0.7619
  158SAPE  C21017628   6.409   0.310   7.236 -0.7330  0.0489 -0.5441
  158SAPE  H10R17629   6.394   0.419   7.248 -1.7252 -0.2005  0.7338
  158SAPE  H10S17630   6.513   0.296   7.198 -1.8456 -2.4539 -3.0510
  158SAPE  C21117631   6.386   0.243   7.372  0.6522 -0.4999  0.3733
  158SAPE  H11R17632   6.424   0.141   7.384  2.8801  0.1572 -0.4209
  158SAPE  C21217633   6.328   0.299   7.480 -0.2003  0.2686  0.0735
  158SAPE  H12R17634   6.318   0.242   7.573 -1.2924  1.4608  0.7252
  158SAPE  C21317635   6.276   0.435   7.487 -0.3587  0.2798  0.2508
  158SAPE  H13R17636   6.186   0.437   7.553 -1.1590 -1.7743 -0.7141
  158SAPE  H13S17637   6.248   0.474   7.387 -3.3890 -1.6890  0.2097
  158SAPE  C21417638   6.380   0.531   7.539  0.1108 -0.7374  0.2477
  158SAPE  H14R17639   6.459   0.554   7.465  1.3981 -1.3508  1.3831
  158SAPE  C21517640   6.391   0.578   7.666  0.0486 -0.4334  0.0455
  158SAPE  H15R17641   6.466   0.656   7.686 -0.6979 -0.3182  2.7227
  158SAPE  C21617642   6.302   0.549   7.780 -0.1716  0.0942 -0.2051
  158SAPE  H16R17643   6.360   0.525   7.872  0.0766  0.7659 -0.1786
  158SAPE  H16S17644   6.245   0.456   7.757  1.5651 -1.3497  1.0081
  158SAPE  C21717645   6.200   0.656   7.810  0.2223  0.1080 -0.3739
  158SAPE  H17R17646   6.132   0.669   7.723 -0.3760  0.3681  0.1220
  158SAPE  H17S17647   6.250   0.756   7.817  0.8284 -0.2159  0.0337
  158SAPE  C21817648   6.116   0.637   7.942 -0.2012  0.5187 -0.2868
  158SAPE  H18R17649   6.170   0.669   8.033  0.5601 -1.3283 -0.0467
  158SAPE  H18S17650   6.080   0.532   7.951 -1.5152  0.8128 -1.5875
  158SAPE  C21917651   5.984   0.717   7.941  0.1641 -0.4592  0.4087
  158SAPE  H19R17652   5.927   0.686   7.850 -1.5188  2.4312  0.3626
  158SAPE  H19S17653   6.002   0.826   7.934  0.4567 -0.5465 -0.2758
  158SAPE  C22017654   5.898   0.688   8.069 -0.8889  0.4498  0.9247
  158SAPE  H20R17655   5.788   0.697   8.058 -0.7525 -0.0451 -1.2120
  158SAPE  H20S17656   5.940   0.752   8.150 -0.1801  1.1514  0.0199
  158SAPE  H20T17657   5.922   0.585   8.103 -0.7498 -0.0512 -0.6503
  158SAPE   C3317658   6.789   1.066   6.394  0.3602  0.4035 -0.1984
  158SAPE   H3X17659   6.784   1.150   6.322  0.4108  1.7520  1.3154
  158SAPE   H3Y17660   6.872   1.003   6.356  0.2642  0.6389 -0.8182
  158SAPE   C3417661   6.815   1.107   6.530 -0.4230  0.0323  0.6530
  158SAPE   H4X17662   6.846   1.024   6.598 -0.0750 -1.3119 -1.0721
  158SAPE   H4Y17663   6.733   1.154   6.587 -1.9071 -0.1418 -1.2622
  158SAPE   C3517664   6.928   1.211   6.523  0.3936 -0.0048 -0.3585
  158SAPE   H5X17665   6.893   1.281   6.444 -2.4214 -0.7069  0.1460
  158SAPE   H5Y17666   7.025   1.165   6.497  1.2488  0.4557  1.8066
  158SAPE   C3617667   6.953   1.286   6.661  0.0765 -0.0645  0.0609
  158SAPE   H6X17668   6.965   1.210   6.741  1.5008  1.6889  1.6046
  158SAPE   H6Y17669   6.860   1.346   6.675 -1.1078 -1.3802 -1.7446
  158SAPE   C3717670   7.065   1.393   6.647  0.7716  0.6630 -0.1225
  158SAPE   H7X17671   7.154   1.329   6.628 -1.2574 -2.3708 -0.1894
  158SAPE   H7Y17672   7.046   1.471   6.570 -0.8740  0.3772 -0.0378
  158SAPE   C3817673   7.083   1.473   6.776  0.1148  0.5654  0.3448
  158SAPE   H8X17674   7.104   1.405   6.862  2.5254 -0.5631 -1.0075
  158SAPE   H8Y17675   7.009   1.555   6.784  2.4783  2.6881  1.7097
  158SAPE   C3917676   7.220   1.551   6.767 -0.2708  0.0436  0.3914
  158SAPE   H9X17677   7.228   1.589   6.663 -0.4632 -1.2983 -0.1291
  158SAPE   H9Y17678   7.306   1.488   6.796  1.8220  3.4104  2.1547
  158SAPE  C31017679   7.225   1.678   6.861  0.0580 -0.1052 -0.3724
  158SAPE  H10X17680   7.170   1.752   6.799  0.2211  1.2229  1.0077
  158SAPE  H10Y17681   7.331   1.711   6.871 -0.0769 -0.3203  2.8773
  158SAPE  C31117682   7.159   1.665   7.002 -0.0326  0.8470 -0.4268
  158SAPE  H11X17683   7.209   1.577   7.049 -1.9860  0.2545  0.6568
  158SAPE  H11Y17684   7.054   1.631   6.988  0.9725 -2.4283 -0.8645
  158SAPE  C31217685   7.168   1.790   7.080  1.3391 -0.2867 -0.0445
  158SAPE  H12X17686   7.144   1.875   7.013  1.0467  0.1098  0.5544
  158SAPE  H12Y17687   7.271   1.810   7.118  0.6950  0.0812  1.6158
  158SAPE  C31317688   7.061   1.794   7.194 -0.5247  0.1225 -0.4788
  158SAPE  H13X17689   6.962   1.752   7.164  0.4129 -2.0955 -0.6480
  158SAPE  H13Y17690   7.041   1.896   7.233 -1.3977 -0.6497  1.1803
  158SAPE  C31417691   7.094   1.700   7.319 -0.3137  0.6266 -0.7889
  158SAPE  H14X17692   7.182   1.736   7.375  0.4896 -0.6079 -1.2107
  158SAPE  H14Y17693   7.136   1.609   7.271  1.6615  0.0794  1.7724
  158SAPE  C31517694   6.964   1.655   7.390  0.0467 -0.6916  0.2688
  158SAPE  H15X17695   6.987   1.563   7.448  0.4910 -0.1919  0.8957
  158SAPE  H15Y17696   6.890   1.618   7.316 -0.0794  1.5708 -0.8148
  158SAPE  C31617697   6.887   1.763   7.469  0.2563  0.7766 -0.0670
  158SAPE  H16X17698   6.779   1.740   7.481  0.5659 -3.0558 -2.7501
  158SAPE  H16Y17699   6.893   1.865   7.426  2.6336  1.5833  1.9248
  158SAPE  C31717700   6.953   1.794   7.606  0.4402 -0.3525  0.0666
  158SAPE  H17X17701   7.051   1.843   7.588  0.8377 -0.8777  0.7749
  158SAPE  H17Y17702   6.973   1.705   7.669  1.5358 -0.0993  0.1060
  158SAPE  C31817703   6.854   1.890   7.691 -0.1717 -0.4551  0.6621
  158SAPE  H18X17704   6.772   1.822   7.723  1.5230 -2.8392  0.2359
  158SAPE  H18Y17705   6.818   1.976   7.632  2.7132  0.3866  0.0061
  158SAPE  H18Z17706   6.909   1.917   7.783  1.8819 -2.5484  0.1612
  159SAPE     N17707   6.135   3.457   5.977 -0.7289 -0.2282  0.2539
  159SAPE   HN117708   6.053   3.410   5.933 -0.1779 -0.5208 -0.4814
  159SAPE   HN217709   6.093   3.545   6.013 -0.8959  1.6513 -3.9058
  159SAPE   HN317710   6.208   3.480   5.907  0.5141 -1.5959  1.0570
  159SAPE   C1217711   6.214   3.376   6.077 -0.4949  0.2853 -0.3458
  159SAPE  H12A17712   6.224   3.272   6.039  1.7244  0.2291  0.2648
  159SAPE  H12B17713   6.157   3.382   6.172 -1.0537 -1.3292 -0.5525
  159SAPE   C1117714   6.352   3.442   6.101 -0.3528  0.2911 -0.9399
  159SAPE  H11A17715   6.410   3.367   6.158  0.7103  1.2548 -0.7117
  159SAPE  H11B17716   6.327   3.532   6.162 -0.1744 -0.4134  0.2053
  159SAPE     P17717   6.579   3.458   5.969  0.0071 -0.2399 -0.4775
  159SAPE   O1317718   6.607   3.319   5.918  0.4317 -0.0795 -0.4776
  159SAPE   O1417719   6.629   3.574   5.887 -0.8121  0.3502  0.4721
  159SAPE   O1217720   6.421   3.468   5.980  0.2203 -0.0844  0.2850
  159SAPE   O1117721   6.631   3.475   6.123 -0.4543 -0.3917  0.3514
  159SAPE    C117722   6.642   3.601   6.177  0.5706 -0.2357 -0.1645
  159SAPE    HA17723   6.720   3.665   6.130  1.0229 -0.6996 -0.0567
  159SAPE    HB17724   6.546   3.655   6.164  0.4138 -0.6226 -0.6466
  159SAPE    C217725   6.664   3.591   6.332 -0.2253  0.4321  0.1484
  159SAPE    HS17726   6.760   3.537   6.341 -1.7611 -2.4597  0.1823
  159SAPE   O2117727   6.551   3.524   6.385  0.3623  0.2862 -0.2534
  159SAPE   C2117728   6.561   3.407   6.429 -0.3176  0.1880 -0.5089
  159SAPE   O2217729   6.650   3.325   6.424 -0.4244  0.9037  0.2604
  159SAPE   C2217730   6.433   3.376   6.512  0.5641  0.4678 -0.7061
  159SAPE   H2R17731   6.444   3.447   6.597  0.4978 -0.8058  0.3942
  159SAPE   H2S17732   6.349   3.401   6.444 -0.3387  1.6299  0.7671
  159SAPE    C317733   6.678   3.732   6.404 -0.0533  1.0159  0.0525
  159SAPE    HX17734   6.583   3.788   6.400  0.3342  1.7294  0.6204
  159SAPE    HY17735   6.758   3.773   6.338 -0.6186  0.2232 -1.1653
  159SAPE   O3117736   6.716   3.703   6.540 -0.3845  0.7129  0.3522
  159SAPE   C3117737   6.842   3.700   6.563  0.2381  0.2486 -0.0505
  159SAPE   O3217738   6.930   3.709   6.487 -0.1391 -0.1631  0.9645
  159SAPE   C3217739   6.868   3.684   6.715 -0.3349  0.0906  0.0770
  159SAPE   H2X17740   6.834   3.582   6.741  1.1716 -0.3293  0.5249
  159SAPE   H2Y17741   6.800   3.764   6.751 -1.0625 -0.9626  1.0841
  159SAPE   C2317742   6.414   3.249   6.585 -0.2510  0.7855  0.6590
  159SAPE   H3R17743   6.505   3.223   6.643  1.3907  2.8597 -0.8479
  159SAPE   H3S17744   6.412   3.172   6.504  0.5380  1.7934 -0.3465
  159SAPE   C2417745   6.296   3.243   6.675  0.2860  0.1025 -0.5835
  159SAPE   H4R17746   6.211   3.293   6.624  0.6837  4.3760  2.4423
  159SAPE   H4S17747   6.318   3.295   6.770  4.2579 -1.4073 -0.4826
  159SAPE   C2517748   6.252   3.101   6.700 -0.5875 -0.2055  0.6244
  159SAPE   H5R17749   6.204   3.056   6.612  3.6257 -2.1620 -0.8929
  159SAPE   C2617750   6.275   3.026   6.811 -0.4910  0.5267 -0.0844
  159SAPE   H6R17751   6.236   2.925   6.830  0.3144  0.4635  1.3646
  159SAPE   C2717752   6.344   3.075   6.939 -0.0414  0.7407 -0.5979
  159SAPE   H7R17753   6.273   3.114   7.015  0.1379 -0.4805  0.2334
  159SAPE   H7S17754   6.421   3.152   6.917  0.1483  0.4859 -0.8368
  159SAPE   C2817755   6.413   2.955   7.004 -0.0769  0.1558  0.8507
  159SAPE   H8R17756   6.492   2.916   6.937 -2.5774  1.1541 -2.9991
  159SAPE   C2917757   6.414   2.918   7.130  0.2259 -0.1744 -0.0117
  159SAPE   H9R17758   6.456   2.820   7.156  2.3983 -0.1896 -3.0000
  159SAPE  C21017759   6.335   2.975   7.248 -0.3015 -0.2656  0.4383
  159SAPE  H10R17760   6.339   3.084   7.227 -0.3384 -0.1717  0.9253
  159SAPE  H10S17761   6.394   2.959   7.341  1.4743 -0.0798 -0.6033
  159SAPE  C21117762   6.187   2.940   7.269 -0.0476 -0.6043  0.4822
  159SAPE  H11R17763   6.136   2.917   7.175  1.8468  2.0620 -1.3383
  159SAPE  C21217764   6.124   2.934   7.386  0.2976  0.0251  0.5721
  159SAPE  H12R17765   6.017   2.913   7.372  0.1705 -0.6801  2.3903
  159SAPE  C21317766   6.166   2.962   7.527  0.3643 -0.3305 -0.3467
  159SAPE  H13R17767   6.277   2.969   7.531  0.4821 -0.5410 -2.3536
  159SAPE  H13S17768   6.142   2.874   7.592 -2.4332  0.8181  0.3001
  159SAPE  C21417769   6.097   3.083   7.586  0.2286  0.0919 -1.3437
  159SAPE  H14R17770   5.993   3.070   7.621  0.9359  0.7222  1.2447
  159SAPE  C21517771   6.134   3.215   7.575 -0.1007  0.9738 -0.0836
  159SAPE  H15R17772   6.076   3.284   7.638 -2.4253 -2.2660  1.6271
  159SAPE  C21617773   6.272   3.252   7.528 -0.7014  0.1632 -0.3448
  159SAPE  H16R17774   6.260   3.359   7.499  1.6486  0.6824  0.4353
  159SAPE  H16S17775   6.301   3.194   7.438 -0.8593  2.1054 -1.7133
  159SAPE  C21717776   6.394   3.251   7.618 -0.1083  0.9490  0.1848
  159SAPE  H17R17777   6.467   3.318   7.567 -0.6586  1.2894 -0.1604
  159SAPE  H17S17778   6.422   3.143   7.624 -0.7501  0.8096  0.6809
  159SAPE  C21817779   6.368   3.313   7.757  0.7289  0.2681 -0.2490
  159SAPE  H18R17780   6.302   3.245   7.816  0.0331  1.2058  0.0692
  159SAPE  H18S17781   6.313   3.406   7.735 -0.8470 -1.0330 -2.1624
  159SAPE  C21917782   6.488   3.349   7.830 -0.0511  0.0881 -0.3541
  159SAPE  H19R17783   6.559   3.408   7.768  1.3432  0.0830  1.1591
  159SAPE  H19S17784   6.550   3.259   7.848  0.6626  0.3662 -1.3013
  159SAPE  C22017785   6.463   3.420   7.967 -0.1446 -1.1694 -0.5615
  159SAPE  H20R17786   6.388   3.372   8.034 -0.6757  1.4454  0.8802
  159SAPE  H20S17787   6.426   3.524   7.951 -0.9154 -0.9966  1.9543
  159SAPE  H20T17788   6.554   3.435   8.029 -0.7963  1.3901 -0.1130
  159SAPE   C3317789   7.020   3.717   6.746  1.0307  0.2737  0.2178
  159SAPE   H3X17790   7.037   3.824   6.722  0.7267  0.2438 -0.1463
  159SAPE   H3Y17791   7.084   3.649   6.686  0.4530  0.5565 -0.7533
  159SAPE   C3417792   7.050   3.693   6.894 -0.6983  0.6171  0.6419
  159SAPE   H4X17793   7.039   3.584   6.914  0.5402  0.3364 -0.1010
  159SAPE   H4Y17794   6.987   3.770   6.944  1.5367  4.1808 -1.5426
  159SAPE   C3517795   7.192   3.728   6.906  0.4170  0.9120 -0.3176
  159SAPE   H5X17796   7.210   3.834   6.877  0.7242  0.5645 -1.4264
  159SAPE   H5Y17797   7.246   3.662   6.835  1.1331  1.7947 -0.6049
  159SAPE   C3617798   7.250   3.686   7.049  0.1127  0.1740  0.7459
  159SAPE   H6X17799   7.361   3.691   7.053  0.1593 -0.3622  0.3394
  159SAPE   H6Y17800   7.219   3.581   7.068 -1.8021  0.5550 -0.1022
  159SAPE   C3717801   7.191   3.764   7.163 -0.4026 -0.3753 -0.6250
  159SAPE   H7X17802   7.081   3.749   7.168 -0.5693  0.9053  2.5972
  159SAPE   H7Y17803   7.208   3.873   7.153  0.0840 -0.1625  1.7751
  159SAPE   C3817804   7.222   3.725   7.313  0.5032  0.0324 -0.0794
  159SAPE   H8X17805   7.194   3.618   7.326 -1.5921  0.3847 -1.1431
  159SAPE   H8Y17806   7.159   3.793   7.374 -0.5581 -0.7420 -0.2777
  159SAPE   C3917807   7.371   3.736   7.357 -0.3998 -0.4227 -0.0604
  159SAPE   H9X17808   7.425   3.697   7.269  1.7617  0.1635  0.9318
  159SAPE   H9Y17809   7.394   3.668   7.442 -0.2387  1.8378  1.8174
  159SAPE  C31017810   7.421   3.883   7.375  1.1497 -0.2580 -0.1959
  159SAPE  H10X17811   7.405   3.933   7.277 -0.7840  2.2728  1.2921
  159SAPE  H10Y17812   7.531   3.879   7.393  1.3196  0.8405 -0.9266
  159SAPE  C31117813   7.354   3.967   7.486  0.1877 -0.3054  0.2822
  159SAPE  H11X17814   7.364   3.914   7.583 -0.7045 -1.4259 -0.2109
  159SAPE  H11Y17815   7.243   3.981   7.480  0.3314  0.6973 -0.2553
  159SAPE  C31217816   7.421   4.101   7.506  0.0058  0.5498 -0.1924
  159SAPE  H12X17817   7.365   4.158   7.582 -2.0473  0.5544 -1.6380
  159SAPE  H12Y17818   7.420   4.168   7.418  1.6042  1.3439  0.3513
  159SAPE  C31317819   7.572   4.091   7.527 -0.0898  0.6654  0.4292
  159SAPE  H13X17820   7.625   4.075   7.430 -2.1888 -3.1024 -0.3047
  159SAPE  H13Y17821   7.605   4.001   7.583  1.5534  0.9043 -0.0867
  159SAPE  C31417822   7.614   4.218   7.593  0.9852 -0.1031  0.2374
  159SAPE  H14X17823   7.553   4.246   7.681  2.3645  2.4854  0.4606
  159SAPE  H14Y17824   7.604   4.300   7.519 -0.3125  1.9032  2.5050
  159SAPE  C31517825   7.759   4.215   7.639  0.1824  0.1568  0.2057
  159SAPE  H15X17826   7.813   4.193   7.544 -1.0082  1.8856 -0.9166
  159SAPE  H15Y17827   7.771   4.131   7.711 -0.5939  0.3065  0.5277
  159SAPE  C31617828   7.804   4.355   7.687  0.3466  0.1409 -0.6422
  159SAPE  H16X17829   7.740   4.377   7.775 -0.5037 -1.5112 -0.8032
  159SAPE  H16Y17830   7.765   4.423   7.608 -0.6555  0.7665  0.3561
  159SAPE  C31717831   7.948   4.385   7.729  0.1515  0.1360  0.5786
  159SAPE  H17X17832   8.030   4.360   7.658  0.4870  1.7015  0.3725
  159SAPE  H17Y17833   7.957   4.332   7.826 -0.9098  0.9057  1.1154
  159SAPE  C31817834   7.972   4.536   7.760  0.8159 -0.2301  0.3838
  159SAPE  H18X17835   7.912   4.602   7.694  2.8411  0.9487 -0.3646
  159SAPE  H18Y17836   8.077   4.567   7.741  0.6017  2.5416  2.8557
  159SAPE  H18Z17837   7.942   4.556   7.866 -1.1656  2.2785 -0.5483
  160SAPE     N17838   6.317   1.814   5.898  0.1468 -1.0695 -0.8831
  160SAPE   HN117839   6.353   1.736   5.839  1.4318  0.3759 -2.1031
  160SAPE   HN217840   6.284   1.875   5.820  0.8072  2.5339  1.4374
  160SAPE   HN317841   6.401   1.859   5.939  0.6255  0.2761 -3.1516
  160SAPE   C1217842   6.206   1.772   5.993 -0.1547 -0.1493  0.0615
  160SAPE  H12A17843   6.250   1.708   6.073  2.0367  0.3897 -0.6424
  160SAPE  H12B17844   6.142   1.704   5.932  1.5799 -0.1837 -1.8059
  160SAPE   C1117845   6.131   1.884   6.062  0.4481 -0.9265  0.1482
  160SAPE  H11A17846   6.196   1.959   6.112 -0.4314 -0.2000  0.2182
  160SAPE  H11B17847   6.075   1.846   6.150 -0.4889  2.3498  1.0807
  160SAPE     P17848   5.904   2.005   6.018  0.3318 -0.5543 -0.4931
  160SAPE   O1317849   5.918   2.126   6.105  0.4440 -0.2390 -0.2143
  160SAPE   O1417850   5.810   2.025   5.902 -0.0383  0.4477 -0.3185
  160SAPE   O1217851   6.044   1.957   5.976  0.0713 -0.1688 -0.1960
  160SAPE   O1117852   5.848   1.885   6.106 -0.1013  0.6097 -0.4142
  160SAPE    C117853   5.710   1.864   6.132 -0.4794 -0.4209 -0.1252
  160SAPE    HA17854   5.642   1.929   6.075  0.9515  0.6505 -0.6736
  160SAPE    HB17855   5.693   1.754   6.127  0.1306 -0.6023  1.2149
  160SAPE    C217856   5.667   1.899   6.284  0.7578 -0.3705 -0.4168
  160SAPE    HS17857   5.673   2.009   6.299  1.6200 -0.6346  1.4549
  160SAPE   O2117858   5.760   1.823   6.368 -0.0030  0.2140  0.0134
  160SAPE   C2117859   5.788   1.884   6.478 -0.2103 -0.3605 -0.5090
  160SAPE   O2217860   5.755   1.998   6.519 -0.1101  0.2485  0.2574
  160SAPE   C2217861   5.885   1.789   6.556  0.2215  0.0221 -0.1807
  160SAPE   H2R17862   5.833   1.692   6.573  0.2926 -0.0675 -0.4709
  160SAPE   H2S17863   5.981   1.774   6.502 -0.7621  0.9035 -2.2521
  160SAPE    C317864   5.518   1.859   6.301 -0.7364 -0.8881  0.0756
  160SAPE    HX17865   5.511   1.751   6.276  1.1757 -1.0181 -0.0129
  160SAPE    HY17866   5.460   1.908   6.221 -0.3942 -2.3094 -1.0785
  160SAPE   O3117867   5.465   1.894   6.430  0.9655  0.1127  0.1095
  160SAPE   C3117868   5.357   1.975   6.434 -0.1310 -0.0774  0.5363
  160SAPE   O3217869   5.318   2.046   6.343  0.8590  0.2521 -0.1451
  160SAPE   C3217870   5.296   1.972   6.576  0.3372 -0.1176 -0.2460
  160SAPE   H2X17871   5.381   2.015   6.634  1.0458 -0.1886 -1.2107
  160SAPE   H2Y17872   5.284   1.866   6.606  0.7465 -0.5828 -1.6524
  160SAPE   C2317873   5.929   1.852   6.694  0.4268 -0.0922 -0.0347
  160SAPE   H3R17874   5.845   1.868   6.765  0.2782 -0.4769 -0.1215
  160SAPE   H3S17875   5.983   1.948   6.678  0.9176  0.4268  3.8202
  160SAPE   C2417876   6.032   1.760   6.759 -0.2052 -0.3370 -0.0642
  160SAPE   H4R17877   6.095   1.818   6.830  0.0606  0.1827 -0.7078
  160SAPE   H4S17878   6.100   1.750   6.671 -1.0125  2.0274 -1.0446
  160SAPE   C2517879   5.980   1.630   6.825 -0.9335  0.1820 -0.5397
  160SAPE   H5R17880   5.902   1.576   6.770 -0.7905 -0.3255 -0.2517
  160SAPE   C2617881   6.026   1.576   6.941 -0.8715  0.2104  0.4798
  160SAPE   H6R17882   5.972   1.489   6.981 -3.0508  0.5618 -1.4826
  160SAPE   C2717883   6.119   1.641   7.039  0.2493 -0.0615  0.4575
  160SAPE   H7R17884   6.053   1.680   7.120 -0.1960  3.2127 -1.3023
  160SAPE   H7S17885   6.160   1.736   6.999 -4.4721  2.0674 -0.0939
  160SAPE   C2817886   6.229   1.550   7.080  0.1564  0.1051 -0.9724
  160SAPE   H8R17887   6.301   1.517   7.003  0.5077  0.1153 -0.6458
  160SAPE   C2917888   6.246   1.505   7.206  0.4591  0.2936 -1.1400
  160SAPE   H9R17889   6.338   1.446   7.217  0.2821 -0.3027 -2.6902
  160SAPE  C21017890   6.160   1.527   7.331  0.4929  0.5021 -0.1219
  160SAPE  H10R17891   6.181   1.441   7.398 -3.0149 -1.7466 -1.6233
  160SAPE  H10S17892   6.060   1.518   7.283 -0.0121  3.2820  0.2340
  160SAPE  C21117893   6.176   1.666   7.388  0.0292 -0.4331  0.5753
  160SAPE  H11R17894   6.260   1.725   7.349  0.1662  0.1013  1.6566
  160SAPE  C21217895   6.095   1.721   7.482  0.2441  0.2048  0.2056
  160SAPE  H12R17896   6.114   1.828   7.502 -0.7749 -0.1364  3.7689
  160SAPE  C21317897   5.980   1.658   7.561  0.0477 -0.1535  0.5087
  160SAPE  H13R17898   5.960   1.563   7.507  0.3261  0.4594 -0.7184
  160SAPE  H13S17899   5.895   1.730   7.552 -0.8584 -1.1698  0.6845
  160SAPE  C21417900   6.040   1.631   7.698  0.6000 -0.1972  0.2325
  160SAPE  H14R17901   6.137   1.580   7.697 -0.0159 -1.4538  1.0401
  160SAPE  C21517902   5.971   1.630   7.819  0.4050  0.4066  0.3890
  160SAPE  H15R17903   6.021   1.596   7.911  0.8599 -0.4131 -0.1423
  160SAPE  C21617904   5.839   1.688   7.828  0.0432 -0.7902 -0.1399
  160SAPE  H16R17905   5.780   1.617   7.890 -2.5230 -0.4851 -2.0464
  160SAPE  H16S17906   5.786   1.691   7.730 -0.0680 -1.4768 -0.1063
  160SAPE  C21717907   5.840   1.836   7.881 -0.1512  0.0882 -0.7652
  160SAPE  H17R17908   5.911   1.893   7.819 -1.4502  0.4834 -1.9409
  160SAPE  H17S17909   5.874   1.828   7.987 -1.5230 -0.3443 -0.3278
  160SAPE  C21817910   5.706   1.917   7.874 -0.1724 -0.8067  0.4250
  160SAPE  H18R17911   5.677   1.921   7.767  0.6272  0.5873  0.2423
  160SAPE  H18S17912   5.713   2.019   7.916  1.4580  0.4306 -2.5262
  160SAPE  C21917913   5.600   1.828   7.948 -0.7207 -0.2420  0.2798
  160SAPE  H19R17914   5.643   1.792   8.044 -0.8319 -2.1268 -0.3383
  160SAPE  H19S17915   5.582   1.739   7.884  1.0836  0.7956 -1.8471
  160SAPE  C22017916   5.472   1.901   7.985 -0.0221 -0.1084  0.3824
  160SAPE  H20R17917   5.493   1.994   8.041 -1.8596 -0.9032  2.5564
  160SAPE  H20S17918   5.427   1.839   8.066  1.8446 -2.0026  0.0808
  160SAPE  H20T17919   5.403   1.933   7.905  0.6390 -1.9546 -1.0081
  160SAPE   C3317920   5.188   2.073   6.590  0.3130 -0.4327  0.3663
  160SAPE   H3X17921   5.089   2.051   6.544 -1.5133  3.2773  2.1160
  160SAPE   H3Y17922   5.223   2.173   6.557  2.4200 -1.8885 -2.2520
  160SAPE   C3417923   5.152   2.090   6.741 -0.0398 -0.4144 -0.0375
  160SAPE   H4X17924   5.045   2.121   6.739 -0.3875 -1.5064 -2.8390
  160SAPE   H4Y17925   5.209   2.167   6.798 -2.8739  0.8978  1.2299
  160SAPE   C3517926   5.150   1.958   6.824 -0.1148 -0.3120 -0.0373
  160SAPE   H5X17927   5.251   1.914   6.831 -0.6711 -1.3627  2.7905
  160SAPE   H5Y17928   5.086   1.886   6.768 -0.0867 -2.0979  2.0991
  160SAPE   C3617929   5.109   1.983   6.971  0.1521  0.5389  0.2483
  160SAPE   H6X17930   5.006   2.022   6.980  0.9106  2.8624 -0.5463
  160SAPE   H6Y17931   5.178   2.061   7.009  1.9505 -0.2360 -1.2661
  160SAPE   C3717932   5.139   1.861   7.062  0.4058 -0.0381 -0.1521
  160SAPE   H7X17933   5.244   1.828   7.051  0.4400 -0.1459  0.4907
  160SAPE   H7Y17934   5.077   1.777   7.024 -0.3809 -0.1807  1.3796
  160SAPE   C3817935   5.124   1.894   7.218 -0.6069 -0.0094 -0.0754
  160SAPE   H8X17936   5.035   1.960   7.226 -0.7972 -0.0475 -1.5580
  160SAPE   H8Y17937   5.214   1.954   7.245 -0.9201 -0.2049  1.4741
  160SAPE   C3917938   5.101   1.770   7.300 -0.8756  0.6654  0.0462
  160SAPE   H9X17939   5.195   1.710   7.298  0.5968  2.8667 -0.4513
  160SAPE   H9Y17940   5.023   1.711   7.248  0.1286  1.0761 -2.0384
  160SAPE  C31017941   5.078   1.793   7.445  0.1628 -0.5846 -0.5204
  160SAPE  H10X17942   5.002   1.874   7.453 -0.3175 -1.1195  0.5620
  160SAPE  H10Y17943   5.175   1.828   7.487 -0.4410  1.1275 -0.4805
  160SAPE  C31117944   5.026   1.671   7.523 -0.8495  0.2937 -0.0354
  160SAPE  H11X17945   5.066   1.580   7.474 -0.3225 -0.2448  1.3398
  160SAPE  H11Y17946   4.915   1.661   7.512 -0.7831 -1.6364  0.6993
  160SAPE  C31217947   5.069   1.659   7.674 -0.4460 -0.4545 -0.4057
  160SAPE  H12X17948   5.174   1.621   7.674 -1.3915 -3.3260 -1.4558
  160SAPE  H12Y17949   5.010   1.578   7.722  1.6635  0.5055  4.5358
  160SAPE  C31317950   5.049   1.788   7.749 -0.1377  0.4626  0.0185
  160SAPE  H13X17951   4.940   1.789   7.771 -0.1597 -1.2575  0.0645
  160SAPE  H13Y17952   5.080   1.872   7.682  0.1324  0.3868  0.0492
  160SAPE  C31417953   5.129   1.802   7.877 -0.4974 -0.7213  0.1475
  160SAPE  H14X17954   5.117   1.902   7.924  0.8497 -0.5105  0.1062
  160SAPE  H14Y17955   5.235   1.795   7.845 -0.1624 -1.0097  1.2676
  160SAPE  C31517956   5.105   1.702   7.992 -0.2979 -0.1147 -0.3727
  160SAPE  H15X17957   5.182   1.722   8.069  1.8847 -2.1027 -1.8826
  160SAPE  H15Y17958   5.125   1.597   7.961  1.1819  0.2907 -0.8387
  160SAPE  C31617959   4.961   1.695   8.041 -0.1484 -1.0541 -0.1363
  160SAPE  H16X17960   4.897   1.661   7.957  1.8571 -2.7425 -1.0775
  160SAPE  H16Y17961   4.936   1.798   8.074  0.0764 -0.5798 -1.3928
  160SAPE  C31717962   4.953   1.593   8.157 -0.0796  0.2072  0.0221
  160SAPE  H17X17963   4.848   1.591   8.193 -0.2736 -3.2847 -0.3918
  160SAPE  H17Y17964   5.009   1.636   8.243  0.5977 -0.0779 -0.2749
  160SAPE  C31817965   4.994   1.443   8.135  0.3919  0.2974  0.2182
  160SAPE  H18X17966   5.100   1.434   8.103 -0.3327 -1.4311 -1.9603
  160SAPE  H18Y17967   4.938   1.392   8.054  2.9389  1.2428 -2.3463
  160SAPE  H18Z17968   4.983   1.389   8.231 -1.1494  0.2614  0.0518
  161SOPE     N17969   3.105   6.080  10.111  0.0821 -0.3409 -0.5102
  161SOPE   HN117970   3.072   5.990  10.071 -1.6656  0.2965 -0.5780
  161SOPE   HN217971   3.116   6.146  10.031 -0.9117  0.0307 -0.3600
  161SOPE   HN317972   3.197   6.064  10.157  0.1612  0.1438 -0.4983
  161SOPE   C1217973   3.000   6.126  10.209  0.4113  0.3982  0.1716
  161SOPE  H12A17974   3.033   6.224  10.248  0.3049  1.1559 -1.5473
  161SOPE  H12B17975   2.995   6.055  10.294  1.4392 -0.7987 -0.7212
  161SOPE   C1117976   2.853   6.142  10.150 -0.4289 -1.0778 -0.0646
  161SOPE  H11A17977   2.857   6.191  10.050  0.5748 -0.1604  0.4039
  161SOPE  H11B17978   2.795   6.206  10.220 -0.2761 -1.1602  0.1345
  161SOPE     P17979   2.643   5.988  10.097  0.0047  0.2979  0.1926
  161SOPE   O1317980   2.577   6.124  10.101 -1.0860  0.2785  0.2881
  161SOPE   O1417981   2.580   5.880  10.174 -0.1346 -0.1089 -0.0163
  161SOPE   O1217982   2.793   6.009  10.138  0.3195  0.3469  0.3255
  161SOPE   O1117983   2.658   5.945   9.949  0.1228  0.0597 -0.5742
  161SOPE    C117984   2.711   5.822   9.905  0.3303  0.4524  0.6875
  161SOPE    HA17985   2.656   5.775   9.821  0.0783 -0.3467  1.2859
  161SOPE    HB17986   2.727   5.753   9.990 -0.7831 -0.0328  0.5217
  161SOPE    C217987   2.856   5.856   9.865 -0.6790  0.5026  0.9306
  161SOPE    HS17988   2.912   5.882   9.957  1.0875 -1.3469  0.4557
  161SOPE   O2117989   2.848   5.957   9.763  0.0891 -1.0031 -0.3221
  161SOPE   C2117990   2.957   6.033   9.759  0.7677 -0.3532  0.2115
  161SOPE   O2217991   3.053   6.023   9.833  0.1412 -0.3337 -0.4284
  161SOPE   C2217992   2.962   6.125   9.635  0.4373 -0.3150 -0.1543
  161SOPE   H2R17993   2.899   6.076   9.557 -1.1983 -2.6451  2.4533
  161SOPE   H2S17994   3.067   6.152   9.610  1.2489 -1.9528  1.2743
  161SOPE    C317995   2.939   5.729   9.816  0.0439 -0.4250  0.1628
  161SOPE    HX17996   2.927   5.643   9.885  2.2608 -0.3705  0.7115
  161SOPE    HY17997   3.046   5.756   9.828 -0.0577  0.7958 -1.3777
  161SOPE   O3117998   2.907   5.693   9.682  0.4740 -0.2225 -0.2364
  161SOPE   C3117999   2.967   5.748   9.576 -0.0566 -0.1673  0.5072
  161SOPE   O3218000   3.071   5.813   9.578  0.3138  0.2109 -0.3342
  161SOPE   C3218001   2.884   5.720   9.451 -0.2528  0.4235  0.0003
  161SOPE   H2X18002   2.848   5.817   9.410  0.1270  1.4098  1.8696
  161SOPE   H2Y18003   2.792   5.663   9.475  0.0453  0.1908  0.6112
  161SOPE   C2318004   2.895   6.267   9.662 -0.6267 -0.3019  0.5834
  161SOPE   H3R18005   2.921   6.319   9.757 -1.7245  0.1443  0.6533
  161SOPE   H3S18006   2.788   6.238   9.662 -1.4130  2.1248 -2.1048
  161SOPE   C2418007   2.912   6.370   9.548  0.4185  0.0193 -0.0361
  161SOPE   H4R18008   2.845   6.457   9.561  0.1454  0.0448 -1.4716
  161SOPE   H4S18009   3.020   6.397   9.556  0.6395 -0.7041 -0.4666
  161SOPE   C2518010   2.892   6.312   9.411  0.4951 -0.0180  0.2126
  161SOPE   H5R18011   2.975   6.246   9.379  1.3766  2.4950 -3.1672
  161SOPE   H5S18012   2.799   6.253   9.396  0.8536 -0.8600  1.1719
  161SOPE   C2618013   2.890   6.421   9.303 -0.0045 -0.2748  0.3125
  161SOPE   H6R18014   2.813   6.496   9.330 -0.6282 -1.0389  0.7098
  161SOPE   H6S18015   2.991   6.466   9.299 -0.8205  1.5693 -1.8002
  161SOPE   C2718016   2.865   6.350   9.165  0.1481  0.3124  0.1773
  161SOPE   H7R18017   2.942   6.272   9.148 -1.9940 -1.5355 -1.7379
  161SOPE   H7S18018   2.761   6.315   9.185 -0.2009  1.0900 -0.2195
  161SOPE   C2818019   2.881   6.446   9.046 -0.3771 -0.6453  0.3518
  161SOPE   H8R18020   2.817   6.531   9.077  1.9428  1.7008 -0.9307
  161SOPE   H8S18021   2.979   6.497   9.044  0.1475 -1.6194  0.4256
  161SOPE   C2918022   2.833   6.412   8.909 -0.1403  0.4129 -0.1294
  161SOPE   H9118023   2.766   6.324   8.912  0.3896  0.0238  0.9184
  161SOPE  C21018024   2.858   6.472   8.798 -1.0931  0.0308  0.5782
  161SOPE  H10118025   2.817   6.428   8.706 -1.3133  0.0586  0.6625
  161SOPE  C21118026   2.955   6.589   8.785  0.7019 -0.1377  0.4759
  161SOPE  H11R18027   3.050   6.554   8.739  1.5622 -0.7733  2.6392
  161SOPE  H11S18028   2.996   6.635   8.878  0.6369  0.4573  0.2150
  161SOPE  C21218029   2.895   6.696   8.701  0.4882 -0.5390  0.1669
  161SOPE  H12R18030   2.880   6.647   8.603  0.0941  0.0245 -0.0619
  161SOPE  H12S18031   2.964   6.780   8.678 -0.2697  0.0289 -0.0984
  161SOPE  C21318032   2.764   6.766   8.760 -0.5577  0.3610  0.0788
  161SOPE  H13R18033   2.685   6.688   8.755  1.0419 -1.3515  0.1433
  161SOPE  H13S18034   2.739   6.856   8.700 -0.6470  0.7310  0.6687
  161SOPE  C21418035   2.779   6.796   8.908  0.2835 -0.3861  0.0368
  161SOPE  H14R18036   2.857   6.873   8.927  2.3417 -2.8173  2.0261
  161SOPE  H14S18037   2.806   6.706   8.967 -0.4624 -0.7402 -0.1475
  161SOPE  C21518038   2.652   6.858   8.972  0.5823 -0.2280  0.3027
  161SOPE  H15R18039   2.564   6.796   8.945  0.3127  0.6717 -0.9638
  161SOPE  H15S18040   2.634   6.960   8.932 -1.8339  0.2691  2.3551
  161SOPE  C21618041   2.653   6.879   9.121 -0.1912 -0.0451 -1.0422
  161SOPE  H16R18042   2.752   6.927   9.139 -1.0820  2.2121 -1.7866
  161SOPE  H16S18043   2.662   6.783   9.175 -0.5372  0.8066  0.5825
  161SOPE  C21718044   2.528   6.943   9.174 -0.1468  0.0698  0.0359
  161SOPE  H17R18045   2.443   6.881   9.140  0.5150 -0.7000 -0.2532
  161SOPE  H17S18046   2.517   7.041   9.123 -1.9020  0.7765  1.6367
  161SOPE  C21818047   2.539   6.977   9.324 -0.4628 -0.7669  0.3582
  161SOPE  H18R18048   2.448   7.026   9.366 -1.0185  1.2969 -2.8994
  161SOPE  H18S18049   2.624   7.047   9.338 -0.0134 -0.2629 -3.8369
  161SOPE  H18T18050   2.562   6.893   9.393  1.4630  1.5656  2.7648
  161SOPE   C3318051   2.983   5.640   9.364  0.1921  0.0914  0.4006
  161SOPE   H3X18052   3.027   5.554   9.419  2.4824  0.5948 -0.5564
  161SOPE   H3Y18053   3.073   5.699   9.339  0.6571 -0.4505  0.7840
  161SOPE   C3418054   2.923   5.605   9.230  0.8992 -0.2590  0.1825
  161SOPE   H4X18055   3.007   5.595   9.159 -0.1338  0.1743 -1.1400
  161SOPE   H4Y18056   2.865   5.695   9.201 -0.6794 -1.8107 -1.8590
  161SOPE   C3518057   2.819   5.493   9.249  0.0230  0.1874  0.6625
  161SOPE   H5X18058   2.721   5.528   9.287 -1.5378 -2.9837 -0.0594
  161SOPE   H5Y18059   2.849   5.425   9.331 -0.5274  0.2057  0.8836
  161SOPE   C3618060   2.800   5.413   9.117 -0.0922  0.0978 -0.6968
  161SOPE   H6X18061   2.724   5.335   9.140  2.2722 -1.8732  0.8918
  161SOPE   H6Y18062   2.898   5.361   9.109 -0.4433 -0.7961  0.4862
  161SOPE   C3718063   2.742   5.489   8.998  0.3254 -0.1533  0.1034
  161SOPE   H7X18064   2.810   5.567   8.955  0.5310  0.1793  1.0153
  161SOPE   H7Y18065   2.651   5.542   9.033  1.8421  3.2293 -0.6764
  161SOPE   C3818066   2.709   5.385   8.888 -0.3921 -0.3136 -0.0355
  161SOPE   H8X18067   2.649   5.295   8.916 -0.4702 -0.3300 -0.2494
  161SOPE   H8Y18068   2.807   5.349   8.851 -1.0809 -1.3569 -0.9249
  161SOPE   C3918069   2.647   5.456   8.763  0.4372  0.3303 -0.1430
  161SOPE   H9X18070   2.725   5.523   8.721  0.3613 -0.1879 -1.1575
  161SOPE   H9Y18071   2.554   5.512   8.785  0.0138  0.4966 -2.1283
  161SOPE  C31018072   2.618   5.358   8.652  0.1165 -0.3634 -0.2800
  161SOPE  H10X18073   2.558   5.268   8.678 -1.7772  0.4545 -1.5634
  161SOPE  H10Y18074   2.715   5.321   8.614  1.3817  2.0557  0.4416
  161SOPE  C31118075   2.545   5.423   8.529 -0.6082  0.2748  0.1578
  161SOPE  H11X18076   2.457   5.486   8.551 -0.4295  0.3714  0.6097
  161SOPE  H11Y18077   2.510   5.332   8.474  1.4808 -0.5455  0.0960
  161SOPE  C31218078   2.640   5.505   8.437  0.7158 -0.3127 -0.3801
  161SOPE  H12X18079   2.708   5.450   8.369  2.3095  1.0978  0.0058
  161SOPE  H12Y18080   2.722   5.555   8.493  0.7852 -0.3121 -0.4822
  161SOPE  C31318081   2.566   5.618   8.361  0.2992 -0.1844 -0.1703
  161SOPE  H13X18082   2.640   5.695   8.328 -1.0586  1.0784 -0.3744
  161SOPE  H13Y18083   2.489   5.660   8.429 -1.2282 -1.1958 -1.2347
  161SOPE  C31418084   2.501   5.560   8.233 -0.0348  0.3254  0.2462
  161SOPE  H14X18085   2.413   5.498   8.261 -0.7578  1.9387  1.7385
  161SOPE  H14Y18086   2.570   5.496   8.175 -0.2498 -1.3323  1.7375
  161SOPE  C31518087   2.462   5.675   8.137 -0.1654  0.1449 -0.9836
  161SOPE  H15X18088   2.546   5.746   8.119 -1.0596  1.1145 -1.4772
  161SOPE  H15Y18089   2.384   5.728   8.196 -0.0098 -2.5717  1.9216
  161SOPE  C31618090   2.411   5.624   7.997  0.0779  0.2792 -0.2989
  161SOPE  H16X18091   2.370   5.712   7.942 -0.3180  0.8353  0.8502
  161SOPE  H16Y18092   2.323   5.558   8.011  0.4584  0.1909  2.0935
  161SOPE  C31718093   2.517   5.547   7.912  0.0335 -0.5064  0.0706
  161SOPE  H17X18094   2.546   5.455   7.968 -1.6886 -2.0294 -1.4132
  161SOPE  H17Y18095   2.604   5.616   7.916 -0.6396  0.3352  0.5030
  161SOPE  C31818096   2.497   5.511   7.771 -0.1144  0.1225  0.4287
  161SOPE  H18X18097   2.594   5.465   7.741 -0.9359 -2.9592  2.0721
  161SOPE  H18Y18098   2.475   5.598   7.705 -2.3017 -0.5862  0.1269
  161SOPE  H18Z18099   2.423   5.429   7.760  0.6904 -0.7767  1.4938
  162SOPE     N18100   2.009   5.751  10.142  0.1864 -0.0773  0.3532
  162SOPE   HN118101   1.984   5.852  10.153  1.2236  0.2367 -0.0153
  162SOPE   HN218102   2.040   5.702  10.229  0.2520 -2.0685 -0.7562
  162SOPE   HN318103   2.094   5.760  10.084  0.0623 -2.4003 -0.2670
  162SOPE   C1218104   1.893   5.674  10.083  0.4337  0.5971  0.1390
  162SOPE  H12A18105   1.858   5.717   9.987  1.3923 -2.2567 -1.6233
  162SOPE  H12B18106   1.812   5.682  10.159 -1.2152 -0.4814 -1.4366
  162SOPE   C1118107   1.924   5.523  10.063 -0.0009 -1.2547 -0.3832
  162SOPE  H11A18108   1.985   5.482  10.147 -1.0811  1.1703  1.6940
  162SOPE  H11B18109   1.990   5.519   9.973  0.4621 -0.5571 -0.0771
  162SOPE     P18110   1.707   5.458   9.942 -0.1136  0.2764  0.3546
  162SOPE   O1318111   1.653   5.591   9.950  0.1166  0.4957 -0.0700
  162SOPE   O1418112   1.608   5.349   9.951  0.0833 -0.3180 -0.5943
  162SOPE   O1218113   1.812   5.441  10.054  0.2570 -0.3888 -0.1360
  162SOPE   O1118114   1.779   5.451   9.809 -0.3365  0.0351 -1.2795
  162SOPE    C118115   1.878   5.351   9.787 -0.1530 -0.6898 -0.5889
  162SOPE    HA18116   1.876   5.253   9.839  0.2694  0.2279  1.2198
  162SOPE    HB18117   1.979   5.394   9.805 -0.1425 -0.6486 -0.7431
  162SOPE    C218118   1.874   5.312   9.636  0.2260 -0.2846 -0.1082
  162SOPE    HS18119   1.952   5.241   9.601 -0.5672 -1.9384  1.3339
  162SOPE   O2118120   1.888   5.432   9.557 -0.2732 -0.2660 -0.2814
  162SOPE   C2118121   2.017   5.471   9.538  0.1186 -0.3276  0.4992
  162SOPE   O2218122   2.114   5.412   9.589 -0.2555 -0.1444  0.0106
  162SOPE   C2218123   2.016   5.597   9.464 -0.2108  0.2983 -1.2005
  162SOPE   H2R18124   2.015   5.672   9.547 -1.0192  0.0359 -0.9656
  162SOPE   H2S18125   1.919   5.617   9.413 -1.2015 -2.4406 -0.5321
  162SOPE    C318126   1.741   5.237   9.606  0.3963 -0.2420 -0.2454
  162SOPE    HX18127   1.658   5.310   9.615 -0.8542 -1.5122 -1.1481
  162SOPE    HY18128   1.732   5.165   9.691 -0.6739  0.1679 -0.0026
  162SOPE   O3118129   1.742   5.165   9.478  0.1501 -0.3703 -0.1846
  162SOPE   C3118130   1.658   5.060   9.471  0.3726  0.2442 -0.0253
  162SOPE   O3218131   1.587   5.031   9.561 -0.2068  0.2989 -0.8390
  162SOPE   C3218132   1.685   4.974   9.348  0.5324 -0.2173 -0.4106
  162SOPE   H2X18133   1.791   4.942   9.354  0.4224 -0.3963  1.3823
  162SOPE   H2Y18134   1.668   5.033   9.256  0.7295  1.8955  0.8322
  162SOPE   C2318135   2.145   5.603   9.385 -0.0529  0.3300  0.5689
  162SOPE   H3R18136   2.236   5.581   9.445 -0.2109 -0.6270  0.4854
  162SOPE   H3S18137   2.155   5.705   9.342  0.2889 -0.4620 -1.3368
  162SOPE   C2418138   2.155   5.509   9.264  0.2549  0.4804  0.1130
  162SOPE   H4R18139   2.139   5.400   9.281  0.0971  0.7305  1.7563
  162SOPE   H4S18140   2.079   5.558   9.200 -0.6786  2.6883  2.7193
  162SOPE   C2518141   2.302   5.514   9.205  0.2875 -0.4847  0.3422
  162SOPE   H5R18142   2.331   5.621   9.212  1.6883 -0.8473  0.3313
  162SOPE   H5S18143   2.376   5.455   9.262 -0.2691 -1.1188  0.4086
  162SOPE   C2618144   2.309   5.467   9.056 -0.1558 -0.8361 -0.0248
  162SOPE   H6R18145   2.235   5.520   8.993  0.2321 -1.1829 -0.7903
  162SOPE   H6S18146   2.405   5.511   9.023 -1.6863  1.5447 -1.6097
  162SOPE   C2718147   2.300   5.308   9.030 -0.2099 -0.0651 -0.4670
  162SOPE   H7R18148   2.386   5.265   9.087  0.1635  0.0091 -0.9630
  162SOPE   H7S18149   2.209   5.266   9.077 -0.1817  1.4193  1.0336
  162SOPE   C2818150   2.304   5.259   8.885 -0.5851 -0.0963 -0.7152
  162SOPE   H8R18151   2.217   5.305   8.834 -0.5786 -0.2477 -0.8650
  162SOPE   H8S18152   2.397   5.300   8.840 -0.6764  2.2704  1.0742
  162SOPE   C2918153   2.296   5.109   8.867  0.2156 -0.0540  0.3435
  162SOPE   H9118154   2.326   5.055   8.958 -0.6577  0.7174  1.1126
  162SOPE  C21018155   2.253   5.042   8.757  0.0013 -0.4206  0.2661
  162SOPE  H10118156   2.258   4.932   8.753 -0.8292 -0.4192 -2.1044
  162SOPE  C21118157   2.212   5.112   8.634  0.8576 -0.0411 -0.1572
  162SOPE  H11R18158   2.277   5.064   8.557 -0.6015 -1.0220 -0.8355
  162SOPE  H11S18159   2.222   5.222   8.635 -2.5370  0.3978  2.7102
  162SOPE  C21218160   2.055   5.082   8.607 -0.1521 -0.1785 -0.4547
  162SOPE  H12R18161   2.002   5.119   8.697  0.2328 -1.7595  0.4629
  162SOPE  H12S18162   2.048   4.971   8.596  2.6687 -0.3927 -0.8808
  162SOPE  C21318163   2.012   5.150   8.479 -0.2336  0.6386  0.0977
  162SOPE  H13R18164   2.036   5.080   8.396 -3.8037 -1.6670  0.7599
  162SOPE  H13S18165   2.074   5.240   8.456  2.4050 -1.3615 -1.1530
  162SOPE  C21418166   1.862   5.180   8.460 -0.2973 -0.5330  0.6169
  162SOPE  H14R18167   1.836   5.250   8.542 -1.2703 -0.1066 -0.0351
  162SOPE  H14S18168   1.819   5.079   8.478  2.7605 -1.9472  0.5993
  162SOPE  C21518169   1.830   5.239   8.315  0.0684 -0.4373  0.1858
  162SOPE  H15R18170   1.725   5.274   8.307 -0.0180 -0.3726  1.3589
  162SOPE  H15S18171   1.840   5.159   8.239  1.3640  0.5533 -0.7291
  162SOPE  C21618172   1.911   5.362   8.282 -0.2687 -0.5938 -0.1845
  162SOPE  H16R18173   2.018   5.332   8.278 -0.3342 -0.7218 -1.4942
  162SOPE  H16S18174   1.914   5.429   8.371  1.3086  0.3490 -0.9045
  162SOPE  C21718175   1.865   5.423   8.145  0.0252  0.5134 -0.1590
  162SOPE  H17R18176   1.756   5.428   8.165  0.2737 -0.9030  1.8498
  162SOPE  H17S18177   1.891   5.346   8.069 -1.0018  0.5714 -0.5875
  162SOPE  C21818178   1.937   5.554   8.118  0.1980 -0.6781  0.5712
  162SOPE  H18R18179   1.903   5.618   8.202  1.6152 -0.2781  0.8664
  162SOPE  H18S18180   1.910   5.575   8.012  1.5290 -0.5859  0.2338
  162SOPE  H18T18181   2.047   5.541   8.119  0.3138  0.1397 -0.3549
  162SOPE   C3318182   1.583   4.865   9.355 -0.0406  0.5485  0.4550
  162SOPE   H3X18183   1.478   4.899   9.369 -0.1321  0.1594  0.7113
  162SOPE   H3Y18184   1.599   4.801   9.444 -2.1768  0.7241  1.0189
  162SOPE   C3418185   1.574   4.792   9.224 -0.2244  0.2274 -0.0714
  162SOPE   H4X18186   1.674   4.750   9.197  0.0492  0.1020  1.0570
  162SOPE   H4Y18187   1.555   4.869   9.147  0.2870 -0.3961 -0.8337
  162SOPE   C3518188   1.463   4.691   9.204  0.0880 -0.9688 -0.3239
  162SOPE   H5X18189   1.429   4.664   9.306 -0.6579 -1.0426 -0.5880
  162SOPE   H5Y18190   1.497   4.605   9.142  0.7292  1.4795 -3.6710
  162SOPE   C3618191   1.334   4.755   9.140 -0.8600 -0.3808 -1.0332
  162SOPE   H6X18192   1.317   4.858   9.178  1.3845 -0.2861 -0.1156
  162SOPE   H6Y18193   1.245   4.694   9.166  1.0140 -1.9577  2.2180
  162SOPE   C3718194   1.350   4.759   8.993 -0.1494  0.5407 -0.8609
  162SOPE   H7X18195   1.391   4.661   8.962 -0.8787 -1.2149  3.1498
  162SOPE   H7Y18196   1.431   4.833   8.975  0.2270  0.6512  1.0472
  162SOPE   C3818197   1.218   4.802   8.917  0.8394  0.1453 -0.3045
  162SOPE   H8X18198   1.169   4.884   8.973  2.5033  1.7985 -1.1436
  162SOPE   H8Y18199   1.145   4.719   8.922 -1.8346  2.4378  2.9984
  162SOPE   C3918200   1.238   4.851   8.773  0.4910 -0.2853 -0.2016
  162SOPE   H9X18201   1.281   4.757   8.732  0.2714 -1.2500  1.6959
  162SOPE   H9Y18202   1.310   4.935   8.762  0.2725  0.3880  2.6998
  162SOPE  C31018203   1.106   4.897   8.709 -0.2863  0.6256 -0.2871
  162SOPE  H10X18204   1.069   4.971   8.783  0.4566 -0.2839  1.0443
  162SOPE  H10Y18205   1.033   4.813   8.709 -1.2038  1.3989 -1.2547
  162SOPE  C31118206   1.126   4.943   8.561 -0.9273  0.1177  0.1185
  162SOPE  H11X18207   1.228   4.982   8.546 -0.5774 -0.9105 -0.3195
  162SOPE  H11Y18208   1.057   5.029   8.549 -0.3246  0.8775  1.7625
  162SOPE  C31218209   1.089   4.841   8.451  0.2146  0.0973  0.1380
  162SOPE  H12X18210   0.987   4.810   8.482 -0.1858  1.1199 -0.1083
  162SOPE  H12Y18211   1.170   4.766   8.458 -1.7073 -1.9757  1.4462
  162SOPE  C31318212   1.088   4.907   8.313 -0.2513 -0.0291 -0.3420
  162SOPE  H13X18213   1.185   4.959   8.300  0.7122 -1.0544  2.1772
  162SOPE  H13Y18214   1.004   4.981   8.308 -0.1443  0.0510 -1.0744
  162SOPE  C31418215   1.059   4.797   8.211  0.6480 -0.2405 -0.0588
  162SOPE  H14X18216   0.959   4.754   8.236  1.3356 -0.8175  1.8958
  162SOPE  H14Y18217   1.129   4.711   8.208  0.2832 -0.5087 -1.2048
  162SOPE  C31518218   1.051   4.849   8.069 -0.0962 -0.2793 -0.2733
  162SOPE  H15X18219   0.991   4.942   8.068 -0.6298 -0.6248 -0.4706
  162SOPE  H15Y18220   0.999   4.764   8.020 -0.0970 -1.2052  1.2622
  162SOPE  C31618221   1.186   4.868   8.001 -0.3840  0.5705 -0.1776
  162SOPE  H16X18222   1.242   4.772   8.005 -0.6964  0.3789 -0.4029
  162SOPE  H16Y18223   1.246   4.945   8.054  2.3257 -1.0375 -0.6970
  162SOPE  C31718224   1.178   4.917   7.853 -0.3170  0.0633 -0.2118
  162SOPE  H17X18225   1.122   5.013   7.854 -2.1508 -0.9436 -1.2270
  162SOPE  H17Y18226   1.115   4.847   7.794  0.1707 -1.3670  0.9226
  162SOPE  C31818227   1.314   4.930   7.786  0.0630  0.8095 -0.1790
  162SOPE  H18X18228   1.301   4.948   7.677  0.4171  1.6991 -0.0858
  162SOPE  H18Y18229   1.366   4.832   7.788  0.1904  0.8896  1.2937
  162SOPE  H18Z18230   1.376   5.006   7.838  3.4603 -2.9035  1.7472
  163SOPE     N18231   1.724   2.251  10.207 -0.3783  0.6270  0.2704
  163SOPE   HN118232   1.748   2.214  10.301  0.2049  3.8460  1.5024
  163SOPE   HN218233   1.626   2.286  10.208 -0.3480  0.7465 -0.5143
  163SOPE   HN318234   1.725   2.162  10.153  1.5100 -0.4643  1.9932
  163SOPE   C1218235   1.815   2.366  10.168  0.0866 -0.6454 -0.1669
  163SOPE  H12A18236   1.917   2.327  10.151 -0.1441 -1.9900  1.3144
  163SOPE  H12B18237   1.809   2.435  10.255  1.4679 -0.1710 -0.4253
  163SOPE   C1118238   1.759   2.429  10.041 -0.7835 -0.5483  0.4059
  163SOPE  H11A18239   1.770   2.357   9.957  4.4678 -0.5484  0.7595
  163SOPE  H11B18240   1.813   2.522  10.014 -2.1289 -0.4176 -2.0523
  163SOPE     P18241   1.580   2.600  10.129  0.2292 -0.0983  0.2684
  163SOPE   O1318242   1.649   2.709  10.057 -0.0133 -0.5554  0.2748
  163SOPE   O1418243   1.599   2.595  10.276 -0.3376 -0.4955 -0.4067
  163SOPE   O1218244   1.618   2.466  10.060 -0.4350  0.0826  0.6746
  163SOPE   O1118245   1.426   2.624  10.095  0.1434 -0.5215  0.1713
  163SOPE    C118246   1.322   2.541  10.139 -0.3147  0.4760 -0.2819
  163SOPE    HA18247   1.285   2.590  10.232  1.8744 -0.0359  0.9538
  163SOPE    HB18248   1.361   2.443  10.174 -0.4204  0.4768 -0.1609
  163SOPE    C218249   1.206   2.537  10.042 -0.0908 -0.6849  0.1629
  163SOPE    HS18250   1.134   2.459  10.074 -0.7328 -0.0846  0.1974
  163SOPE   O2118251   1.259   2.514   9.905  0.2532  0.3381 -0.0168
  163SOPE   C2118252   1.321   2.394   9.889 -0.0119 -0.7816  0.2091
  163SOPE   O2218253   1.319   2.303   9.967  0.2098  0.4394  0.0055
  163SOPE   C2218254   1.413   2.412   9.762  0.6528  0.3881  0.5447
  163SOPE   H2R18255   1.447   2.517   9.765 -1.3933  1.1084 -0.1103
  163SOPE   H2S18256   1.343   2.392   9.678  1.7795 -0.3155 -0.2560
  163SOPE    C318257   1.128   2.669  10.049  0.2101 -0.8331 -0.4231
  163SOPE    HX18258   1.207   2.743  10.022  2.1430 -2.4505  0.5477
  163SOPE    HY18259   1.090   2.695  10.150  1.6269  1.0279 -0.2961
  163SOPE   O3118260   1.027   2.678   9.949  0.1341 -0.3141 -0.6792
  163SOPE   C3118261   0.927   2.601   9.966  0.1603 -0.1625  0.2013
  163SOPE   O3218262   0.898   2.534  10.063  0.1519 -0.1002  0.2783
  163SOPE   C3218263   0.852   2.600   9.832  0.0792 -0.0837  0.0311
  163SOPE   H2X18264   0.861   2.707   9.804 -1.0745  0.3935  1.3573
  163SOPE   H2Y18265   0.747   2.566   9.844 -0.1073 -0.1591 -1.5610
  163SOPE   C2318266   1.530   2.313   9.761 -0.6869  0.0746 -0.3409
  163SOPE   H3R18267   1.492   2.212   9.734  0.8120 -0.2360 -1.4265
  163SOPE   H3S18268   1.575   2.294   9.861  0.5509 -2.2689 -1.2450
  163SOPE   C2418269   1.645   2.357   9.671  0.8792  0.9449  0.4507
  163SOPE   H4R18270   1.702   2.435   9.724  1.7283  0.3592  0.4273
  163SOPE   H4S18271   1.715   2.271   9.659  0.5408  0.2758  2.7357
  163SOPE   C2518272   1.611   2.395   9.529 -0.2891  0.0519  0.5512
  163SOPE   H5R18273   1.551   2.322   9.470 -0.5605  1.3857 -0.8864
  163SOPE   H5S18274   1.547   2.486   9.529  0.8201  0.9067 -1.5815
  163SOPE   C2618275   1.720   2.434   9.433 -0.3046 -0.1333 -0.5085
  163SOPE   H6R18276   1.668   2.452   9.337  0.1146  2.4143 -0.3320
  163SOPE   H6S18277   1.767   2.531   9.460 -0.0304 -0.5318  0.4845
  163SOPE   C2718278   1.845   2.347   9.434  0.3973  0.2572  0.5594
  163SOPE   H7R18279   1.891   2.370   9.533  1.2643  0.2616  0.1687
  163SOPE   H7S18280   1.820   2.239   9.437  0.0105  0.2169 -2.0656
  163SOPE   C2818281   1.946   2.373   9.319 -0.7661 -0.5540  0.5972
  163SOPE   H8R18282   1.952   2.483   9.302 -0.7022 -0.7451 -0.6662
  163SOPE   H8S18283   2.044   2.355   9.368  0.4533  2.1432 -0.6266
  163SOPE   C2918284   1.938   2.297   9.187 -0.4471  0.2762 -0.2476
  163SOPE   H9118285   1.956   2.188   9.197 -1.6984  0.1438  0.8987
  163SOPE  C21018286   1.919   2.348   9.062 -0.2749 -0.0561  0.1114
  163SOPE  H10118287   1.919   2.282   8.974 -0.3799  1.3637 -1.0021
  163SOPE  C21118288   1.883   2.490   9.034  0.1840 -0.4014 -0.2283
  163SOPE  H11R18289   1.943   2.557   9.099  1.0738 -1.0891 -0.3091
  163SOPE  H11S18290   1.778   2.501   9.069  0.4948 -0.8837  0.9180
  163SOPE  C21218291   1.877   2.510   8.885 -1.1836 -0.4336  0.1665
  163SOPE  H12R18292   1.814   2.600   8.867  0.3036  0.7321  0.6227
  163SOPE  H12S18293   1.836   2.423   8.830 -0.4619 -0.8968  0.3604
  163SOPE  C21318294   2.019   2.540   8.829 -0.0339 -0.2699  0.0451
  163SOPE  H13R18295   2.077   2.447   8.848 -1.1065 -1.1393 -0.8683
  163SOPE  H13S18296   2.065   2.625   8.884 -0.5718  0.3963 -0.5124
  163SOPE  C21418297   2.029   2.574   8.683  0.1010  0.0200  0.3678
  163SOPE  H14R18298   2.134   2.605   8.662  0.3456  0.1018  1.6178
  163SOPE  H14S18299   1.951   2.651   8.664 -2.0979 -1.9736  0.8755
  163SOPE  C21518300   1.993   2.464   8.584  0.2245 -0.0113  0.0159
  163SOPE  H15R18301   1.960   2.510   8.489  1.9692 -0.4468 -0.8423
  163SOPE  H15S18302   1.916   2.396   8.626  0.0007 -0.2068 -0.7016
  163SOPE  C21618303   2.113   2.374   8.547 -0.2304  0.5770 -0.2098
  163SOPE  H16R18304   2.151   2.329   8.641  0.0093  0.3443 -0.4153
  163SOPE  H16S18305   2.187   2.451   8.516  0.0275  0.2943 -0.3015
  163SOPE  C21718306   2.083   2.283   8.425  0.4375  0.0258 -0.3096
  163SOPE  H17R18307   2.041   2.351   8.348  2.4246  0.9873 -0.6137
  163SOPE  H17S18308   2.009   2.208   8.461 -0.1561  0.4807 -0.5600
  163SOPE  C21818309   2.204   2.219   8.363 -0.3415 -0.7231  0.1131
  163SOPE  H18R18310   2.281   2.199   8.440 -0.1247  0.8756  0.3400
  163SOPE  H18S18311   2.245   2.291   8.290 -0.3764 -0.8237 -0.0057
  163SOPE  H18T18312   2.187   2.120   8.315 -1.7886 -0.5430  0.2051
  163SOPE   C3318313   0.928   2.522   9.719  0.5080 -0.0202 -0.5311
  163SOPE   H3X18314   0.939   2.418   9.757 -2.1138  0.2862  1.3175
  163SOPE   H3Y18315   1.032   2.557   9.703  1.0517 -1.2512  0.1348
  163SOPE   C3418316   0.853   2.548   9.586 -0.0649  0.3768  0.5058
  163SOPE   H4X18317   0.849   2.657   9.566  2.0695  0.4285  0.1363
  163SOPE   H4Y18318   0.750   2.508   9.596 -0.1314  0.0468 -1.2265
  163SOPE   C3518319   0.909   2.480   9.457 -0.5740  0.0417 -0.7337
  163SOPE   H5X18320   0.912   2.369   9.463  3.4743  0.0478  0.4703
  163SOPE   H5Y18321   1.013   2.518   9.442 -1.1662  2.0165 -0.0789
  163SOPE   C3618322   0.837   2.536   9.334  0.2015 -0.0695 -1.3784
  163SOPE   H6X18323   0.835   2.647   9.334 -1.5978 -0.0133  1.4247
  163SOPE   H6Y18324   0.730   2.508   9.339  0.9480 -3.0086  1.3463
  163SOPE   C3718325   0.899   2.480   9.199 -0.0446 -0.2916 -0.5399
  163SOPE   H7X18326   0.862   2.376   9.204 -0.8928 -0.0289 -1.2169
  163SOPE   H7Y18327   1.010   2.477   9.207 -0.0761  1.5729  1.5183
  163SOPE   C3818328   0.850   2.545   9.073 -0.2484 -0.3722 -0.5654
  163SOPE   H8X18329   0.886   2.649   9.081 -0.1550 -0.4135 -0.4489
  163SOPE   H8Y18330   0.740   2.551   9.062 -0.6109 -3.8142 -0.0203
  163SOPE   C3918331   0.903   2.479   8.941  0.1080  0.7468  0.5544
  163SOPE   H9X18332   0.889   2.370   8.951 -0.7800  0.1788 -4.4939
  163SOPE   H9Y18333   1.013   2.489   8.928  0.5607 -1.6473  1.9694
  163SOPE  C31018334   0.811   2.516   8.828  0.0410  0.6724  0.1740
  163SOPE  H10X18335   0.800   2.626   8.823  1.0052  0.7481 -0.5633
  163SOPE  H10Y18336   0.713   2.464   8.840  0.3736 -0.3206 -1.0615
  163SOPE  C31118337   0.866   2.488   8.686  0.4222  0.4181  0.1191
  163SOPE  H11X18338   0.961   2.545   8.684  1.0503 -0.5664  0.8447
  163SOPE  H11Y18339   0.802   2.540   8.612  0.0335 -0.3735 -0.1112
  163SOPE  C31218340   0.882   2.340   8.657  0.3938  0.0322  0.2539
  163SOPE  H12X18341   0.783   2.291   8.643  0.6958 -1.0486  1.6351
  163SOPE  H12Y18342   0.932   2.290   8.743  0.5503 -1.2314 -0.5393
  163SOPE  C31318343   0.959   2.307   8.532  0.0077 -0.8516 -0.3386
  163SOPE  H13X18344   0.953   2.196   8.522 -0.0991 -1.0753  1.7092
  163SOPE  H13Y18345   1.061   2.341   8.559 -0.2343 -0.0169 -0.4603
  163SOPE  C31418346   0.907   2.380   8.411  0.2783  0.1727  0.6110
  163SOPE  H14X18347   0.928   2.489   8.416 -0.5946  0.6100 -2.7826
  163SOPE  H14Y18348   0.798   2.363   8.399  0.1453  0.6773  1.0450
  163SOPE  C31518349   0.976   2.331   8.287 -0.4092 -0.1988  0.2523
  163SOPE  H15X18350   0.961   2.224   8.262 -0.8733 -0.4598  1.5921
  163SOPE  H15Y18351   1.086   2.338   8.299 -0.1960 -2.6025  0.0893
  163SOPE  C31618352   0.936   2.419   8.161 -0.0861  0.4516  0.1664
  163SOPE  H16X18353   0.972   2.522   8.183  1.5725  0.8264 -3.4985
  163SOPE  H16Y18354   0.825   2.416   8.154 -0.0027  0.2897 -1.5443
  163SOPE  C31718355   0.988   2.367   8.032 -0.6509  0.0130  0.3530
  163SOPE  H17X18356   1.024   2.262   8.035  2.1902  0.8108 -1.4145
  163SOPE  H17Y18357   1.074   2.429   7.997 -1.2822 -0.5814 -2.4992
  163SOPE  C31818358   0.892   2.376   7.914 -0.5457 -0.3676 -0.0170
  163SOPE  H18X18359   0.870   2.484   7.907  0.3082 -0.0414  1.6893
  163SOPE  H18Y18360   0.793   2.329   7.934 -1.6704  0.4539 -3.0842
  163SOPE  H18Z18361   0.944   2.329   7.828 -0.3592  0.1148 -0.1671
  164SOPE     N18362   5.237   6.180  10.237  0.5958  0.5543  0.2947
  164SOPE   HN118363   5.280   6.180  10.142  0.2932  2.9480  0.0831
  164SOPE   HN218364   5.144   6.136  10.217 -0.1909  2.0601  0.4529
  164SOPE   HN318365   5.209   6.278  10.259 -1.7933 -0.1248  0.5690
  164SOPE   C1218366   5.312   6.108  10.341  0.2692  0.2993 -0.0886
  164SOPE  H12A18367   5.397   6.049  10.300  0.4090 -0.7007  1.5510
  164SOPE  H12B18368   5.251   6.033  10.397  2.3817 -0.7355  0.9538
  164SOPE   C1118369   5.385   6.207  10.436  0.1918 -0.0328  0.5149
  164SOPE  H11A18370   5.444   6.141  10.502  0.4114 -0.3676 -0.0140
  164SOPE  H11B18371   5.311   6.261  10.499  1.8729  2.1879  0.7335
  164SOPE     P18372   5.495   6.449  10.411 -0.2003 -0.5033 -0.1389
  164SOPE   O1318373   5.578   6.437  10.529  0.1257  0.3548 -0.2410
  164SOPE   O1418374   5.375   6.529  10.438 -0.0289 -0.0753  0.1173
  164SOPE   O1218375   5.453   6.308  10.362 -0.4887 -0.3820  0.1196
  164SOPE   O1118376   5.567   6.513  10.287 -0.6945 -0.3625  0.2322
  164SOPE    C118377   5.494   6.513  10.161  0.5935 -0.3206 -0.8254
  164SOPE    HA18378   5.480   6.622  10.148  0.4789 -0.1656  0.4646
  164SOPE    HB18379   5.395   6.466  10.175  0.4915 -0.2699 -1.3598
  164SOPE    C218380   5.573   6.457  10.045  0.5995  0.3650 -0.4516
  164SOPE    HS18381   5.574   6.347  10.057  0.2719  0.6178  2.5777
  164SOPE   O2118382   5.702   6.532  10.048  0.0176 -0.7205  0.3433
  164SOPE   C2118383   5.806   6.457  10.031  0.0043  0.0520  0.0626
  164SOPE   O2218384   5.804   6.336  10.024 -0.0781  0.0563 -0.4288
  164SOPE   C2218385   5.926   6.552  10.004 -0.1420  0.6538  0.8605
  164SOPE   H2R18386   6.022   6.504  10.033  0.1401  0.4873 -0.2828
  164SOPE   H2S18387   5.922   6.642  10.069 -0.6600  0.7871  0.6477
  164SOPE    C318388   5.503   6.485   9.908 -0.3178  0.1761 -0.4345
  164SOPE    HX18389   5.505   6.593   9.884  0.3721  0.2302 -0.1531
  164SOPE    HY18390   5.404   6.435   9.902  0.1357 -0.5995 -2.4871
  164SOPE   O3118391   5.586   6.425   9.813  0.0278 -0.6436  0.6521
  164SOPE   C3118392   5.555   6.312   9.764  0.3276 -0.2508 -0.0354
  164SOPE   O3218393   5.483   6.228   9.810  0.9782  0.1404 -0.4593
  164SOPE   C3218394   5.618   6.303   9.619  0.8398 -0.0663 -0.2924
  164SOPE   H2X18395   5.573   6.215   9.568  2.1026 -0.2915 -1.0454
  164SOPE   H2Y18396   5.725   6.283   9.635  0.6578 -1.9276 -1.1982
  164SOPE   C2318397   5.940   6.592   9.861 -0.4335 -0.6133 -0.9367
  164SOPE   H3R18398   5.850   6.634   9.812 -1.0560  1.7496  1.9569
  164SOPE   H3S18399   5.968   6.500   9.804  0.0825 -1.1433  0.1428
  164SOPE   C2418400   6.036   6.706   9.851 -0.3986  0.7182 -0.1742
  164SOPE   H4R18401   5.993   6.797   9.898  1.4103  1.0731  0.9092
  164SOPE   H4S18402   6.124   6.678   9.914 -0.8099  0.7512  0.4296
  164SOPE   C2518403   6.090   6.724   9.709  0.4903  0.0696  0.1182
  164SOPE   H5R18404   6.145   6.820   9.709  1.0511 -0.2500 -0.1221
  164SOPE   H5S18405   6.157   6.638   9.689 -0.8027 -1.5295  2.2725
  164SOPE   C2618406   5.994   6.732   9.591  0.0632  0.2689 -0.0968
  164SOPE   H6R18407   5.935   6.639   9.596 -0.2710  0.5205  0.8184
  164SOPE   H6S18408   5.928   6.819   9.612 -0.1650  0.0845 -0.0509
  164SOPE   C2718409   6.068   6.760   9.451  0.0269 -0.0198 -0.3394
  164SOPE   H7R18410   6.143   6.838   9.477 -1.4829  1.0728  0.9485
  164SOPE   H7S18411   6.123   6.668   9.420 -1.5869 -1.7569  1.5756
  164SOPE   C2818412   5.980   6.789   9.334 -0.5860 -0.2929  0.5220
  164SOPE   H8R18413   6.038   6.771   9.241 -0.8331  0.1009  0.2860
  164SOPE   H8S18414   5.900   6.713   9.337 -0.3372 -0.6556 -1.1460
  164SOPE   C2918415   5.920   6.927   9.343  0.0665  0.1865  0.4183
  164SOPE   H9118416   5.885   6.955   9.443 -0.9889 -1.0721  0.4269
  164SOPE  C21018417   5.920   7.026   9.244 -0.2989 -0.3919 -0.5514
  164SOPE  H10118418   5.884   7.128   9.265  0.9220 -0.2755  1.1384
  164SOPE  C21118419   5.971   7.010   9.105 -0.2977  0.2329 -0.7560
  164SOPE  H11R18420   6.014   6.908   9.093 -0.7282 -0.2687  1.4283
  164SOPE  H11S18421   6.053   7.085   9.098 -0.2763  0.2406 -0.4469
  164SOPE  C21218422   5.865   7.032   8.991 -0.4033 -0.3616  0.5249
  164SOPE  H12R18423   5.813   7.130   8.999  0.4933  0.0225  2.2856
  164SOPE  H12S18424   5.775   6.968   9.000  0.5137 -1.9567 -1.0114
  164SOPE  C21318425   5.936   7.011   8.853 -0.0008  0.1132  0.3877
  164SOPE  H13R18426   5.964   6.904   8.844 -1.4070 -0.3026  0.6525
  164SOPE  H13S18427   6.032   7.066   8.861  0.9227 -1.3629 -0.0583
  164SOPE  C21418428   5.848   7.062   8.736 -0.8009  0.3569 -0.4334
  164SOPE  H14R18429   5.840   7.173   8.738  0.5648  0.4974  2.8245
  164SOPE  H14S18430   5.743   7.026   8.743 -0.2586 -1.2701 -0.3214
  164SOPE  C21518431   5.908   7.023   8.600  0.4777 -0.6858  0.2748
  164SOPE  H15R18432   5.891   6.915   8.580  0.2573 -0.5283 -0.4061
  164SOPE  H15S18433   6.015   7.053   8.607  0.3855 -0.5223  1.0497
  164SOPE  C21618434   5.841   7.106   8.489  0.3973 -0.0347 -0.6370
  164SOPE  H16R18435   5.832   7.210   8.525  0.8213 -0.2419  0.1023
  164SOPE  H16S18436   5.737   7.071   8.472  0.5044 -0.4899 -0.3921
  164SOPE  C21718437   5.922   7.105   8.361  0.4368  0.3812 -0.0136
  164SOPE  H17R18438   5.939   6.998   8.337 -0.0455 -0.0162  1.3038
  164SOPE  H17S18439   6.023   7.149   8.374 -0.2077  1.4041  2.1273
  164SOPE  C21818440   5.826   7.159   8.254 -0.0138  0.5315 -0.5035
  164SOPE  H18R18441   5.724   7.117   8.242  0.0521  0.0080  0.7147
  164SOPE  H18S18442   5.875   7.165   8.154  3.7435 -2.9363  0.8419
  164SOPE  H18T18443   5.805   7.264   8.284 -0.4808  0.3129 -0.0674
  164SOPE   C3318444   5.606   6.431   9.532  0.4380  0.7196  0.4145
  164SOPE   H3X18445   5.670   6.506   9.583  1.0471  0.6366 -0.2133
  164SOPE   H3Y18446   5.501   6.464   9.520 -0.6842 -2.9549 -1.2322
  164SOPE   C3418447   5.660   6.411   9.391  0.6653 -0.1866  0.0497
  164SOPE   H4X18448   5.769   6.392   9.402  0.6840 -0.6335 -0.7988
  164SOPE   H4Y18449   5.659   6.510   9.340  0.8577 -0.0491  0.3096
  164SOPE   C3518450   5.593   6.302   9.312 -0.1748  0.8097 -0.0041
  164SOPE   H5X18451   5.485   6.311   9.336 -0.0110  0.5847  0.8779
  164SOPE   H5Y18452   5.636   6.206   9.348 -1.3651 -0.2366 -1.2662
  164SOPE   C3618453   5.611   6.311   9.154  0.5544  0.9272 -0.0749
  164SOPE   H6X18454   5.722   6.306   9.141  0.3729 -0.3506 -1.2800
  164SOPE   H6Y18455   5.569   6.406   9.114 -3.4344 -0.3403  0.6436
  164SOPE   C3718456   5.539   6.203   9.071  0.6528 -0.8784 -0.6960
  164SOPE   H7X18457   5.559   6.222   8.963 -0.4186 -2.1324 -1.1485
  164SOPE   H7Y18458   5.428   6.215   9.075  0.8219  0.3254  2.0167
  164SOPE   C3818459   5.572   6.059   9.103  0.5795  0.0221 -0.2545
  164SOPE   H8X18460   5.521   5.990   9.032 -2.1922  0.8387  0.8399
  164SOPE   H8Y18461   5.532   6.032   9.203 -2.3034  0.4368 -1.2072
  164SOPE   C3918462   5.726   6.044   9.086 -0.2681 -0.2604 -0.8810
  164SOPE   H9X18463   5.747   5.946   9.133  1.3226  1.0731  1.3977
  164SOPE   H9Y18464   5.786   6.098   9.161 -1.4461 -0.0836 -0.0368
  164SOPE  C31018465   5.774   6.060   8.943 -0.2348  0.1523  0.4659
  164SOPE  H10X18466   5.884   6.044   8.943 -0.2759 -0.2113 -0.5948
  164SOPE  H10Y18467   5.760   6.164   8.908 -0.8800 -0.4494 -1.1957
  164SOPE  C31118468   5.716   5.960   8.840 -0.3740  0.3546 -0.2839
  164SOPE  H11X18469   5.605   5.958   8.835 -0.4772  0.4423  1.2901
  164SOPE  H11Y18470   5.741   5.857   8.874 -0.8281  0.8726  1.7953
  164SOPE  C31218471   5.771   5.986   8.696  0.4447 -0.3392  0.3461
  164SOPE  H12X18472   5.877   6.018   8.702  0.6101  0.1152 -3.1928
  164SOPE  H12Y18473   5.719   6.072   8.648  0.7564 -0.0295  0.5545
  164SOPE  C31318474   5.779   5.858   8.610  0.0605  0.1966  0.7311
  164SOPE  H13X18475   5.792   5.885   8.503 -1.5239 -1.1938  0.1368
  164SOPE  H13Y18476   5.679   5.809   8.609  0.6628 -1.1072 -1.0724
  164SOPE  C31418477   5.884   5.759   8.658  0.1521  0.3900 -0.2684
  164SOPE  H14X18478   5.858   5.738   8.764 -2.1520 -2.4693 -1.2401
  164SOPE  H14Y18479   5.991   5.788   8.663  1.0719 -2.8126  1.6141
  164SOPE  C31518480   5.875   5.617   8.582  0.1144  0.0066 -0.0641
  164SOPE  H15X18481   5.772   5.578   8.588  0.1680 -0.0842  0.3545
  164SOPE  H15Y18482   5.938   5.546   8.640  0.8721  1.2371  0.6850
  164SOPE  C31618483   5.914   5.619   8.436  0.2361  0.1448  0.2950
  164SOPE  H16X18484   6.021   5.640   8.414  0.4391 -2.0264 -0.9992
  164SOPE  H16Y18485   5.846   5.690   8.384 -1.1829 -0.8559  0.7494
  164SOPE  C31718486   5.883   5.481   8.371 -0.1622 -0.0416  0.1872
  164SOPE  H17X18487   5.772   5.476   8.381 -0.3189 -1.1499 -1.5783
  164SOPE  H17Y18488   5.930   5.414   8.446  0.3412  0.7124  0.5540
  164SOPE  C31818489   5.923   5.441   8.227 -0.1196 -0.0951  0.0550
  164SOPE  H18X18490   5.965   5.339   8.227  2.3652  0.8402  1.1938
  164SOPE  H18Y18491   6.005   5.510   8.197  0.7186  1.2741  4.6498
  164SOPE  H18Z18492   5.843   5.451   8.151 -0.0676 -1.2082 -0.1512
  165SOPE     N18493   3.691   0.953  10.630 -0.0207  0.1088  0.6028
  165SOPE   HN118494   3.794   0.954  10.622  0.0334  2.1018  0.9857
  165SOPE   HN218495   3.660   0.926  10.726  0.1232  1.3232  1.0098
  165SOPE   HN318496   3.653   0.893  10.554  2.2457 -1.0266  0.2771
  165SOPE   C1218497   3.662   1.096  10.612 -0.4110 -0.8784  0.1683
  165SOPE  H12A18498   3.720   1.137  10.526  2.2577 -3.9504  0.2988
  165SOPE  H12B18499   3.702   1.140  10.706 -1.4479  2.2210 -0.7165
  165SOPE   C1118500   3.517   1.147  10.601  0.5672  1.1633  0.1457
  165SOPE  H11A18501   3.508   1.240  10.540  0.0203  0.3784 -1.0090
  165SOPE  H11B18502   3.475   1.162  10.703  1.4517  0.7803  0.5817
  165SOPE     P18503   3.297   1.009  10.546 -0.2328  0.3417  0.5955
  165SOPE   O1318504   3.235   1.098  10.645 -0.7772 -0.6517 -0.1466
  165SOPE   O1418505   3.309   0.866  10.577 -0.3341  0.1576 -1.1000
  165SOPE   O1218506   3.441   1.056  10.527  0.1728 -0.5508  0.0328
  165SOPE   O1118507   3.222   1.020  10.412 -0.4335  0.1057  0.4799
  165SOPE    C118508   3.257   1.127  10.315 -0.1023  1.0853 -0.4706
  165SOPE    HA18509   3.335   1.196  10.353  0.6090 -0.1873  0.4600
  165SOPE    HB18510   3.167   1.186  10.288  0.4543  0.9608 -2.8395
  165SOPE    C218511   3.315   1.074  10.187  0.3815 -0.0473  0.3079
  165SOPE    HS18512   3.335   1.159  10.118 -0.5158 -1.2130 -1.4534
  165SOPE   O2118513   3.206   0.993  10.116 -0.6064 -0.5912  0.1638
  165SOPE   C2118514   3.224   0.980   9.981  0.7406  0.0850 -0.7956
  165SOPE   O2218515   3.296   1.051   9.913  0.0981  0.1140  0.2910
  165SOPE   C2218516   3.142   0.859   9.937  0.1633  0.2898  0.5570
  165SOPE   H2R18517   3.033   0.882   9.938  0.3288  1.0326  1.3857
  165SOPE   H2S18518   3.166   0.776  10.007 -1.9231 -1.5527 -0.7847
  165SOPE    C318519   3.447   0.985  10.207 -0.2025 -0.1204 -0.6155
  165SOPE    HX18520   3.423   0.903  10.278  0.9382 -1.6363 -1.9057
  165SOPE    HY18521   3.519   1.046  10.266 -0.2513 -0.0684 -0.6091
  165SOPE   O3118522   3.501   0.921  10.094 -0.1650  0.2280 -0.0447
  165SOPE   C3118523   3.560   0.990   9.997 -0.1431  0.0395 -0.2441
  165SOPE   O3218524   3.598   1.105  10.007 -0.4151  0.2674  0.1057
  165SOPE   C3218525   3.579   0.887   9.882  0.1009  0.5016 -0.4617
  165SOPE   H2X18526   3.491   0.819   9.883  0.4585 -0.0620  2.4046
  165SOPE   H2Y18527   3.674   0.833   9.904 -0.3104 -0.4584 -0.9818
  165SOPE   C2318528   3.179   0.802   9.789 -0.3427  0.3126 -0.0924
  165SOPE   H3R18529   3.131   0.702   9.776 -1.6589  0.9790 -0.5201
  165SOPE   H3S18530   3.290   0.805   9.786 -0.2202 -1.4674  0.8749
  165SOPE   C2418531   3.119   0.883   9.666  0.6141  0.2979 -0.1583
  165SOPE   H4R18532   3.012   0.899   9.692  0.8148 -1.4263  2.0186
  165SOPE   H4S18533   3.166   0.984   9.666  1.5331 -0.0369  2.6981
  165SOPE   C2518534   3.138   0.808   9.533 -0.9222  0.3498  0.3921
  165SOPE   H5R18535   3.246   0.806   9.508 -0.8043  1.6194  0.7453
  165SOPE   H5S18536   3.107   0.701   9.536  1.8155 -0.5456 -0.3986
  165SOPE   C2618537   3.074   0.884   9.412 -0.2229  0.3153  0.2942
  165SOPE   H6R18538   2.970   0.907   9.441 -0.7127  2.4756 -2.7058
  165SOPE   H6S18539   3.139   0.974   9.407  1.0800 -0.5768  0.5578
  165SOPE   C2718540   3.080   0.801   9.277 -0.2673 -0.6839 -0.2959
  165SOPE   H7R18541   3.177   0.748   9.269 -1.5919 -3.5360  0.9523
  165SOPE   H7S18542   3.005   0.721   9.293 -0.6659 -0.1959  0.3326
  165SOPE   C2818543   3.052   0.890   9.160  0.4038  0.3244  0.5729
  165SOPE   H8R18544   2.951   0.930   9.182  0.1776 -0.3907  0.8473
  165SOPE   H8S18545   3.129   0.969   9.176  0.1699  0.1748  2.6255
  165SOPE   C2918546   3.063   0.820   9.025 -0.1975  0.5141  0.0440
  165SOPE   H9118547   3.041   0.712   9.023  0.8221  0.3031  0.0610
  165SOPE  C21018548   3.130   0.866   8.920  0.6835  0.0661 -0.3381
  165SOPE  H10118549   3.147   0.805   8.830 -2.4547  0.5110 -1.3490
  165SOPE  C21118550   3.189   1.001   8.904  0.1220 -0.8942 -0.2687
  165SOPE  H11R18551   3.241   1.024   9.000 -1.6370 -0.1231  0.5473
  165SOPE  H11S18552   3.107   1.075   8.888  0.8484  0.1455  0.6866
  165SOPE  C21218553   3.275   1.012   8.769  0.1721  0.1346 -1.0439
  165SOPE  H12R18554   3.365   0.949   8.784 -0.9532 -1.6772 -1.5378
  165SOPE  H12S18555   3.307   1.117   8.756 -0.1511  0.9988  3.5244
  165SOPE  C21318556   3.217   0.950   8.648  0.5619  0.6759 -0.4266
  165SOPE  H13R18557   3.110   0.979   8.642 -0.2059 -1.7090  0.5669
  165SOPE  H13S18558   3.213   0.840   8.663 -1.1121  0.8970  1.0501
  165SOPE  C21418559   3.283   0.982   8.509  0.1149 -0.4510  0.4191
  165SOPE  H14R18560   3.240   0.921   8.426 -1.6229  0.7544  0.3782
  165SOPE  H14S18561   3.388   0.952   8.529 -0.1162 -1.9153 -0.4510
  165SOPE  C21518562   3.269   1.126   8.465  0.6812 -0.0758  0.9638
  165SOPE  H15R18563   3.316   1.196   8.537  0.6877  0.9104  0.0299
  165SOPE  H15S18564   3.160   1.151   8.470  0.7069  0.2729 -0.0564
  165SOPE  C21618565   3.325   1.144   8.325 -0.4054 -0.3898  0.4029
  165SOPE  H16R18566   3.313   1.062   8.252 -1.4239  0.5175 -0.4844
  165SOPE  H16S18567   3.435   1.155   8.338 -0.6514  0.5079  2.0388
  165SOPE  C21718568   3.258   1.264   8.251  0.2046 -0.4742 -0.1278
  165SOPE  H17R18569   3.152   1.233   8.237 -0.4134 -0.2408  3.1473
  165SOPE  H17S18570   3.308   1.284   8.154  0.3618 -1.4379 -0.2533
  165SOPE  C21818571   3.246   1.387   8.332  0.0326 -0.2609  0.2433
  165SOPE  H18R18572   3.186   1.373   8.424 -0.1229 -0.2628  0.1423
  165SOPE  H18S18573   3.192   1.471   8.283  2.0359 -0.2129 -2.0343
  165SOPE  H18T18574   3.348   1.418   8.363  0.0542 -0.9604  0.8959
  165SOPE   C3318575   3.571   0.952   9.739  0.7690 -0.4530  0.5277
  165SOPE   H3X18576   3.654   1.023   9.721  0.2292 -0.1173 -0.7817
  165SOPE   H3Y18577   3.479   1.012   9.722  0.9428 -0.8480 -2.1807
  165SOPE   C3418578   3.555   0.836   9.633  0.4717 -0.4443  0.3374
  165SOPE   H4X18579   3.457   0.783   9.647 -0.1785  1.1399  2.3239
  165SOPE   H4Y18580   3.632   0.757   9.649 -0.0577 -1.5678 -2.1283
  165SOPE   C3518581   3.578   0.891   9.492 -0.1404  0.0826  0.6808
  165SOPE   H5X18582   3.551   0.803   9.431 -0.8219  1.6946 -1.4888
  165SOPE   H5Y18583   3.685   0.921   9.481 -0.1478  0.6114  1.9690
  165SOPE   C3618584   3.484   0.998   9.444 -0.6938 -0.7049  0.0558
  165SOPE   H6X18585   3.524   1.089   9.495 -0.2757 -1.1696  0.5835
  165SOPE   H6Y18586   3.385   0.987   9.493 -0.0950  0.3411  1.5774
  165SOPE   C3718587   3.470   1.009   9.287  0.7394 -0.0202 -0.0777
  165SOPE   H7X18588   3.380   1.071   9.268  0.8517 -0.5505 -2.6715
  165SOPE   H7Y18589   3.448   0.911   9.240 -0.7379  1.0490 -1.7490
  165SOPE   C3818590   3.591   1.075   9.212 -0.6316  0.7112  0.4174
  165SOPE   H8X18591   3.678   1.050   9.277 -0.2961 -2.2767 -0.9964
  165SOPE   H8Y18592   3.593   1.186   9.204  1.0475  0.6422 -0.6466
  165SOPE   C3918593   3.591   1.041   9.065 -0.8478  0.6443  0.0333
  165SOPE   H9X18594   3.485   1.037   9.033 -0.5223 -0.3838 -1.0008
  165SOPE   H9Y18595   3.627   0.936   9.066 -1.7394  0.3330  1.2079
  165SOPE  C31018596   3.681   1.122   8.974 -0.1532 -0.0465 -0.5073
  165SOPE  H10X18597   3.787   1.108   9.007  1.0031  0.4634 -3.6338
  165SOPE  H10Y18598   3.658   1.230   8.971 -2.4399 -0.4775 -0.3404
  165SOPE  C31118599   3.671   1.068   8.828  0.2646 -0.2554 -0.3549
  165SOPE  H11X18600   3.717   1.141   8.758  2.1529  0.7623  1.7998
  165SOPE  H11Y18601   3.565   1.052   8.800  0.6833 -0.2206 -2.0117
  165SOPE  C31218602   3.736   0.935   8.810 -0.4364  0.4415 -0.1681
  165SOPE  H12X18603   3.702   0.861   8.886 -0.8610  1.3449  0.5453
  165SOPE  H12Y18604   3.846   0.948   8.819 -0.2531  0.7302 -2.3700
  165SOPE  C31318605   3.717   0.881   8.671  0.6113  0.3933 -0.3047
  165SOPE  H13X18606   3.776   0.942   8.599 -1.3288  0.6288 -1.7633
  165SOPE  H13Y18607   3.610   0.885   8.642  0.2770 -0.5928  0.7215
  165SOPE  C31418608   3.764   0.737   8.656  0.2578  0.0247  0.4678
  165SOPE  H14X18609   3.693   0.680   8.720  0.1158  0.5149  0.7560
  165SOPE  H14Y18610   3.868   0.723   8.692  0.0500  0.3417  1.2187
  165SOPE  C31518611   3.756   0.695   8.519  0.1945  0.0709  0.1552
  165SOPE  H15X18612   3.825   0.755   8.456  0.4716 -1.3860 -0.9876
  165SOPE  H15Y18613   3.651   0.708   8.487 -0.3852 -2.0576  1.0654
  165SOPE  C31618614   3.784   0.549   8.498 -1.0555 -0.2323  0.9203
  165SOPE  H16X18615   3.734   0.490   8.577  0.3229 -1.8121  0.6632
  165SOPE  H16Y18616   3.894   0.534   8.495 -0.5791  2.5444 -2.2547
  165SOPE  C31718617   3.740   0.509   8.358 -0.7853  0.5626 -1.0341
  165SOPE  H17X18618   3.636   0.548   8.344 -0.9552  0.0323 -1.2665
  165SOPE  H17Y18619   3.734   0.399   8.346 -0.6886  0.3732  0.5388
  165SOPE  C31818620   3.811   0.560   8.224  0.1531 -0.3448 -0.1891
  165SOPE  H18X18621   3.825   0.670   8.237 -0.1133 -0.3792  0.4033
  165SOPE  H18Y18622   3.749   0.536   8.134 -2.2176  0.8004  1.0334
  165SOPE  H18Z18623   3.906   0.504   8.216  0.8336  0.8886 -1.2659
  166SOPE     N18624   6.849   0.786  10.407 -0.2445 -0.3518  0.4052
  166SOPE   HN118625   6.819   0.723  10.331 -1.0774 -0.9982  1.2439
  166SOPE   HN218626   6.945   0.761  10.439 -0.5216  1.2234  2.7190
  166SOPE   HN318627   6.782   0.762  10.483 -0.5255  0.2441  0.3502
  166SOPE   C1218628   6.858   0.937  10.377  0.2243  0.6079 -1.1258
  166SOPE  H12A18629   6.897   0.986  10.469  0.9310 -1.0929 -0.4792
  166SOPE  H12B18630   6.756   0.970  10.349 -0.2282 -2.7632 -4.0098
  166SOPE   C1118631   6.956   0.978  10.270  0.1234  0.1236  0.0124
  166SOPE  H11A18632   6.936   1.086  10.258  0.5520  0.1399 -0.6165
  166SOPE  H11B18633   6.924   0.933  10.174  0.3783 -0.0474  0.0068
  166SOPE     P18634   7.207   0.894  10.218 -0.2342  0.0477  0.1743
  166SOPE   O1318635   7.188   0.748  10.207  0.2933  0.3321 -0.1746
  166SOPE   O1418636   7.339   0.944  10.264  0.0880 -0.5214 -0.0083
  166SOPE   O1218637   7.095   0.944  10.313 -0.3187 -0.1166  0.2860
  166SOPE   O1118638   7.174   0.983  10.088  0.4491  0.2094  0.2058
  166SOPE    C118639   7.174   1.128  10.084 -0.0096  0.4739  0.0325
  166SOPE    HA18640   7.239   1.163  10.167 -1.3699  1.7132  0.6210
  166SOPE    HB18641   7.070   1.163  10.104  0.2630  0.7797  0.9868
  166SOPE    C218642   7.241   1.172   9.951  0.2741  0.8549 -0.0614
  166SOPE    HS18643   7.252   1.282   9.953 -3.9175  1.4598  2.6854
  166SOPE   O2118644   7.161   1.128   9.844 -0.3035  0.4865  0.1174
  166SOPE   C2118645   7.048   1.191   9.833 -0.3258  0.2075  0.3220
  166SOPE   O2218646   7.011   1.287   9.894 -0.2950 -0.3395  0.4310
  166SOPE   C2218647   6.967   1.122   9.720 -0.1169  0.7514 -0.6132
  166SOPE   H2R18648   6.861   1.114   9.754  0.5976 -2.4552  1.2278
  166SOPE   H2S18649   7.029   1.030   9.718  1.3027  1.6620 -0.3896
  166SOPE    C318650   7.379   1.110   9.933 -0.5326  0.0936 -0.2775
  166SOPE    HX18651   7.381   0.999   9.930 -0.8527  0.0806 -0.0912
  166SOPE    HY18652   7.432   1.121  10.030  0.8920 -0.8903 -0.9017
  166SOPE   O3118653   7.443   1.174   9.822 -0.7143 -0.2073  0.3287
  166SOPE   C3118654   7.572   1.216   9.832  0.4913  0.5100  0.8797
  166SOPE   O3218655   7.635   1.207   9.935 -0.3808  0.2759 -0.1969
  166SOPE   C3218656   7.633   1.283   9.710 -0.1314 -0.6506  0.5924
  166SOPE   H2X18657   7.734   1.322   9.732  0.6729 -2.1658 -0.2656
  166SOPE   H2Y18658   7.558   1.364   9.699 -1.2373 -1.3889  2.2483
  166SOPE   C2318659   6.969   1.194   9.584 -0.4156  0.3757 -0.6943
  166SOPE   H3R18660   7.067   1.240   9.560 -0.0929 -0.4236 -0.9400
  166SOPE   H3S18661   6.899   1.280   9.584  1.0735  1.6409  0.6770
  166SOPE   C2418662   6.924   1.113   9.453  0.4395  0.5857  0.6806
  166SOPE   H4R18663   6.975   1.015   9.440 -2.3462 -1.0763  1.4088
  166SOPE   H4S18664   6.824   1.080   9.489  0.7666 -0.8160  0.3699
  166SOPE   C2518665   6.933   1.195   9.325 -0.4344  0.0905  0.0417
  166SOPE   H5R18666   6.861   1.280   9.319  0.0249  0.4472 -0.6142
  166SOPE   H5S18667   7.037   1.234   9.319 -0.2223 -0.3688  0.7257
  166SOPE   C2618668   6.916   1.110   9.191 -0.2432 -0.1796 -0.1492
  166SOPE   H6R18669   7.001   1.042   9.168  0.0170  0.4907 -1.2703
  166SOPE   H6S18670   6.831   1.041   9.205 -0.5527  0.3726  0.7940
  166SOPE   C2718671   6.899   1.201   9.063 -0.1102  0.0073 -0.2282
  166SOPE   H7R18672   6.832   1.282   9.101 -0.3035  0.2479 -1.0636
  166SOPE   H7S18673   6.990   1.262   9.046  0.6361 -1.1778 -0.5139
  166SOPE   C2818674   6.835   1.133   8.942  0.0777 -0.1048 -0.8375
  166SOPE   H8R18675   6.892   1.039   8.925 -0.4016 -0.1270 -2.5202
  166SOPE   H8S18676   6.735   1.103   8.979 -0.3940  1.3482 -0.8884
  166SOPE   C2918677   6.823   1.212   8.821 -0.7400  0.3527  0.2708
  166SOPE   H9118678   6.758   1.299   8.837 -1.0514 -0.1003  1.5774
  166SOPE  C21018679   6.874   1.196   8.703 -0.6488  0.7564  0.1893
  166SOPE  H10118680   6.840   1.268   8.627  0.8533 -0.4251 -1.7129
  166SOPE  C21118681   6.971   1.079   8.668  0.5355  0.4565  0.0081
  166SOPE  H11R18682   6.991   1.008   8.751 -1.7077  1.3500  1.3937
  166SOPE  H11S18683   7.068   1.120   8.633 -0.2033  1.3318 -1.0966
  166SOPE  C21218684   6.910   0.992   8.550 -0.6880 -0.0396 -0.0204
  166SOPE  H12R18685   6.881   1.057   8.464 -0.1343 -0.0650 -0.2311
  166SOPE  H12S18686   6.816   0.943   8.581 -0.6012 -1.4224 -1.7804
  166SOPE  C21318687   7.009   0.887   8.501 -0.1839  0.2051  0.1280
  166SOPE  H13R18688   7.052   0.807   8.566  0.0758  0.8606  0.7770
  166SOPE  H13S18689   7.095   0.926   8.443 -0.1870  0.5100  0.3268
  166SOPE  C21418690   6.947   0.805   8.384 -0.6786  0.2148 -0.0448
  166SOPE  H14R18691   6.874   0.864   8.326 -0.6069 -0.1469 -0.5060
  166SOPE  H14S18692   6.888   0.722   8.427 -0.0614  0.4292  1.2854
  166SOPE  C21518693   7.050   0.739   8.282 -0.0805 -0.5227 -0.0806
  166SOPE  H15R18694   7.095   0.830   8.238 -1.3235  0.2644  0.2437
  166SOPE  H15S18695   6.996   0.680   8.205 -2.5595  1.1936  0.2290
  166SOPE  C21618696   7.158   0.656   8.346  0.2210 -0.4835  0.4016
  166SOPE  H16R18697   7.110   0.566   8.389 -1.0810 -0.5072 -0.9941
  166SOPE  H16S18698   7.201   0.706   8.435 -0.0912  0.3098  0.1191
  166SOPE  C21718699   7.285   0.612   8.261  0.2184  0.0427  0.6273
  166SOPE  H17R18700   7.250   0.524   8.204  0.5310  0.0136  0.4761
  166SOPE  H17S18701   7.359   0.574   8.336 -0.2213 -0.5874  0.7513
  166SOPE  C21818702   7.353   0.704   8.161  0.0028 -0.0876 -0.2479
  166SOPE  H18R18703   7.381   0.799   8.211 -3.1694  1.4362 -1.0872
  166SOPE  H18S18704   7.281   0.746   8.088 -1.2283 -0.0735  0.9307
  166SOPE  H18T18705   7.425   0.657   8.091 -0.3090 -1.2296  0.1731
  166SOPE   C3318706   7.634   1.183   9.589  0.3633 -0.0098  0.4853
  166SOPE   H3X18707   7.640   1.245   9.498  1.7364 -0.5520  0.1849
  166SOPE   H3Y18708   7.529   1.147   9.579 -0.1240  1.2224  0.9220
  166SOPE   C3418709   7.744   1.079   9.589  0.2453  0.8363 -0.2954
  166SOPE   H4X18710   7.725   1.018   9.680 -3.1947  1.3054 -0.5613
  166SOPE   H4Y18711   7.835   1.142   9.598 -0.4482  2.1429 -1.8792
  166SOPE   C3518712   7.745   0.981   9.472  0.0106 -0.0515  0.2489
  166SOPE   H5X18713   7.661   0.907   9.467 -1.9772  2.1568 -1.3817
  166SOPE   H5Y18714   7.839   0.922   9.469 -0.0257 -0.2470 -4.4007
  166SOPE   C3618715   7.760   1.048   9.336  0.2537  0.6959 -0.4299
  166SOPE   H6X18716   7.856   1.101   9.319  0.9767 -0.4199  0.0773
  166SOPE   H6Y18717   7.666   1.107   9.322  0.3228  0.7060 -0.8520
  166SOPE   C3718718   7.748   0.949   9.227  0.0452 -0.2469 -0.5309
  166SOPE   H7X18719   7.664   0.884   9.258  1.3892 -0.3795  3.4341
  166SOPE   H7Y18720   7.840   0.890   9.249 -0.7540 -0.6386  2.0807
  166SOPE   C3818721   7.752   1.002   9.086  0.6459 -0.6724  0.1285
  166SOPE   H8X18722   7.674   1.079   9.066  0.0652 -1.3862 -0.4847
  166SOPE   H8Y18723   7.732   0.917   9.016  0.4424  1.0257 -1.9841
  166SOPE   C3918724   7.894   1.049   9.041 -0.1324 -0.8282  0.4459
  166SOPE   H9X18725   7.972   0.979   9.078  1.6797  1.7752  1.8804
  166SOPE   H9Y18726   7.903   1.153   9.078 -2.9612 -0.1356 -0.5074
  166SOPE  C31018727   7.893   1.044   8.886 -0.3077  0.7886  0.2238
  166SOPE  H10X18728   7.853   0.944   8.862  0.1232 -0.1752  3.2136
  166SOPE  H10Y18729   7.995   1.062   8.846  0.7760 -0.8005  2.1195
  166SOPE  C31118730   7.790   1.140   8.812 -1.0628  0.4215 -0.1910
  166SOPE  H11X18731   7.687   1.127   8.852 -1.7233  1.0374 -1.5936
  166SOPE  H11Y18732   7.775   1.120   8.703  1.4550 -0.9472 -0.3565
  166SOPE  C31218733   7.831   1.284   8.825 -0.3109  0.0544  0.4283
  166SOPE  H12X18734   7.923   1.300   8.764 -0.1208 -1.3773  0.3043
  166SOPE  H12Y18735   7.852   1.308   8.931 -2.1282  0.4306  0.7329
  166SOPE  C31318736   7.725   1.386   8.774  0.0971 -0.1247 -0.2766
  166SOPE  H13X18737   7.750   1.493   8.791 -2.9253  0.5907  0.1833
  166SOPE  H13Y18738   7.629   1.365   8.826 -0.2832 -0.4154 -1.0833
  166SOPE  C31418739   7.694   1.365   8.627  0.2839 -0.0794  0.4888
  166SOPE  H14X18740   7.635   1.271   8.617 -0.1938  0.1615  1.0024
  166SOPE  H14Y18741   7.789   1.358   8.569 -0.5468 -0.3972 -0.8899
  166SOPE  C31518742   7.598   1.465   8.570 -0.2406 -0.5063  0.4175
  166SOPE  H15X18743   7.648   1.564   8.575  0.0575 -0.6136 -0.2510
  166SOPE  H15Y18744   7.505   1.466   8.630  1.3060 -1.8303  2.9732
  166SOPE  C31618745   7.576   1.445   8.425  0.2078  1.0213 -0.4256
  166SOPE  H16X18746   7.542   1.341   8.406 -2.3281  1.3884  1.5185
  166SOPE  H16Y18747   7.675   1.466   8.380  0.3939 -0.2391 -0.6599
  166SOPE  C31718748   7.479   1.543   8.361  0.1003  0.7515 -0.2804
  166SOPE  H17X18749   7.484   1.649   8.394  1.2291  0.3466  0.9337
  166SOPE  H17Y18750   7.376   1.512   8.387  0.8929 -1.9750 -0.0545
  166SOPE  C31818751   7.492   1.522   8.205 -0.7255  0.0718  0.4818
  166SOPE  H18X18752   7.464   1.418   8.177  0.5072  0.7490 -4.0299
  166SOPE  H18Y18753   7.595   1.542   8.169 -1.1236  2.1742  0.4017
  166SOPE  H18Z18754   7.419   1.596   8.166 -1.3870 -0.4981  0.6224
  167SOPE     N18755   4.933   4.418   5.928 -0.2105  0.4305 -0.2007
  167SOPE   HN118756   4.953   4.317   5.913 -0.0326  0.1826  1.5656
  167SOPE   HN218757   4.870   4.446   5.850  0.1176  1.3787 -0.1429
  167SOPE   HN318758   5.014   4.484   5.922  0.1688 -0.0309 -0.2423
  167SOPE   C1218759   4.855   4.421   6.054  0.4949  0.1236  0.1357
  167SOPE  H12A18760   4.919   4.463   6.135  1.6710 -0.6551 -0.3646
  167SOPE  H12B18761   4.822   4.319   6.080 -2.5959  0.4644 -1.9633
  167SOPE   C1118762   4.732   4.517   6.027  0.8592  0.3923 -0.2669
  167SOPE  H11A18763   4.760   4.623   6.011  0.0462  0.6453 -0.1029
  167SOPE  H11B18764   4.666   4.523   6.117 -1.9986  0.4772 -2.2152
  167SOPE     P18765   4.559   4.342   5.936  0.3933  0.1445  0.1416
  167SOPE   O1318766   4.632   4.215   5.905 -0.4939 -0.0399  0.0169
  167SOPE   O1418767   4.432   4.354   5.857  0.4043  0.0496  0.7744
  167SOPE   O1218768   4.652   4.466   5.915  0.4197  0.0765 -0.1011
  167SOPE   O1118769   4.522   4.342   6.086  0.4221 -0.4549 -0.3780
  167SOPE    C118770   4.408   4.411   6.134  0.5516 -0.2956 -0.0630
  167SOPE    HA18771   4.319   4.394   6.070 -1.4922  0.7916  2.3280
  167SOPE    HB18772   4.421   4.521   6.124 -0.8311 -0.0054  0.9818
  167SOPE    C218773   4.366   4.352   6.274  0.4463 -0.4286  0.1071
  167SOPE    HS18774   4.290   4.421   6.317  1.3740  1.1511 -0.6942
  167SOPE   O2118775   4.483   4.340   6.361  0.6945 -0.1712  0.0356
  167SOPE   C2118776   4.548   4.450   6.390 -0.1097 -0.0048  0.0920
  167SOPE   O2218777   4.524   4.558   6.346  0.6001  0.3210 -0.1407
  167SOPE   C2218778   4.671   4.426   6.469  0.2091 -0.2015 -0.8179
  167SOPE   H2R18779   4.753   4.477   6.414 -1.0854  1.9649 -0.8386
  167SOPE   H2S18780   4.679   4.316   6.481 -0.0775 -0.1236  0.1134
  167SOPE    C318781   4.298   4.221   6.248  0.6577 -0.3847 -0.0598
  167SOPE    HX18782   4.354   4.153   6.180  0.8174 -1.8889  1.4852
  167SOPE    HY18783   4.202   4.241   6.195  0.0474  0.3027  1.2408
  167SOPE   O3118784   4.269   4.152   6.373 -0.0477  0.8302  0.0072
  167SOPE   C3118785   4.351   4.053   6.408 -0.3028  0.3239  0.0277
  167SOPE   O3218786   4.459   4.021   6.355  0.4744 -0.2460 -0.0841
  167SOPE   C3218787   4.299   4.000   6.542 -0.4874  0.1370  0.3367
  167SOPE   H2X18788   4.230   3.917   6.515 -0.3441  0.6715 -1.7870
  167SOPE   H2Y18789   4.247   4.084   6.593 -1.4045 -0.8026  1.0114
  167SOPE   C2318790   4.668   4.509   6.595  0.6001  0.1568  0.0430
  167SOPE   H3R18791   4.653   4.619   6.583  0.1597  0.1809  0.8278
  167SOPE   H3S18792   4.772   4.504   6.635  0.8848 -0.9043 -0.7733
  167SOPE   C2418793   4.585   4.449   6.713 -0.4090 -0.2724 -0.3057
  167SOPE   H4R18794   4.601   4.339   6.707 -2.5307 -0.6232 -0.1144
  167SOPE   H4S18795   4.647   4.470   6.803  1.8512 -2.7816 -1.1333
  167SOPE   C2518796   4.442   4.499   6.718 -0.1133  0.1323 -0.1818
  167SOPE   H5R18797   4.443   4.610   6.727 -1.0944  0.1611 -0.2821
  167SOPE   H5S18798   4.388   4.476   6.623 -1.4837 -0.4480  0.7068
  167SOPE   C2618799   4.366   4.443   6.840  0.5016  0.0674 -0.0420
  167SOPE   H6R18800   4.389   4.334   6.850 -0.4971 -0.3577 -1.8846
  167SOPE   H6S18801   4.397   4.491   6.935 -0.3268 -1.6516  1.1520
  167SOPE   C2718802   4.211   4.457   6.845  0.2847  0.7261  0.5335
  167SOPE   H7R18803   4.186   4.562   6.817  0.8738  1.6389  3.1195
  167SOPE   H7S18804   4.174   4.373   6.783  2.7865  0.3511 -0.5682
  167SOPE   C2818805   4.141   4.428   6.980 -0.0273  0.1892 -0.1952
  167SOPE   H8R18806   4.176   4.328   7.014 -1.0217  0.1191  0.6716
  167SOPE   H8S18807   4.181   4.508   7.046  0.6116  1.2899 -1.8568
  167SOPE   C2918808   3.992   4.420   7.004 -0.4193 -0.0226  0.0174
  167SOPE   H9118809   3.934   4.403   6.912  1.4576  0.9099 -1.4062
  167SOPE  C21018810   3.929   4.414   7.130 -0.5942  0.5050  0.6132
  167SOPE  H10118811   3.822   4.391   7.147 -0.4990 -0.5269 -0.0975
  167SOPE  C21118812   4.003   4.423   7.256  0.0980 -0.1473  0.2171
  167SOPE  H11R18813   3.940   4.468   7.336  0.8530  2.3220 -0.4929
  167SOPE  H11S18814   4.093   4.487   7.262 -1.2178  1.6895  1.4550
  167SOPE  C21218815   4.051   4.295   7.325  0.9122 -0.4270 -0.3414
  167SOPE  H12R18816   4.079   4.310   7.431 -2.2163  1.3972  0.3455
  167SOPE  H12S18817   4.138   4.255   7.268  2.2825  1.6531  0.1778
  167SOPE  C21318818   3.932   4.184   7.328  0.5696 -0.4881  0.0749
  167SOPE  H13R18819   3.977   4.091   7.368 -0.9725 -2.7492 -3.0080
  167SOPE  H13S18820   3.905   4.174   7.221 -1.5720  0.8823  0.4260
  167SOPE  C21418821   3.804   4.220   7.408 -0.3503 -0.3268  0.1851
  167SOPE  H14R18822   3.716   4.153   7.395  0.3535 -1.0164 -1.2200
  167SOPE  H14S18823   3.772   4.320   7.370  1.8560  1.3046  2.3062
  167SOPE  C21518824   3.824   4.243   7.554 -0.1002  0.1107  0.0328
  167SOPE  H15R18825   3.725   4.279   7.588 -1.0447  0.6873 -2.9859
  167SOPE  H15S18826   3.901   4.324   7.551 -1.1057  1.0699 -1.6178
  167SOPE  C21618827   3.863   4.119   7.632  0.6504  0.0097 -0.5098
  167SOPE  H16R18828   3.867   4.171   7.730  0.5360 -0.0747 -0.4610
  167SOPE  H16S18829   3.970   4.093   7.612  1.1583  0.7172  1.1300
  167SOPE  C21718830   3.758   4.006   7.622 -0.7699 -0.0282 -0.1707
  167SOPE  H17R18831   3.772   3.967   7.519  1.2644  0.0466  0.0387
  167SOPE  H17S18832   3.655   4.046   7.632 -1.2908 -1.2797 -0.3995
  167SOPE  C21818833   3.780   3.896   7.726  0.0214 -0.4821  0.2193
  167SOPE  H18R18834   3.722   3.806   7.696 -0.7251  0.4393 -1.2521
  167SOPE  H18S18835   3.732   3.931   7.820  1.3194  0.4258  0.5765
  167SOPE  H18T18836   3.886   3.865   7.742  1.4341  3.3492 -0.6770
  167SOPE   C3318837   4.416   3.949   6.624  0.1263 -0.4318 -0.2486
  167SOPE   H3X18838   4.515   3.969   6.578 -0.4338 -0.2029 -1.3906
  167SOPE   H3Y18839   4.417   3.839   6.643  4.4777 -0.4376  0.6362
  167SOPE   C3418840   4.419   4.030   6.754 -0.5591  0.2557  0.0179
  167SOPE   H4X18841   4.316   4.024   6.794 -0.8024 -2.3429 -0.8422
  167SOPE   H4Y18842   4.441   4.135   6.724 -1.7471  0.4901 -0.0918
  167SOPE   C3518843   4.519   3.969   6.848  0.4692  0.5821  0.3824
  167SOPE   H5X18844   4.617   3.964   6.796  0.7771 -1.7186  1.0742
  167SOPE   H5Y18845   4.496   3.863   6.875  0.7991  0.9490  2.3055
  167SOPE   C3618846   4.530   4.052   6.976  0.3830 -0.2120 -0.5394
  167SOPE   H6X18847   4.431   4.062   7.025  0.8638  2.1207  0.0465
  167SOPE   H6Y18848   4.569   4.154   6.956  3.3200 -0.9216  1.0789
  167SOPE   C3718849   4.632   3.983   7.074  0.0690 -0.8134  0.0526
  167SOPE   H7X18850   4.731   3.967   7.026  2.3722  3.9809  2.4634
  167SOPE   H7Y18851   4.601   3.879   7.099  0.8171 -0.9587  0.4081
  167SOPE   C3818852   4.630   4.047   7.213 -0.9046 -1.8139 -0.9136
  167SOPE   H8X18853   4.531   4.043   7.263 -0.6572  1.1892  0.0540
  167SOPE   H8Y18854   4.677   4.148   7.214 -1.9503 -1.3150 -0.3183
  167SOPE   C3918855   4.719   3.964   7.310  1.0777 -0.1572  0.7175
  167SOPE   H9X18856   4.819   3.955   7.262 -0.2482 -0.0091 -2.3210
  167SOPE   H9Y18857   4.687   3.858   7.315  1.7922 -0.3968  0.3022
  167SOPE  C31018858   4.708   4.020   7.452  0.3408 -0.2881 -0.1948
  167SOPE  H10X18859   4.705   3.941   7.529 -3.0862 -0.5107 -0.3814
  167SOPE  H10Y18860   4.606   4.064   7.461  0.5575  0.3632 -0.7872
  167SOPE  C31118861   4.800   4.142   7.483  0.2497 -0.2087 -0.2694
  167SOPE  H11X18862   4.763   4.222   7.417  0.8200 -0.9437 -1.5276
  167SOPE  H11Y18863   4.907   4.119   7.462  0.4217  1.1464 -0.9933
  167SOPE  C31218864   4.802   4.178   7.637 -0.4894  0.3215  0.4400
  167SOPE  H12X18865   4.700   4.174   7.681 -1.4556  2.7978 -1.3510
  167SOPE  H12Y18866   4.824   4.286   7.653  2.3758  0.0099 -0.7783
  167SOPE  C31318867   4.900   4.091   7.726 -0.2353 -0.1301  0.7608
  167SOPE  H13X18868   4.997   4.107   7.675 -0.8958 -1.3893 -0.9775
  167SOPE  H13Y18869   4.865   3.986   7.718 -0.7949  0.0741  0.4714
  167SOPE  C31418870   4.911   4.135   7.869  0.4585 -0.5732  0.8854
  167SOPE  H14X18871   4.811   4.146   7.916 -0.4005  2.1989 -1.3418
  167SOPE  H14Y18872   4.964   4.233   7.868  2.6102 -1.6765  0.6088
  167SOPE  C31518873   5.002   4.052   7.957 -0.2630  0.4857  0.8279
  167SOPE  H15X18874   4.981   3.944   7.945  2.2480 -0.0237  0.6111
  167SOPE  H15Y18875   4.978   4.097   8.056 -2.7970 -0.2849  0.6377
  167SOPE  C31618876   5.153   4.065   7.938  0.1846 -0.1978  0.3526
  167SOPE  H16X18877   5.176   4.173   7.945 -0.7263  0.2692 -2.4889
  167SOPE  H16Y18878   5.173   4.029   7.835  1.2116  1.8203 -0.1958
  167SOPE  C31718879   5.237   3.991   8.039  0.2510  0.3790  0.0029
  167SOPE  H17X18880   5.199   3.887   8.041  2.2195 -0.3957 -0.2679
  167SOPE  H17Y18881   5.225   4.027   8.143 -0.6899  1.8266 -0.5764
  167SOPE  C31818882   5.385   3.989   8.013  0.5294  0.2421  0.5574
  167SOPE  H18X18883   5.432   3.903   8.066  0.1350 -1.1157 -1.1970
  167SOPE  H18Y18884   5.441   4.077   8.051  1.9046 -0.7425  0.8580
  167SOPE  H18Z18885   5.415   3.989   7.906  2.0500  1.3024  0.9474
  168SOPE     N18886   3.419   1.975   6.036 -0.5156  0.7968 -0.9711
  168SOPE   HN118887   3.337   1.936   5.986 -0.7445 -0.1757  0.0985
  168SOPE   HN218888   3.434   1.927   6.128  1.6444  2.1625 -0.5564
  168SOPE   HN318889   3.405   2.076   6.054 -0.2762  0.7846 -0.7033
  168SOPE   C1218890   3.541   1.940   5.964  0.8702 -0.3211 -0.3999
  168SOPE  H12A18891   3.534   2.006   5.875 -0.5893  1.3943  0.9194
  168SOPE  H12B18892   3.532   1.833   5.935  2.1749 -0.0201 -2.0653
  168SOPE   C1118893   3.665   1.967   6.051 -0.0450  0.1975 -0.3443
  168SOPE  H11A18894   3.747   1.930   5.985 -1.7311  0.0695 -2.4893
  168SOPE  H11B18895   3.669   1.899   6.139  2.0326 -0.3823 -0.8197
  168SOPE     P18896   3.822   2.144   6.152  0.0865 -0.1806 -0.5900
  168SOPE   O1318897   3.839   2.286   6.123 -0.5290 -0.3567 -0.1744
  168SOPE   O1418898   3.934   2.060   6.115  0.1297 -0.2807  0.4485
  168SOPE   O1218899   3.677   2.104   6.089 -0.2944  0.2661  0.7250
  168SOPE   O1118900   3.806   2.135   6.311  0.8818  0.0012  0.3945
  168SOPE    C118901   3.667   2.135   6.355  0.5370 -0.8524  0.1594
  168SOPE    HA18902   3.601   2.064   6.299  0.2128  0.3140 -0.9808
  168SOPE    HB18903   3.622   2.236   6.346  2.5739  0.0056 -1.0030
  168SOPE    C218904   3.648   2.113   6.506  0.4307 -0.2673 -0.3773
  168SOPE    HS18905   3.696   2.201   6.554 -1.7151  2.0446 -2.1678
  168SOPE   O2118906   3.706   1.987   6.551 -0.4311  0.0239 -0.6257
  168SOPE   C2118907   3.761   1.982   6.673  0.1962 -0.1148  0.1977
  168SOPE   O2218908   3.800   2.076   6.743  0.5569  0.3385  0.1966
  168SOPE   C2218909   3.771   1.847   6.726 -0.5213 -0.4206  0.0796
  168SOPE   H2R18910   3.819   1.781   6.650  0.2765 -0.7894  0.8870
  168SOPE   H2S18911   3.670   1.809   6.754  0.3330 -1.1266  2.3538
  168SOPE    C318912   3.498   2.110   6.553 -0.7586  0.4847  0.2495
  168SOPE    HX18913   3.443   2.030   6.498 -1.8841  2.9650 -2.5699
  168SOPE    HY18914   3.434   2.199   6.534 -0.0543  0.7880 -0.8141
  168SOPE   O3118915   3.488   2.077   6.693  1.1746  0.4742  0.0623
  168SOPE   C3118916   3.464   2.192   6.775 -0.2160 -0.0665  0.1390
  168SOPE   O3218917   3.471   2.303   6.730 -0.3637 -0.4499  0.2658
  168SOPE   C3218918   3.453   2.153   6.921 -0.0751  0.5159  0.3121
  168SOPE   H2X18919   3.527   2.076   6.954 -1.1093 -0.4332  0.4907
  168SOPE   H2Y18920   3.359   2.096   6.936  0.0555 -0.3968 -1.9478
  168SOPE   C2318921   3.860   1.841   6.854 -0.2561  0.7799 -0.0572
  168SOPE   H3R18922   3.815   1.910   6.929 -1.4718  0.8477 -0.8258
  168SOPE   H3S18923   3.961   1.881   6.833  0.2206 -1.2737 -1.9769
  168SOPE   C2418924   3.864   1.703   6.917 -0.4235 -0.5059  0.3726
  168SOPE   H4R18925   3.910   1.629   6.847  1.4556  0.5639  0.3884
  168SOPE   H4S18926   3.939   1.706   6.999  0.0039  1.9437 -0.0338
  168SOPE   C2518927   3.727   1.665   6.971  0.1674  0.8351  0.3014
  168SOPE   H5R18928   3.684   1.754   7.022 -0.3291  0.9455 -0.3081
  168SOPE   H5S18929   3.659   1.647   6.886  1.6601 -0.4144 -0.6854
  168SOPE   C2618930   3.734   1.554   7.076 -0.4373  0.0089  0.2353
  168SOPE   H6R18931   3.825   1.573   7.137  1.0612  1.2858 -2.2418
  168SOPE   H6S18932   3.644   1.554   7.142 -1.0762 -1.0302 -0.6158
  168SOPE   C2718933   3.761   1.417   7.007  0.4318  0.1709 -0.0644
  168SOPE   H7R18934   3.685   1.402   6.927 -1.0170 -1.8492  1.5495
  168SOPE   H7S18935   3.858   1.428   6.955 -0.5735  0.5540 -1.9388
  168SOPE   C2818936   3.777   1.297   7.100  0.1597  0.1692 -0.2458
  168SOPE   H8R18937   3.881   1.298   7.141  0.4402  0.7877 -0.9525
  168SOPE   H8S18938   3.715   1.300   7.192 -0.0580  0.2896 -0.3960
  168SOPE   C2918939   3.760   1.169   7.012  0.8298 -0.1657  0.0401
  168SOPE   H9118940   3.779   1.200   6.908  0.2459  2.3854  0.6213
  168SOPE  C21018941   3.715   1.048   7.056 -0.3024 -0.1613  0.1161
  168SOPE  H10118942   3.696   0.967   6.985  1.2453 -1.2736  0.9203
  168SOPE  C21118943   3.700   1.011   7.201  0.3652  0.3147 -0.7453
  168SOPE  H11R18944   3.593   1.008   7.232  0.8054 -1.2754  0.8336
  168SOPE  H11S18945   3.758   1.080   7.266  1.1239  0.8187 -1.9243
  168SOPE  C21218946   3.736   0.869   7.244 -0.2013 -0.3035  0.5093
  168SOPE  H12R18947   3.679   0.793   7.185 -0.2868  0.6201 -0.6303
  168SOPE  H12S18948   3.703   0.859   7.350  0.3751  0.7028  0.7893
  168SOPE  C21318949   3.894   0.839   7.236  0.5123 -0.1042 -0.4953
  168SOPE  H13R18950   3.956   0.928   7.258  1.5533 -1.0941  0.7631
  168SOPE  H13S18951   3.923   0.816   7.132  1.2587  1.9252 -0.7692
  168SOPE  C21418952   3.938   0.722   7.337  0.0692  0.6712  0.0624
  168SOPE  H14R18953   3.906   0.746   7.440 -0.3192  0.4078  0.0034
  168SOPE  H14S18954   4.048   0.711   7.331 -0.1626 -1.5300 -1.0805
  168SOPE  C21518955   3.883   0.583   7.289  0.8765  0.4901  0.0116
  168SOPE  H15R18956   3.900   0.556   7.182  1.3063  1.0465 -0.0630
  168SOPE  H15S18957   3.774   0.597   7.304  1.1650  2.0287  0.8031
  168SOPE  C21618958   3.925   0.467   7.386 -0.7603 -0.7056  0.4708
  168SOPE  H16R18959   4.034   0.489   7.386 -0.5618 -1.2982 -2.1916
  168SOPE  H16S18960   3.911   0.366   7.343 -2.2475 -1.5966  2.8778
  168SOPE  C21718961   3.878   0.484   7.533  0.0046 -0.6984 -0.4716
  168SOPE  H17R18962   3.768   0.470   7.533 -0.2134  0.2973  2.3207
  168SOPE  H17S18963   3.901   0.585   7.574 -0.1023 -0.8840  0.0473
  168SOPE  C21818964   3.939   0.382   7.623 -0.2816  0.4050  0.2618
  168SOPE  H18R18965   3.908   0.389   7.730 -0.4033  1.9872  0.1363
  168SOPE  H18S18966   4.048   0.366   7.612 -0.3091  0.6049 -0.3085
  168SOPE  H18T18967   3.904   0.281   7.591 -0.4683  1.2407 -2.4030
  168SOPE   C3318968   3.453   2.270   7.026  0.1731  0.7249  0.1814
  168SOPE   H3X18969   3.536   2.341   7.007  0.9708 -0.1680  0.2337
  168SOPE   H3Y18970   3.478   2.224   7.124 -1.2286  0.6403  0.5231
  168SOPE   C3418971   3.324   2.357   7.038  0.4899  0.6441  0.4818
  168SOPE   H4X18972   3.315   2.408   6.940 -1.2411  0.3811  0.4760
  168SOPE   H4Y18973   3.347   2.442   7.106  2.1329  0.6112 -0.0120
  168SOPE   C3518974   3.196   2.290   7.077  0.2565  0.2336  0.6258
  168SOPE   H5X18975   3.175   2.210   7.003  2.4023 -0.4530  0.7021
  168SOPE   H5Y18976   3.113   2.364   7.079  2.4541  2.8394  0.8819
  168SOPE   C3618977   3.202   2.217   7.208  0.0763  0.6123  0.2023
  168SOPE   H6X18978   3.277   2.135   7.206 -0.7982 -0.2363  1.2745
  168SOPE   H6Y18979   3.098   2.188   7.231  0.0881  0.1130 -0.3741
  168SOPE   C3718980   3.223   2.314   7.325 -0.0631 -0.0593  0.2770
  168SOPE   H7X18981   3.129   2.372   7.317 -1.0486 -1.7179 -0.8095
  168SOPE   H7Y18982   3.312   2.378   7.309 -0.1977  0.3576  1.1727
  168SOPE   C3818983   3.237   2.242   7.456  0.0204 -0.0715  0.1392
  168SOPE   H8X18984   3.319   2.167   7.459 -0.2833 -0.3737  1.6868
  168SOPE   H8Y18985   3.140   2.189   7.466 -0.1116 -0.3079 -1.9398
  168SOPE   C3918986   3.265   2.341   7.568 -0.0940 -0.5769  0.6022
  168SOPE   H9X18987   3.191   2.424   7.564  1.6927  1.0836  0.6968
  168SOPE   H9Y18988   3.368   2.377   7.547  1.2645 -4.0127  0.8296
  168SOPE  C31018989   3.261   2.272   7.702  0.2767  0.2115 -0.2242
  168SOPE  H10X18990   3.319   2.334   7.774 -1.8648  2.6070 -0.4099
  168SOPE  H10Y18991   3.301   2.169   7.696 -0.5018 -0.1119  0.0647
  168SOPE  C31118992   3.115   2.259   7.751  0.3516 -0.0415 -0.5209
  168SOPE  H11X18993   3.053   2.201   7.680 -1.8145  0.3150  0.9665
  168SOPE  H11Y18994   3.065   2.359   7.747  1.1809  0.3890 -0.3354
  168SOPE  C31218995   3.090   2.213   7.891 -0.1692 -0.2167  0.8656
  168SOPE  H12X18996   3.161   2.132   7.916 -2.1832 -1.9120  1.3975
  168SOPE  H12Y18997   2.987   2.172   7.903 -1.5237  3.1380  2.2836
  168SOPE  C31318998   3.104   2.324   7.998  0.2067 -1.0427 -0.4434
  168SOPE  H13X18999   3.045   2.414   7.970  2.7976  1.2505  0.9167
  168SOPE  H13Y19000   3.208   2.363   7.997 -1.0282  2.8664  1.8930
  168SOPE  C31419001   3.067   2.283   8.139 -0.8097  0.0125 -0.1605
  168SOPE  H14X19002   3.155   2.279   8.206  0.8493  0.7682 -2.1823
  168SOPE  H14Y19003   3.030   2.178   8.133 -1.5153  0.2196  0.4091
  168SOPE  C31519004   2.976   2.386   8.211 -0.0740  0.6727 -0.0376
  168SOPE  H15X19005   2.889   2.423   8.154 -0.8144  0.4377  0.9147
  168SOPE  H15Y19006   3.040   2.476   8.227 -0.2198  0.5315  1.5350
  168SOPE  C31619007   2.925   2.332   8.350  0.6625  0.0160 -0.5906
  168SOPE  H16X19008   3.015   2.304   8.408 -0.8975 -0.3243  1.8095
  168SOPE  H16Y19009   2.866   2.243   8.322 -0.0462  0.2729  0.0554
  168SOPE  C31719010   2.840   2.421   8.438 -0.4450  0.6194  0.8429
  168SOPE  H17X19011   2.832   2.396   8.546 -0.0707  2.2040  1.2644
  168SOPE  H17Y19012   2.737   2.411   8.399 -0.0214  0.5084 -0.2596
  168SOPE  C31819013   2.880   2.573   8.441  0.4043  0.7685 -0.2386
  168SOPE  H18X19014   2.793   2.628   8.485 -1.0218 -0.0469 -1.8982
  168SOPE  H18Y19015   2.899   2.617   8.341 -0.5190  0.9144 -0.3585
  168SOPE  H18Z19016   2.969   2.583   8.506  0.0662 -1.6001  0.6926
  169SOPE     N19017   0.365   5.016   5.548 -0.5251  0.6228 -0.7245
  169SOPE   HN119018   0.302   5.056   5.620 -2.1994 -2.8807  0.0159
  169SOPE   HN219019   0.316   4.990   5.460  0.4387 -3.8854 -0.1814
  169SOPE   HN319020   0.397   4.931   5.599 -1.2445  0.9946  0.4024
  169SOPE   C1219021   0.489   5.103   5.527  0.1163 -0.0887  0.1221
  169SOPE  H12A19022   0.455   5.196   5.478  2.1781  0.7782  0.2545
  169SOPE  H12B19023   0.561   5.069   5.449  0.7865  2.0449 -0.2467
  169SOPE   C1119024   0.570   5.142   5.646  0.0564 -0.0274  0.1587
  169SOPE  H11A19025   0.678   5.158   5.628 -0.1170  3.8191  1.5580
  169SOPE  H11B19026   0.580   5.053   5.711  1.3381 -1.3633 -1.7610
  169SOPE     P19027   0.555   5.403   5.718 -0.2318  0.1102  0.3986
  169SOPE   O1319028   0.444   5.484   5.668  0.4752 -0.1354 -0.5969
  169SOPE   O1419029   0.678   5.410   5.641  0.2824  0.5026 -0.2983
  169SOPE   O1219030   0.504   5.247   5.714 -0.0944  0.0006 -0.2159
  169SOPE   O1119031   0.580   5.438   5.870  0.0346 -0.6628 -0.4323
  169SOPE    C119032   0.640   5.332   5.954  0.1192  0.0069  0.5377
  169SOPE    HA19033   0.703   5.370   6.036 -1.8073 -0.2860  2.2363
  169SOPE    HB19034   0.698   5.255   5.899 -1.7236 -2.4795  1.8212
  169SOPE    C219035   0.540   5.244   6.025  0.0232 -0.3955 -0.3534
  169SOPE    HS19036   0.467   5.210   5.948 -0.9859  0.3701  0.2394
  169SOPE   O2119037   0.501   5.320   6.141  0.4509 -0.1788 -0.0441
  169SOPE   C2119038   0.376   5.309   6.174 -0.8582  0.7504  0.7289
  169SOPE   O2219039   0.288   5.255   6.108  0.2347 -0.1044  0.4366
  169SOPE   C2219040   0.352   5.368   6.316  0.4571  0.0390  0.0467
  169SOPE   H2R19041   0.247   5.348   6.346  0.0268  2.3717  0.3081
  169SOPE   H2S19042   0.376   5.476   6.301 -0.0045 -0.1046 -2.1750
  169SOPE    C319043   0.618   5.114   6.069  0.5117 -0.4214 -0.9878
  169SOPE    HX19044   0.714   5.146   6.115 -0.6335  1.2429  0.3393
  169SOPE    HY19045   0.627   5.044   5.982 -1.6780 -0.9896 -0.8200
  169SOPE   O3119046   0.547   5.048   6.178  0.6675  0.1190  0.4453
  169SOPE   C3119047   0.617   4.960   6.233  0.3122 -0.0801 -0.3730
  169SOPE   O3219048   0.722   4.914   6.193 -0.5307  0.0853 -0.3743
  169SOPE   C3219049   0.527   4.889   6.328 -0.0093 -0.1744 -0.1214
  169SOPE   H2X19050   0.473   4.807   6.276  0.7312 -0.4482 -0.4811
  169SOPE   H2Y19051   0.445   4.952   6.368  1.0127  0.3096  1.3292
  169SOPE   C2319052   0.434   5.302   6.434 -0.2073  0.4384  0.1392
  169SOPE   H3R19053   0.541   5.327   6.419 -0.1268 -0.5205 -1.0278
  169SOPE   H3S19054   0.419   5.192   6.432 -0.6515  0.4797 -2.0711
  169SOPE   C2419055   0.394   5.358   6.571  0.0584  0.3737 -0.1923
  169SOPE   H4R19056   0.405   5.469   6.580  1.1369  0.2542  0.1014
  169SOPE   H4S19057   0.284   5.345   6.582 -0.1082  1.5838 -0.2037
  169SOPE   C2519058   0.457   5.289   6.686 -0.1938 -0.1113  0.5285
  169SOPE   H5R19059   0.431   5.181   6.688  0.3476 -0.2969 -1.1264
  169SOPE   H5S19060   0.568   5.296   6.680 -0.1646  0.1486  1.2514
  169SOPE   C2619061   0.414   5.352   6.818 -0.2237  0.2111  0.5357
  169SOPE   H6R19062   0.460   5.453   6.814  0.4713 -0.0802  0.9287
  169SOPE   H6S19063   0.304   5.365   6.820  0.0656  3.0739  2.4519
  169SOPE   C2719064   0.455   5.275   6.943 -0.1460 -0.2697  0.1066
  169SOPE   H7R19065   0.402   5.178   6.940 -2.4053  0.6896  3.5545
  169SOPE   H7S19066   0.564   5.258   6.955 -0.5145 -1.8566  1.5202
  169SOPE   C2819067   0.403   5.348   7.076  0.2259  0.4284 -0.1108
  169SOPE   H8R19068   0.436   5.453   7.066 -0.2984  0.5002 -1.1729
  169SOPE   H8S19069   0.293   5.342   7.090  0.2894 -0.1060  0.2169
  169SOPE   C2919070   0.469   5.284   7.202  0.0318 -0.0491  0.0437
  169SOPE   H9119071   0.544   5.355   7.242  1.5023 -0.7671 -1.3123
  169SOPE  C21019072   0.474   5.154   7.239  0.9080  0.5816  0.1660
  169SOPE  H10119073   0.527   5.146   7.336  0.8968  0.8439  0.1955
  169SOPE  C21119074   0.387   5.040   7.183  0.3759 -0.0830 -0.0159
  169SOPE  H11R19075   0.442   4.950   7.148  0.1675  0.5741 -2.1254
  169SOPE  H11S19076   0.320   5.077   7.103  0.3985  0.3617  0.1705
  169SOPE  C21219077   0.285   4.988   7.298  0.5932 -0.3596 -0.0346
  169SOPE  H12R19078   0.259   4.881   7.281  0.1397 -0.5016  1.4138
  169SOPE  H12S19079   0.187   5.038   7.284 -0.2357 -1.6928  0.7659
  169SOPE  C21319080   0.327   4.996   7.443  0.3869 -0.6252  0.1419
  169SOPE  H13R19081   0.348   5.103   7.464 -0.6727 -0.0873 -1.3597
  169SOPE  H13S19082   0.412   4.924   7.444 -0.4456 -1.6572 -0.6332
  169SOPE  C21419083   0.214   4.956   7.528  1.0024 -0.1232  0.3231
  169SOPE  H14R19084   0.167   4.864   7.485  0.6346 -0.5220  1.5339
  169SOPE  H14S19085   0.134   5.034   7.527  0.5123 -0.6109  0.7349
  169SOPE  C21519086   0.250   4.926   7.669  0.1646  0.0003 -0.7459
  169SOPE  H15R19087   0.353   4.886   7.681  0.0553 -0.6428 -1.7935
  169SOPE  H15S19088   0.179   4.844   7.693  0.1419  0.0295 -0.7133
  169SOPE  C21619089   0.227   5.053   7.760 -0.6727 -0.7951  0.0330
  169SOPE  H16R19090   0.119   5.080   7.761 -0.8867 -1.6306  1.4275
  169SOPE  H16S19091   0.286   5.139   7.722 -1.5471  0.3064  1.0807
  169SOPE  C21719092   0.296   5.032   7.902  0.3291 -0.8462  0.0581
  169SOPE  H17R19093   0.287   5.134   7.945  2.2473 -0.4423 -0.4176
  169SOPE  H17S19094   0.403   5.010   7.887  1.0237  2.0195  0.2494
  169SOPE  C21819095   0.215   4.938   7.998 -0.4966  0.2276 -0.2190
  169SOPE  H18R19096   0.109   4.971   7.998 -0.2399  1.3632  2.8845
  169SOPE  H18S19097   0.259   4.944   8.100  1.2749 -0.8122 -0.8813
  169SOPE  H18T19098   0.214   4.832   7.965 -2.0050 -0.2064  1.1407
  169SOPE   C3319099   0.605   4.828   6.448  0.1342 -0.5786  0.9571
  169SOPE   H3X19100   0.677   4.899   6.495 -1.8909  1.6613  0.8634
  169SOPE   H3Y19101   0.660   4.737   6.416  2.0742  0.2352  1.8144
  169SOPE   C3419102   0.507   4.777   6.549  0.3967  0.4659 -0.7023
  169SOPE   H4X19103   0.555   4.708   6.621 -1.6093  0.3261  0.5660
  169SOPE   H4Y19104   0.428   4.715   6.502 -0.3739 -0.7393  2.0075
  169SOPE   C3519105   0.438   4.883   6.638 -0.1419  0.7449 -0.1845
  169SOPE   H5X19106   0.382   4.951   6.571 -1.0214  1.0117  0.8050
  169SOPE   H5Y19107   0.524   4.937   6.684  1.4534  1.1132 -3.3241
  169SOPE   C3619108   0.347   4.819   6.744 -0.0722 -0.1834 -0.2555
  169SOPE   H6X19109   0.407   4.785   6.831 -0.0925  1.0580  0.2678
  169SOPE   H6Y19110   0.278   4.739   6.712  0.3930 -1.3826  1.5920
  169SOPE   C3719111   0.250   4.911   6.822  0.3671 -0.1196  0.1489
  169SOPE   H7X19112   0.189   4.980   6.760  1.0561 -0.2641 -0.7210
  169SOPE   H7Y19113   0.314   4.984   6.876  2.3079 -0.6725 -1.2665
  169SOPE   C3819114   0.158   4.844   6.931 -0.4990  0.2031 -0.7122
  169SOPE   H8X19115   0.221   4.764   6.975 -0.3205 -0.5955 -2.3372
  169SOPE   H8Y19116   0.133   4.920   7.008  1.3933  0.5474 -0.3764
  169SOPE   C3919117   0.032   4.785   6.867 -0.9431 -0.4387 -0.3461
  169SOPE   H9X19118   0.063   4.723   6.780 -0.9764 -0.3025 -0.4553
  169SOPE   H9Y19119  -0.014   4.876   6.823  3.2795  1.4535 -1.3778
  169SOPE  C31019120  -0.059   4.706   6.962 -0.6785 -0.3256 -0.3521
  169SOPE  H10X19121  -0.018   4.615   7.009  0.6532 -0.2054 -1.2305
  169SOPE  H10Y19122  -0.140   4.668   6.896 -0.2987 -1.0324 -0.4214
  169SOPE  C31119123  -0.107   4.800   7.078 -0.4496  0.0874 -0.3845
  169SOPE  H11X19124  -0.162   4.880   7.023 -3.2233 -1.6861 -0.4217
  169SOPE  H11Y19125  -0.023   4.830   7.144 -2.6449  1.5780  1.9343
  169SOPE  C31219126  -0.219   4.727   7.167 -0.3440 -0.2813 -0.0368
  169SOPE  H12X19127  -0.172   4.635   7.209  0.7632  0.9573  1.5510
  169SOPE  H12Y19128  -0.295   4.674   7.105  2.2691 -2.5911 -1.5032
  169SOPE  C31319129  -0.286   4.814   7.270  0.2916 -0.3850 -1.4729
  169SOPE  H13X19130  -0.345   4.890   7.215  1.0810  1.6396  0.3191
  169SOPE  H13Y19131  -0.208   4.872   7.324 -0.4982  0.9305 -1.7232
  169SOPE  C31419132  -0.387   4.736   7.349  0.4171  0.1807 -0.0147
  169SOPE  H14X19133  -0.334   4.662   7.412  0.0084  1.2783  1.6744
  169SOPE  H14Y19134  -0.456   4.667   7.295  0.1586  0.3007  0.1590
  169SOPE  C31519135  -0.457   4.825   7.455 -0.2530  0.1915 -0.4275
  169SOPE  H15X19136  -0.521   4.765   7.523  1.8505 -0.2544  1.2713
  169SOPE  H15Y19137  -0.521   4.894   7.396  0.0011 -0.7194 -1.8150
  169SOPE  C31619138  -0.364   4.900   7.548  0.0212  0.1039  0.6363
  169SOPE  H16X19139  -0.260   4.861   7.556 -0.5033 -1.5686 -0.1852
  169SOPE  H16Y19140  -0.404   4.898   7.652 -3.0036 -2.9885 -0.4024
  169SOPE  C31719141  -0.361   5.049   7.498  0.5227  0.2786  0.5141
  169SOPE  H17X19142  -0.463   5.094   7.506 -0.0781 -0.4346 -2.1131
  169SOPE  H17Y19143  -0.340   5.046   7.389 -1.4807 -0.3746  0.0983
  169SOPE  C31819144  -0.240   5.117   7.562  0.3758  0.4206  0.6702
  169SOPE  H18X19145  -0.237   5.221   7.522 -2.5880  0.1913 -0.3856
  169SOPE  H18Y19146  -0.150   5.064   7.524  1.4074  3.6493 -1.8490
  169SOPE  H18Z19147  -0.226   5.126   7.672  1.1979  3.6992  0.4116
  170SOPE     N19148   0.866   3.160   6.179  0.4544  0.1212 -0.3898
  170SOPE   HN119149   0.808   3.140   6.094  1.6055 -2.3183 -0.6858
  170SOPE   HN219150   0.884   3.262   6.186  0.6467 -0.0541  2.7395
  170SOPE   HN319151   0.955   3.111   6.158  0.9171 -0.2978  2.2919
  170SOPE   C1219152   0.792   3.120   6.297 -0.7139  0.3023  0.0578
  170SOPE  H12A19153   0.841   3.165   6.386  0.7752  1.9540 -1.5201
  170SOPE  H12B19154   0.792   3.009   6.303 -0.4794  0.3012  0.0341
  170SOPE   C1119155   0.648   3.177   6.291  0.1336  0.6371  0.5084
  170SOPE  H11A19156   0.647   3.288   6.289 -0.7869  0.6266 -0.8290
  170SOPE  H11B19157   0.612   3.160   6.395  0.6064 -1.5964  0.3603
  170SOPE     P19158   0.427   3.193   6.159 -0.2134 -0.5143 -0.5885
  170SOPE   O1319159   0.331   3.100   6.097  0.2917 -0.0873  0.4539
  170SOPE   O1419160   0.463   3.310   6.078 -0.8459  0.4755  0.4431
  170SOPE   O1219161   0.560   3.113   6.196  0.2665 -0.0609 -0.4581
  170SOPE   O1119162   0.367   3.236   6.294 -0.1109 -0.5861 -0.3400
  170SOPE    C119163   0.307   3.368   6.314  0.2745  0.2554 -0.4093
  170SOPE    HA19164   0.222   3.389   6.245  0.2993  1.6495 -0.0600
  170SOPE    HB19165   0.383   3.448   6.300 -0.2615  0.8646  0.0683
  170SOPE    C219166   0.237   3.377   6.451  0.1752 -0.8660 -0.5842
  170SOPE    HS19167   0.211   3.482   6.472 -1.1699 -1.1386 -0.8434
  170SOPE   O2119168   0.325   3.338   6.562  0.0762 -0.1269  0.1888
  170SOPE   C2119169   0.409   3.429   6.610  0.2185 -0.3790  0.7658
  170SOPE   O2219170   0.423   3.543   6.576  0.1652 -0.2922 -0.6498
  170SOPE   C2219171   0.484   3.373   6.729  0.5699  0.3020  0.4065
  170SOPE   H2R19172   0.418   3.352   6.816 -1.7918 -0.1687 -1.4078
  170SOPE   H2S19173   0.552   3.458   6.750  0.5619  0.5695 -0.6337
  170SOPE    C319174   0.108   3.296   6.461  0.3419  0.0826  0.1699
  170SOPE    HX19175   0.148   3.192   6.460  0.0924 -0.0149 -0.8471
  170SOPE    HY19176   0.056   3.296   6.363 -0.1274 -0.2775  0.4114
  170SOPE   O3119177   0.023   3.341   6.568  0.6658 -0.9011  0.0423
  170SOPE   C3119178  -0.039   3.250   6.628 -0.0369  0.3953 -0.0777
  170SOPE   O3219179  -0.046   3.134   6.583  0.2054  0.0002 -0.4585
  170SOPE   C3219180  -0.098   3.301   6.751  0.2499  0.2148 -0.3969
  170SOPE   H2X19181  -0.184   3.364   6.718 -1.4884 -1.5629  0.4904
  170SOPE   H2Y19182  -0.020   3.362   6.802 -0.3666 -0.0123  0.8748
  170SOPE   C2319183   0.560   3.235   6.704 -0.2717 -0.6109 -0.4045
  170SOPE   H3R19184   0.624   3.235   6.613 -0.5604  2.0469 -0.6987
  170SOPE   H3S19185   0.489   3.150   6.709 -1.7812  0.6082 -0.3289
  170SOPE   C2419186   0.672   3.218   6.807 -0.1942 -0.0738  0.1675
  170SOPE   H4R19187   0.647   3.244   6.912 -0.9567  0.6694 -0.1863
  170SOPE   H4S19188   0.717   3.116   6.805  0.4883  0.1809  1.2255
  170SOPE   C2519189   0.800   3.308   6.780  0.0322 -0.2793  0.2628
  170SOPE   H5R19190   0.813   3.325   6.671 -2.0512  0.1538  0.0471
  170SOPE   H5S19191   0.775   3.406   6.826 -0.3144  0.1480 -0.7873
  170SOPE   C2619192   0.922   3.235   6.836 -0.4289  0.0689 -0.2771
  170SOPE   H6R19193   0.891   3.201   6.937  1.6071 -0.2958  0.2804
  170SOPE   H6S19194   0.946   3.147   6.773  0.9076 -0.7039  1.2107
  170SOPE   C2719195   1.052   3.309   6.860 -0.1824 -0.3705  0.1237
  170SOPE   H7R19196   1.073   3.350   6.759 -0.5118 -1.5654 -0.4412
  170SOPE   H7S19197   1.036   3.393   6.932 -1.5432  0.9213 -1.5748
  170SOPE   C2819198   1.167   3.223   6.918 -0.3851 -0.1486  0.0120
  170SOPE   H8R19199   1.138   3.193   7.021 -0.2904  2.3862  0.8354
  170SOPE   H8S19200   1.165   3.132   6.854 -0.1886  0.3394 -0.6982
  170SOPE   C2919201   1.294   3.310   6.923 -0.2117  0.3194 -0.4626
  170SOPE   H9119202   1.301   3.384   6.842  1.7098  4.9095  3.3992
  170SOPE  C21019203   1.399   3.296   7.003 -0.6345  0.5461 -0.3087
  170SOPE  H10119204   1.486   3.364   6.999 -1.2512  1.3203 -0.9523
  170SOPE  C21119205   1.426   3.190   7.107  0.7695  0.4014  0.2368
  170SOPE  H11R19206   1.516   3.135   7.071  1.0681  1.0559 -0.0197
  170SOPE  H11S19207   1.341   3.122   7.128  1.1279  0.2691  1.3448
  170SOPE  C21219208   1.477   3.255   7.237  0.2135  1.1332  0.2684
  170SOPE  H12R19209   1.420   3.349   7.255 -1.1564  0.3517  0.1534
  170SOPE  H12S19210   1.581   3.284   7.211 -0.1138  0.2525 -2.3757
  170SOPE  C21319211   1.472   3.172   7.366 -0.0425  0.3322  0.0132
  170SOPE  H13R19212   1.496   3.235   7.454 -0.5330 -0.4930  0.7579
  170SOPE  H13S19213   1.547   3.090   7.359 -1.1443 -0.6381 -0.7216
  170SOPE  C21419214   1.340   3.109   7.414 -0.0928  0.5639  0.5450
  170SOPE  H14R19215   1.353   3.065   7.515 -3.1803  2.5424  1.9370
  170SOPE  H14S19216   1.321   3.027   7.342 -0.6464  0.4284  0.8456
  170SOPE  C21519217   1.205   3.181   7.432 -0.4816  0.6036 -0.3130
  170SOPE  H15R19218   1.223   3.255   7.512  1.1473 -0.2924  0.1945
  170SOPE  H15S19219   1.131   3.104   7.465  1.4016 -1.4406 -0.5861
  170SOPE  C21619220   1.141   3.257   7.315 -0.0123 -0.2502  0.0375
  170SOPE  H16R19221   1.129   3.193   7.225  2.1298 -0.2985 -0.2682
  170SOPE  H16S19222   1.205   3.342   7.282  1.5133 -0.6565  1.7901
  170SOPE  C21719223   0.996   3.309   7.351 -0.3581  1.1355  0.6785
  170SOPE  H17R19224   1.014   3.368   7.443  2.4952  0.2974  0.7642
  170SOPE  H17S19225   0.928   3.223   7.373  1.4117 -0.6343 -0.3679
  170SOPE  C21819226   0.931   3.389   7.232 -0.2401 -0.6184 -0.5405
  170SOPE  H18R19227   0.826   3.421   7.254  0.4689  0.7915  1.0979
  170SOPE  H18S19228   0.934   3.328   7.140 -0.3146 -0.6828 -0.5012
  170SOPE  H18T19229   0.994   3.479   7.220 -1.4280  0.3794  0.3681
  170SOPE   C3319230  -0.125   3.198   6.854 -0.0677  1.6803  0.2561
  170SOPE   H3X19231  -0.039   3.129   6.864  0.0345  1.4332 -1.9220
  170SOPE   H3Y19232  -0.200   3.127   6.815  1.2585 -1.1226  2.4345
  170SOPE   C3419233  -0.162   3.265   6.983  0.5172 -0.0255 -0.0552
  170SOPE   H4X19234  -0.239   3.344   6.975  1.0671  0.3956 -1.4841
  170SOPE   H4Y19235  -0.080   3.331   7.020  1.1821 -0.7653 -0.1758
  170SOPE   C3519236  -0.191   3.160   7.098  0.5439  0.1490 -0.0345
  170SOPE   H5X19237  -0.118   3.079   7.077 -0.0799 -0.3807 -0.2037
  170SOPE   H5Y19238  -0.295   3.123   7.089 -0.0248  0.5756  3.5353
  170SOPE   C3619239  -0.176   3.221   7.235 -0.1394  0.3017 -0.4902
  170SOPE   H6X19240  -0.227   3.151   7.305  0.9734  0.3032  0.3659
  170SOPE   H6Y19241  -0.223   3.321   7.242  1.3306  0.9139  2.4238
  170SOPE   C3719242  -0.023   3.223   7.276 -0.4333 -0.4159 -0.0826
  170SOPE   H7X19243   0.032   3.318   7.258  2.3247 -2.1966 -1.8489
  170SOPE   H7Y19244   0.025   3.146   7.212 -0.1127 -0.6269  0.4123
  170SOPE   C3819245   0.000   3.177   7.423 -0.2604 -0.3914 -0.2374
  170SOPE   H8X19246   0.109   3.160   7.437  0.2183  2.5230  0.0995
  170SOPE   H8Y19247  -0.047   3.078   7.441 -0.5902 -0.4445 -1.2998
  170SOPE   C3919248  -0.061   3.265   7.532 -0.2082  0.1804  0.0765
  170SOPE   H9X19249  -0.045   3.209   7.626 -0.6624 -0.6762 -0.3472
  170SOPE   H9Y19250  -0.169   3.278   7.509  0.1031 -1.7075 -2.9676
  170SOPE  C31019251   0.006   3.407   7.537  0.3098  0.0472 -0.1601
  170SOPE  H10X19252  -0.026   3.460   7.445 -0.6357  0.4265  0.3679
  170SOPE  H10Y19253   0.112   3.375   7.530  0.5766  0.8916  0.0066
  170SOPE  C31119254  -0.025   3.483   7.669 -0.2947 -0.0451  0.2105
  170SOPE  H11X19255  -0.003   3.423   7.761  4.2535 -0.4328 -0.8836
  170SOPE  H11Y19256  -0.135   3.494   7.675 -0.6375 -2.3990 -0.6794
  170SOPE  C31219257   0.047   3.616   7.671 -0.3146  0.0535 -0.2968
  170SOPE  H12X19258   0.040   3.669   7.573 -1.8059 -0.4782 -0.5042
  170SOPE  H12Y19259   0.153   3.584   7.683 -0.5302 -0.8642 -0.7640
  170SOPE  C31319260   0.019   3.696   7.798  0.2617  0.6124 -0.1145
  170SOPE  H13X19261   0.035   3.633   7.888  2.0551 -1.1998 -1.6034
  170SOPE  H13Y19262  -0.091   3.706   7.807  0.3832  0.6715  1.5094
  170SOPE  C31419263   0.102   3.826   7.810  0.0461 -0.5635 -0.1631
  170SOPE  H14X19264   0.057   3.893   7.886  2.8839  1.1246  0.1692
  170SOPE  H14Y19265   0.077   3.884   7.719  0.8364  0.3759  0.2079
  170SOPE  C31519266   0.252   3.811   7.825 -1.0203  0.1972 -0.8959
  170SOPE  H15X19267   0.287   3.915   7.806  0.2005 -0.1223 -0.4716
  170SOPE  H15Y19268   0.299   3.740   7.753  1.8667  0.0156  1.0047
  170SOPE  C31619269   0.286   3.772   7.969  0.4250 -0.4053  0.1558
  170SOPE  H16X19270   0.253   3.668   7.992  0.5397 -0.3694  0.4796
  170SOPE  H16Y19271   0.227   3.833   8.040  0.5834 -1.9108  1.6408
  170SOPE  C31719272   0.434   3.788   7.992 -0.0120  0.5661 -0.5542
  170SOPE  H17X19273   0.464   3.894   7.978  1.7883  0.0478 -0.8513
  170SOPE  H17Y19274   0.494   3.738   7.913  1.1408 -0.2934  0.8052
  170SOPE  C31819275   0.480   3.746   8.135  0.6982 -0.1329  0.4476
  170SOPE  H18X19276   0.414   3.668   8.178 -0.4367  0.5614 -0.0169
  170SOPE  H18Y19277   0.476   3.838   8.198 -0.1460  1.1605 -1.4221
  170SOPE  H18Z19278   0.585   3.708   8.131 -0.1480 -2.8901  2.1277
  171SOPE     N19279   6.152   0.059   6.026  0.5134 -0.3386 -0.2809
  171SOPE   HN119280   6.235   0.118   6.048  0.9884 -1.6305  1.6824
  171SOPE   HN219281   6.091   0.109   5.959  1.1178 -1.3284 -1.6310
  171SOPE   HN319282   6.090   0.032   6.106  2.1206 -1.3938  0.6841
  171SOPE   C1219283   6.203  -0.067   5.950 -0.0184 -0.4621  0.0618
  171SOPE  H12A19284   6.263  -0.041   5.860 -0.7000  0.9022 -0.0261
  171SOPE  H12B19285   6.102  -0.092   5.909 -1.3906  1.1088  2.2822
  171SOPE   C1119286   6.265  -0.175   6.038  0.3864  0.5798  0.3850
  171SOPE  H11A19287   6.211  -0.173   6.135  0.6505 -1.2714  0.6056
  171SOPE  H11B19288   6.373  -0.160   6.057  0.0682  1.1007  1.8492
  171SOPE     P19289   6.236  -0.435   6.047  0.2050 -0.1697 -0.1905
  171SOPE   O1319290   6.267  -0.539   5.943 -0.5672 -0.1062  0.1362
  171SOPE   O1419291   6.103  -0.455   6.109  0.1067 -0.3780  0.3169
  171SOPE   O1219292   6.245  -0.301   5.972  0.0754 -0.2929  0.0494
  171SOPE   O1119293   6.346  -0.442   6.157 -0.2478  0.9429 -0.1531
  171SOPE    C119294   6.469  -0.512   6.135 -0.4406  0.4899 -0.5332
  171SOPE    HA19295   6.501  -0.492   6.030  1.2919  2.1815  0.2580
  171SOPE    HB19296   6.453  -0.619   6.158 -0.5100  0.3309 -1.2835
  171SOPE    C219297   6.573  -0.458   6.235  0.1516 -0.1339 -0.5803
  171SOPE    HS19298   6.674  -0.500   6.218  0.7481  1.1049 -0.1693
  171SOPE   O2119299   6.532  -0.495   6.367 -0.4785 -0.3833 -0.2248
  171SOPE   C2119300   6.560  -0.617   6.407  0.5482  0.9005 -0.2234
  171SOPE   O2219301   6.624  -0.700   6.341  0.2795 -0.3488 -0.4998
  171SOPE   C2219302   6.498  -0.644   6.544  0.1269  0.1552 -0.0018
  171SOPE   H2R19303   6.400  -0.692   6.525  0.1034 -0.4614  1.5442
  171SOPE   H2S19304   6.473  -0.546   6.591 -2.7066 -1.3433  1.9079
  171SOPE    C319305   6.578  -0.307   6.231  0.7627 -0.1157 -0.2954
  171SOPE    HX19306   6.480  -0.283   6.279  1.4695 -0.1546  1.1888
  171SOPE    HY19307   6.588  -0.282   6.123  0.2383  0.8844 -0.1258
  171SOPE   O3119308   6.694  -0.252   6.303 -0.5526 -0.5140  0.2344
  171SOPE   C3119309   6.675  -0.123   6.329 -0.6773  0.4074  0.2105
  171SOPE   O3219310   6.578  -0.058   6.286  0.3046  0.6649  0.5997
  171SOPE   C3219311   6.802  -0.071   6.406 -0.3988 -0.0608 -0.0118
  171SOPE   H2X19312   6.870  -0.053   6.320 -1.3260 -0.9436 -0.9573
  171SOPE   H2Y19313   6.847  -0.154   6.465 -2.8972 -0.7873  1.0204
  171SOPE   C2319314   6.592  -0.725   6.635  0.8753 -0.2594  0.4106
  171SOPE   H3R19315   6.693  -0.680   6.644  0.6021  0.3859  0.3213
  171SOPE   H3S19316   6.609  -0.828   6.598  0.3046 -1.2967  2.8510
  171SOPE   C2419317   6.535  -0.725   6.774  0.6530 -0.2136  0.1699
  171SOPE   H4R19318   6.504  -0.628   6.818  1.8620 -0.8119  2.4561
  171SOPE   H4S19319   6.445  -0.791   6.769  0.6859 -0.5837  3.0692
  171SOPE   C2519320   6.631  -0.782   6.872  0.4472 -0.6776  0.2895
  171SOPE   H5R19321   6.641  -0.883   6.826  0.5430 -0.4299 -0.2293
  171SOPE   H5S19322   6.731  -0.733   6.880 -0.6139  1.7548 -0.5129
  171SOPE   C2619323   6.560  -0.795   7.008  0.2952 -0.5404 -1.0141
  171SOPE   H6R19324   6.513  -0.699   7.038 -1.7923 -1.7150 -0.3143
  171SOPE   H6S19325   6.477  -0.869   7.004  1.5500 -2.4756  2.8724
  171SOPE   C2719326   6.653  -0.844   7.123 -0.2492 -0.2129  0.0181
  171SOPE   H7R19327   6.692  -0.945   7.095  2.4806  0.4882  0.9668
  171SOPE   H7S19328   6.739  -0.775   7.134 -0.3780  0.1556 -1.1521
  171SOPE   C2819329   6.590  -0.864   7.258 -0.0771  0.2480  0.5197
  171SOPE   H8R19330   6.536  -0.776   7.300  0.3461 -0.6091  3.0635
  171SOPE   H8S19331   6.511  -0.942   7.246  0.1423 -0.1280  1.4279
  171SOPE   C2919332   6.690  -0.881   7.367 -0.0829 -0.1262  0.6592
  171SOPE   H9119333   6.731  -0.784   7.401 -0.1360  0.9608 -2.1567
  171SOPE  C21019334   6.733  -0.996   7.415  0.0943 -0.3805 -0.4553
  171SOPE  H10119335   6.818  -0.993   7.486  0.5336  0.9690 -1.0055
  171SOPE  C21119336   6.685  -1.132   7.366  0.4621 -0.1464  0.5262
  171SOPE  H11R19337   6.772  -1.191   7.329 -0.3765 -0.5728 -0.8333
  171SOPE  H11S19338   6.607  -1.124   7.288  0.0323 -1.6004  0.7808
  171SOPE  C21219339   6.620  -1.218   7.479 -0.0094 -0.8338 -0.2192
  171SOPE  H12R19340   6.578  -1.314   7.444  1.2722 -1.7897  0.7716
  171SOPE  H12S19341   6.535  -1.159   7.519 -0.0231 -0.4358 -0.8125
  171SOPE  C21319342   6.714  -1.243   7.605 -0.4000  0.3162 -0.2595
  171SOPE  H13R19343   6.729  -1.145   7.656 -3.9206 -0.1880  2.1496
  171SOPE  H13S19344   6.809  -1.286   7.567  0.2897  1.7250 -0.2036
  171SOPE  C21419345   6.641  -1.344   7.704  0.9000  0.2671  0.6599
  171SOPE  H14R19346   6.723  -1.380   7.769 -0.3689 -3.3196  0.4618
  171SOPE  H14S19347   6.604  -1.430   7.644 -2.5571  1.8595  0.2694
  171SOPE  C21519348   6.527  -1.275   7.778  0.5282  0.2671 -0.5242
  171SOPE  H15R19349   6.472  -1.341   7.848 -1.4606 -0.6616 -2.8107
  171SOPE  H15S19350   6.449  -1.238   7.707 -0.5460  0.6095  0.7978
  171SOPE  C21619351   6.582  -1.169   7.879 -0.7594  0.1873 -0.0419
  171SOPE  H16R19352   6.640  -1.089   7.827  1.8687 -2.0182 -0.7440
  171SOPE  H16S19353   6.653  -1.223   7.944 -1.4858 -0.5333  0.1670
  171SOPE  C21719354   6.477  -1.085   7.947 -0.1544  0.1169 -0.5075
  171SOPE  H17R19355   6.408  -1.144   8.011 -0.2052  0.4698 -0.2323
  171SOPE  H17S19356   6.416  -1.033   7.869 -0.6663 -0.5615 -0.5629
  171SOPE  C21819357   6.541  -0.976   8.026 -0.3183 -0.7326  0.0597
  171SOPE  H18R19358   6.610  -0.916   7.963 -2.5328  2.1977  0.2231
  171SOPE  H18S19359   6.601  -1.009   8.113  0.5972 -0.3888 -0.4368
  171SOPE  H18T19360   6.469  -0.898   8.057  1.6296  0.7151  1.1519
  171SOPE   C3319361   6.772   0.057   6.489 -0.7660  0.6464  0.4599
  171SOPE   H3X19362   6.696   0.046   6.569 -0.7786  1.2709  0.5401
  171SOPE   H3Y19363   6.735   0.138   6.422 -1.6330  0.1518  0.3297
  171SOPE   C3419364   6.906   0.120   6.539  0.9920  0.1112  0.7890
  171SOPE   H4X19365   6.885   0.226   6.565  2.0836 -0.1536  3.0218
  171SOPE   H4Y19366   6.970   0.124   6.449 -3.9724  0.8294 -3.1820
  171SOPE   C3519367   6.980   0.046   6.650 -0.0943  0.2979 -0.3531
  171SOPE   H5X19368   7.071   0.108   6.667  0.3052  1.4767 -5.1541
  171SOPE   H5Y19369   7.037  -0.044   6.618  0.4054 -0.0565  1.4369
  171SOPE   C3619370   6.903   0.032   6.787 -0.3254  0.0452  0.1068
  171SOPE   H6X19371   6.816  -0.037   6.779 -0.6789  0.3054  1.4335
  171SOPE   H6Y19372   6.854   0.131   6.797 -0.2687  0.2169 -1.1129
  171SOPE   C3719373   6.989   0.013   6.919 -0.1997 -0.3840  0.5151
  171SOPE   H7X19374   7.066   0.093   6.922  1.9032 -2.1864 -1.5083
  171SOPE   H7Y19375   7.036  -0.087   6.912 -0.8723 -0.6572 -0.2375
  171SOPE   C3819376   6.906  -0.000   7.046 -1.1108 -1.0188 -0.2962
  171SOPE   H8X19377   6.852  -0.094   7.022  1.4302 -2.5226 -0.4769
  171SOPE   H8Y19378   6.832   0.080   7.065  1.1712  1.2872 -0.5146
  171SOPE   C3919379   6.991  -0.027   7.177  0.2967 -0.1857  0.4705
  171SOPE   H9X19380   7.084   0.034   7.190  2.9515 -3.9748  1.0336
  171SOPE   H9Y19381   7.024  -0.132   7.165  0.2144 -0.0611 -1.0762
  171SOPE  C31019382   6.898  -0.023   7.298 -0.0992  0.0747 -0.8472
  171SOPE  H10X19383   6.940  -0.079   7.384 -1.6917  0.3470  0.1365
  171SOPE  H10Y19384   6.810  -0.088   7.277  1.0089 -1.1597 -1.8277
  171SOPE  C31119385   6.877   0.117   7.356  0.4140 -0.3979  0.5868
  171SOPE  H11X19386   6.843   0.197   7.287  1.9964  0.7383  1.0910
  171SOPE  H11Y19387   6.976   0.145   7.397  0.1431  1.4493  0.0544
  171SOPE  C31219388   6.786   0.119   7.483 -0.3561 -0.0417 -0.3591
  171SOPE  H12X19389   6.832   0.038   7.543  1.7698  0.5079 -1.1703
  171SOPE  H12Y19390   6.684   0.087   7.451  1.2423 -4.0887 -2.0399
  171SOPE  C31319391   6.782   0.254   7.553 -0.1527  0.7623 -1.2234
  171SOPE  H13X19392   6.719   0.316   7.485 -1.0757 -0.4177 -1.4746
  171SOPE  H13Y19393   6.886   0.294   7.562  0.0787 -0.2075  1.1322
  171SOPE  C31419394   6.720   0.247   7.689  0.0732  0.6366 -0.2899
  171SOPE  H14X19395   6.773   0.179   7.759 -1.0937  0.7199  0.7083
  171SOPE  H14Y19396   6.620   0.198   7.687 -0.2223  0.6029  4.5587
  171SOPE  C31519397   6.690   0.386   7.744  0.3154  0.7715 -0.3517
  171SOPE  H15X19398   6.608   0.372   7.817  0.1718 -0.0250 -0.6521
  171SOPE  H15Y19399   6.649   0.442   7.658  1.8386  0.2204 -1.4955
  171SOPE  C31619400   6.809   0.458   7.814  0.3064  0.2687 -0.3010
  171SOPE  H16X19401   6.753   0.538   7.867 -1.1493 -0.6310 -0.4471
  171SOPE  H16Y19402   6.875   0.496   7.733  1.6437 -2.3674 -0.5456
  171SOPE  C31719403   6.892   0.363   7.900  0.0776 -0.4064  0.8966
  171SOPE  H17X19404   6.922   0.268   7.851 -0.9136 -0.1771 -0.2142
  171SOPE  H17Y19405   6.814   0.330   7.972 -1.0881  0.6560  0.1668
  171SOPE  C31819406   7.008   0.419   7.982  0.3920 -0.5793 -0.1672
  171SOPE  H18X19407   7.095   0.447   7.919  1.2426 -1.6185  0.5143
  171SOPE  H18Y19408   7.046   0.342   8.052 -1.1299  0.7407  2.2276
  171SOPE  H18Z19409   6.967   0.501   8.045  1.0697 -1.0963  0.9806
  172SOPE     N19410   6.556   2.830   5.985  0.7356 -0.6052  0.0558
  172SOPE   HN119411   6.464   2.796   5.949  0.2751  0.6194  0.0393
  172SOPE   HN219412   6.565   2.933   5.970 -1.7834 -0.4452 -0.9936
  172SOPE   HN319413   6.634   2.778   5.939  0.8511 -0.4830  0.1133
  172SOPE   C1219414   6.545   2.802   6.130 -0.0921 -0.0651 -0.4693
  172SOPE  H12A19415   6.443   2.830   6.164 -0.6733 -0.9003 -1.4618
  172SOPE  H12B19416   6.622   2.854   6.190  1.0347 -1.5196 -0.5748
  172SOPE   C1119417   6.574   2.653   6.158  0.9688 -0.9004  0.1547
  172SOPE  H11A19418   6.497   2.591   6.107 -1.8777  1.2870  1.4844
  172SOPE  H11B19419   6.545   2.630   6.263 -0.6732 -0.1966 -0.1246
  172SOPE     P19420   6.764   2.558   5.997 -0.2139  0.2778 -0.0213
  172SOPE   O1319421   6.909   2.589   6.012 -0.0533  0.0006  0.1476
  172SOPE   O1419422   6.693   2.610   5.880  0.1985  0.8835  0.6688
  172SOPE   O1219423   6.699   2.622   6.126  0.0717  0.4141 -0.3700
  172SOPE   O1119424   6.743   2.396   6.003  0.2178 -0.4270 -0.2106
  172SOPE    C119425   6.789   2.328   6.119  0.1803  0.6336  0.0692
  172SOPE    HA19426   6.776   2.385   6.214 -1.1146  0.8827 -0.2358
  172SOPE    HB19427   6.897   2.307   6.107 -0.0311 -0.5201  0.0784
  172SOPE    C219428   6.713   2.194   6.143  0.1139 -0.3994  0.3686
  172SOPE    HS19429   6.714   2.134   6.050 -1.1447 -1.0820  0.7614
  172SOPE   O2119430   6.578   2.235   6.187 -0.0426 -0.4093  0.0509
  172SOPE   C2119431   6.478   2.262   6.105  0.4849  0.0546  0.3117
  172SOPE   O2219432   6.472   2.244   5.985 -0.3151  0.4029 -0.5293
  172SOPE   C2219433   6.358   2.308   6.195  0.2228  0.6820  0.4210
  172SOPE   H2R19434   6.267   2.253   6.162  0.2382  0.5759  0.5590
  172SOPE   H2S19435   6.344   2.418   6.181  0.3846  0.6708  0.1445
  172SOPE    C319436   6.783   2.113   6.255 -0.1823  0.2609 -0.4599
  172SOPE    HX19437   6.777   2.177   6.346 -0.7841 -0.1626 -0.1984
  172SOPE    HY19438   6.890   2.099   6.227  0.1138  0.7252  0.3938
  172SOPE   O3119439   6.725   1.980   6.276 -0.4466  0.1545 -0.2302
  172SOPE   C3119440   6.763   1.921   6.392 -0.4492  0.2720  0.4124
  172SOPE   O3219441   6.848   1.967   6.467 -0.0305  0.4405 -0.2742
  172SOPE   C3219442   6.690   1.790   6.405 -0.1779  0.6240  0.5590
  172SOPE   H2X19443   6.728   1.735   6.316 -0.8940  0.6581  0.2208
  172SOPE   H2Y19444   6.580   1.803   6.388 -0.6215 -3.5248 -0.8868
  172SOPE   C2319445   6.378   2.284   6.348 -0.3976 -0.4228  0.1119
  172SOPE   H3R19446   6.416   2.182   6.368  0.4318  0.2392  2.2083
  172SOPE   H3S19447   6.275   2.284   6.389 -1.7812  0.9193 -3.0509
  172SOPE   C2419448   6.469   2.392   6.417  0.1181  0.4683  0.0136
  172SOPE   H4R19449   6.550   2.414   6.344 -1.0465  0.2786 -1.3852
  172SOPE   H4S19450   6.417   2.488   6.439 -0.6060  0.2070 -0.5117
  172SOPE   C2519451   6.523   2.335   6.553 -0.2936  0.1002  0.3038
  172SOPE   H5R19452   6.554   2.229   6.542 -0.7351 -0.2351  2.0453
  172SOPE   H5S19453   6.614   2.395   6.572 -0.0170  0.1250 -1.0282
  172SOPE   C2619454   6.417   2.346   6.669  0.4822 -0.0393  0.0923
  172SOPE   H6R19455   6.388   2.453   6.674  0.7656 -0.0261  3.4762
  172SOPE   H6S19456   6.324   2.295   6.636  0.5039  1.4763 -2.6792
  172SOPE   C2719457   6.464   2.304   6.805  0.5289 -0.4463  0.0134
  172SOPE   H7R19458   6.474   2.193   6.803 -1.4126 -0.6582  0.4834
  172SOPE   H7S19459   6.566   2.347   6.816 -0.0622  0.6453  1.4642
  172SOPE   C2819460   6.377   2.337   6.929 -0.5058  0.4763 -0.7477
  172SOPE   H8R19461   6.279   2.288   6.909  0.2861 -1.1392 -0.8580
  172SOPE   H8S19462   6.430   2.281   7.009 -0.1275  1.1104 -0.5518
  172SOPE   C2919463   6.354   2.478   6.961 -0.0082  0.2751  0.0708
  172SOPE   H9119464   6.349   2.550   6.879  0.9651  1.2637  0.8520
  172SOPE  C21019465   6.367   2.530   7.084 -0.3865 -0.1631  0.7204
  172SOPE  H10119466   6.339   2.635   7.100 -1.9471 -0.2389 -1.1779
  172SOPE  C21119467   6.373   2.446   7.204 -0.6879  0.2157 -0.8195
  172SOPE  H11R19468   6.472   2.398   7.218 -0.6079  0.6077  0.0777
  172SOPE  H11S19469   6.300   2.363   7.211  2.3331 -2.7251 -1.4003
  172SOPE  C21219470   6.361   2.531   7.333  0.0395 -0.1887  0.1578
  172SOPE  H12R19471   6.274   2.600   7.331  0.0073 -0.0043  3.3885
  172SOPE  H12S19472   6.458   2.582   7.349 -1.3177  2.1971  1.3405
  172SOPE  C21319473   6.316   2.446   7.455 -0.0054  0.0267 -0.3893
  172SOPE  H13R19474   6.379   2.357   7.476  1.0813  0.6672 -0.8303
  172SOPE  H13S19475   6.219   2.399   7.430 -0.1288  0.5560 -0.9240
  172SOPE  C21419476   6.312   2.511   7.590  0.1696 -0.2514  0.4598
  172SOPE  H14R19477   6.235   2.591   7.585 -0.8118 -1.2193 -0.9035
  172SOPE  H14S19478   6.407   2.568   7.594 -0.6879  1.2786 -0.2911
  172SOPE  C21519479   6.303   2.418   7.708 -0.0872 -0.2002  0.1528
  172SOPE  H15R19480   6.377   2.337   7.694 -1.0809 -0.7923 -2.2715
  172SOPE  H15S19481   6.210   2.356   7.707  0.0338 -0.3787 -0.6307
  172SOPE  C21619482   6.306   2.483   7.851  0.5321  0.0204  0.3115
  172SOPE  H16R19483   6.219   2.547   7.877  0.0951 -0.0788 -0.8490
  172SOPE  H16S19484   6.400   2.540   7.863  1.4457 -1.2926 -0.3310
  172SOPE  C21719485   6.294   2.378   7.959  0.2675  0.8508  0.6544
  172SOPE  H17R19486   6.382   2.311   7.967 -1.3470 -1.3395  0.9008
  172SOPE  H17S19487   6.207   2.318   7.927  0.8377  1.2593 -1.8546
  172SOPE  C21819488   6.273   2.440   8.096 -0.1825  0.2393 -0.4978
  172SOPE  H18R19489   6.270   2.360   8.174 -0.7732  2.1031  1.5085
  172SOPE  H18S19490   6.184   2.506   8.103 -0.9142 -0.8802  1.9344
  172SOPE  H18T19491   6.358   2.504   8.128 -1.4624  1.4917  0.5765
  172SOPE   C3319492   6.712   1.718   6.535 -0.1695  0.6806 -0.4158
  172SOPE   H3X19493   6.813   1.741   6.576  0.1172 -1.8201  0.4268
  172SOPE   H3Y19494   6.704   1.608   6.519  1.9442  0.1164  1.7158
  172SOPE   C3419495   6.616   1.752   6.644 -0.8415 -0.1421 -0.0623
  172SOPE   H4X19496   6.516   1.710   6.619 -0.7756 -0.1691 -0.2884
  172SOPE   H4Y19497   6.607   1.863   6.648 -1.6376 -0.2441  1.8186
  172SOPE   C3519498   6.651   1.692   6.787  0.1872 -0.0073  0.7750
  172SOPE   H5X19499   6.755   1.718   6.817  0.1092  2.4270 -0.8007
  172SOPE   H5Y19500   6.631   1.583   6.788 -1.7422  0.3099  0.6329
  172SOPE   C3619501   6.564   1.746   6.903  0.1116 -1.0353  0.3622
  172SOPE   H6X19502   6.461   1.708   6.883 -0.6833  1.9320 -1.8527
  172SOPE   H6Y19503   6.565   1.857   6.903  0.4646 -1.0332  1.0792
  172SOPE   C3719504   6.608   1.693   7.046 -0.5432  0.4629 -0.2301
  172SOPE   H7X19505   6.718   1.691   7.059 -0.2554  0.5480 -2.3335
  172SOPE   H7Y19506   6.577   1.586   7.046  1.0679 -0.0892  1.9263
  172SOPE   C3819507   6.520   1.758   7.153 -0.1021 -0.5001  0.4713
  172SOPE   H8X19508   6.542   1.708   7.250 -0.7116 -1.8001 -0.0454
  172SOPE   H8Y19509   6.413   1.739   7.128 -0.5768  1.2419  1.0356
  172SOPE   C3919510   6.537   1.912   7.164  0.0164  0.1369  0.1621
  172SOPE   H9X19511   6.501   1.967   7.075 -0.5478  0.4419  0.5741
  172SOPE   H9Y19512   6.647   1.920   7.176 -0.0119 -0.4057  0.8519
  172SOPE  C31019513   6.459   1.983   7.276 -0.8731  0.1275 -0.8898
  172SOPE  H10X19514   6.350   1.975   7.261 -0.7553 -1.2966 -1.1478
  172SOPE  H10Y19515   6.476   2.092   7.284  1.5016 -0.0488 -2.2979
  172SOPE  C31119516   6.496   1.923   7.415  0.1517  0.2150  0.0156
  172SOPE  H11X19517   6.606   1.932   7.432  0.4534 -3.7092  1.0648
  172SOPE  H11Y19518   6.458   1.820   7.430 -0.6310  0.1970 -1.8456
  172SOPE  C31219519   6.443   2.019   7.525 -0.6168  0.5670  0.2080
  172SOPE  H12X19520   6.342   2.055   7.496 -1.6991 -1.8271  0.7799
  172SOPE  H12Y19521   6.508   2.107   7.548 -1.7605  1.5414 -0.1947
  172SOPE  C31319522   6.433   1.940   7.651  0.0433 -0.2276  0.6377
  172SOPE  H13X19523   6.531   1.922   7.699 -0.3394 -0.9993  1.1569
  172SOPE  H13Y19524   6.374   1.847   7.639  1.2284 -1.1161  1.4767
  172SOPE  C31419525   6.368   2.017   7.767  0.2744  0.7571 -0.2973
  172SOPE  H14X19526   6.272   2.051   7.724 -0.0444 -1.7034 -1.7186
  172SOPE  H14Y19527   6.421   2.111   7.797 -0.8311  0.5480  2.6034
  172SOPE  C31519528   6.328   1.929   7.891  0.7454 -0.7154 -1.1350
  172SOPE  H15X19529   6.413   1.866   7.924  0.1171 -1.2322 -0.4574
  172SOPE  H15Y19530   6.247   1.858   7.863  1.3655 -1.9737  0.1618
  172SOPE  C31619531   6.279   2.016   8.007  0.3537 -0.0584 -1.7792
  172SOPE  H16X19532   6.191   2.079   7.980  0.2903  0.7705  0.1674
  172SOPE  H16Y19533   6.370   2.078   8.021 -0.5543  0.8290  0.8948
  172SOPE  C31719534   6.256   1.932   8.137 -0.1861  0.0578 -0.0688
  172SOPE  H17X19535   6.354   1.888   8.164  0.4006  2.0084  1.2330
  172SOPE  H17Y19536   6.182   1.852   8.118  0.3606 -0.2189 -1.0529
  172SOPE  C31819537   6.215   2.006   8.268 -0.1133 -0.0043  0.3482
  172SOPE  H18X19538   6.160   1.938   8.336 -1.5505  0.7892  0.0098
  172SOPE  H18Y19539   6.138   2.082   8.246  0.6976  0.9382  0.6819
  172SOPE  H18Z19540   6.299   2.057   8.319  0.4380 -2.2861  1.8970
  173SAPI   C1219541   6.738   6.679  10.540 -0.2631 -0.1276  0.4524
  173SAPI    H219542   6.685   6.752  10.475 -1.7908 -2.4433 -1.0605
  173SAPI    O219543   6.840   6.731  10.619 -0.2714  0.3439 -0.0077
  173SAPI   HO219544   6.914   6.740  10.559 -0.9333 -1.7402 -1.2369
  173SAPI   C1319545   6.636   6.615  10.632 -0.5321 -0.4711 -0.2864
  173SAPI    H319546   6.559   6.570  10.566 -1.6943  0.7226  0.2131
  173SAPI    O319547   6.573   6.717  10.707  0.1873 -0.4661  0.2814
  173SAPI   HO319548   6.479   6.705  10.692 -0.0094  0.6533  0.5351
  173SAPI   C1419549   6.685   6.506  10.724  0.7112 -0.5294 -0.5345
  173SAPI    H419550   6.760   6.556  10.790  1.8177 -0.5752 -1.7206
  173SAPI    O419551   6.582   6.445  10.809  0.5297 -0.5159  0.1108
  173SAPI   HO419552   6.524   6.387  10.759 -2.2841  1.4098  0.9182
  173SAPI   C1519553   6.785   6.410  10.659  0.4982 -0.6816  0.0953
  173SAPI    H519554   6.720   6.328  10.622 -1.5784  0.3744  1.1944
  173SAPI    O519555   6.877   6.342  10.748  0.0855  0.0503 -0.1815
  173SAPI   HO519556   6.844   6.258  10.781 -0.8251  1.2046  2.0332
  173SAPI   C1619557   6.865   6.464  10.537  0.6715  0.1807  1.0501
  173SAPI    H619558   6.958   6.505  10.581 -0.3020  0.4210  3.0155
  173SAPI    O619559   6.912   6.352  10.451  0.2048  0.6899 -0.0297
  173SAPI   HO619560   6.957   6.396  10.378  0.2863 -0.0820 -0.4560
  173SAPI   C1119561   6.798   6.574  10.451 -0.6672 -0.0565  0.1274
  173SAPI    H119562   6.710   6.529  10.399  0.0868 -0.6031 -0.7172
  173SAPI     P19563   6.927   6.595  10.205  0.3555 -0.1765  0.3599
  173SAPI   O1319564   6.965   6.455  10.203 -0.0073 -0.2802 -0.0217
  173SAPI   O1419565   7.032   6.696  10.156 -0.0442  0.7774 -0.3507
  173SAPI   O1219566   6.879   6.639  10.356  0.4230 -0.4490  0.3454
  173SAPI   O1119567   6.797   6.610  10.125 -0.1281 -0.6961 -0.4117
  173SAPI    C119568   6.750   6.511  10.030 -0.1970 -0.2246 -0.1985
  173SAPI    HA19569   6.724   6.418  10.084  1.4630 -0.6467 -0.0587
  173SAPI    HB19570   6.655   6.548   9.987  0.3975  0.8110 -0.6755
  173SAPI    C219571   6.847   6.469   9.916  0.2997  0.5513  0.1306
  173SAPI    HS19572   6.920   6.402   9.967 -0.1627  0.2203  0.3670
  173SAPI   O2119573   6.895   6.598   9.870  0.0199 -0.6824 -0.2333
  173SAPI   C2119574   7.016   6.615   9.825 -0.3144  0.4700  0.0132
  173SAPI   O2219575   7.104   6.532   9.810 -0.0442 -0.3291  0.3560
  173SAPI   C2219576   7.045   6.764   9.795  0.6511 -0.6672  0.1009
  173SAPI   H2R19577   6.961   6.802   9.733  1.5688  0.9959 -0.1872
  173SAPI   H2S19578   7.036   6.819   9.892  0.2447 -1.1363  0.3370
  173SAPI    C319579   6.776   6.384   9.796 -0.0774 -0.1597 -0.5941
  173SAPI    HX19580   6.703   6.456   9.753 -0.3564 -0.2552 -0.2874
  173SAPI    HY19581   6.723   6.300   9.846  1.4822  0.4571  2.3185
  173SAPI   O3119582   6.884   6.341   9.712  0.1777 -0.2070 -0.1415
  173SAPI   C3119583   6.956   6.243   9.755  0.5060  0.4911  0.3593
  173SAPI   O3219584   6.926   6.168   9.845 -0.2631 -0.2237 -0.2374
  173SAPI   C3219585   7.084   6.224   9.665 -0.0861  0.1321 -0.0853
  173SAPI   H2X19586   7.147   6.151   9.719 -0.2938 -1.1504 -1.5177
  173SAPI   H2Y19587   7.134   6.321   9.643 -2.0585  0.6922 -2.6374
  173SAPI   C2319588   7.175   6.795   9.725  0.6296  0.4541 -0.2317
  173SAPI   H3R19589   7.260   6.759   9.786  0.5144 -1.5990 -1.1917
  173SAPI   H3S19590   7.172   6.905   9.706 -5.1306  0.7244  0.4050
  173SAPI   C2419591   7.195   6.733   9.584  0.1156  0.3105  0.6451
  173SAPI   H4R19592   7.206   6.624   9.601  0.8761  0.4937  1.3869
  173SAPI   H4S19593   7.292   6.767   9.543  0.5869 -2.8250 -1.1433
  173SAPI   C2519594   7.076   6.758   9.495 -0.2863 -0.0325  0.9211
  173SAPI   H5R19595   7.041   6.862   9.488  1.6223  0.7729  2.4908
  173SAPI   C2619596   7.005   6.665   9.426 -0.4700 -0.1495 -0.3892
  173SAPI   H6R19597   6.909   6.698   9.384 -0.0845 -0.0174 -1.1902
  173SAPI   C2719598   7.031   6.513   9.430  0.1527 -0.5003  0.2282
  173SAPI   H7R19599   6.942   6.468   9.478 -1.7911  1.3951 -1.3781
  173SAPI   H7S19600   7.122   6.490   9.491  0.1758  0.4912  0.5970
  173SAPI   C2819601   7.061   6.465   9.291 -0.4803  0.4137 -0.4873
  173SAPI   H8R19602   7.167   6.454   9.266  0.2984  0.9717  2.3268
  173SAPI   C2919603   6.974   6.419   9.199  0.7426 -0.5405 -0.1684
  173SAPI   H9R19604   7.005   6.393   9.096  0.0545  2.2252 -1.1495
  173SAPI  C21019605   6.823   6.425   9.208  0.5206 -0.1092  0.1201
  173SAPI  H10R19606   6.794   6.418   9.315  0.9744  0.4995  0.2883
  173SAPI  H10S19607   6.785   6.329   9.168  0.6208 -0.3210  0.5331
  173SAPI  C21119608   6.755   6.547   9.153  0.1747  0.3611  0.1836
  173SAPI  H11R19609   6.784   6.635   9.213  1.5872 -0.0072  0.0809
  173SAPI  C21219610   6.672   6.556   9.047 -0.1490 -0.1932 -0.0965
  173SAPI  H12R19611   6.639   6.660   9.034 -2.0462 -0.8133 -0.4831
  173SAPI  C21319612   6.629   6.454   8.948  0.7945  0.1666 -0.0979
  173SAPI  H13R19613   6.627   6.348   8.983 -1.0177 -0.3113 -1.4713
  173SAPI  H13S19614   6.708   6.451   8.870  2.3533  0.4347  1.4261
  173SAPI  C21419615   6.491   6.496   8.903  0.3065 -0.8719  0.3581
  173SAPI  H14R19616   6.411   6.504   8.979  0.4142  2.2733  0.2681
  173SAPI  C21519617   6.453   6.533   8.779  0.3421 -0.5876 -0.7800
  173SAPI  H15R19618   6.347   6.556   8.760  0.3479  1.5856  1.3329
  173SAPI  C21619619   6.542   6.543   8.661  0.1117 -0.2244 -0.1080
  173SAPI  H16R19620   6.646   6.581   8.672 -0.4306  2.0059 -1.8546
  173SAPI  H16S19621   6.513   6.629   8.596  1.2757 -1.3855 -2.2471
  173SAPI  C21719622   6.547   6.411   8.577  0.2584 -0.4934 -0.1067
  173SAPI  H17R19623   6.438   6.407   8.553  0.5154 -0.0693 -1.3858
  173SAPI  H17S19624   6.575   6.325   8.642 -2.2798 -0.1722  1.5705
  173SAPI  C21819625   6.614   6.412   8.441  0.3326  0.5533  0.1321
  173SAPI  H18R19626   6.722   6.438   8.443  0.9345 -1.6970 -0.6560
  173SAPI  H18S19627   6.564   6.490   8.379 -0.0006 -0.8948 -1.4908
  173SAPI  C21919628   6.585   6.285   8.353 -0.4298  0.4658 -0.4206
  173SAPI  H19R19629   6.477   6.293   8.330 -0.5233  0.3417 -0.0268
  173SAPI  H19S19630   6.601   6.184   8.398  0.0762  0.5764 -0.3488
  173SAPI  C22019631   6.655   6.281   8.209  0.1795 -0.5000  0.0477
  173SAPI  H20R19632   6.626   6.185   8.162 -1.3354 -0.0036 -0.1059
  173SAPI  H20S19633   6.763   6.280   8.234 -0.0234 -1.3256  0.9451
  173SAPI  H20T19634   6.619   6.366   8.147 -0.9118 -0.5980  0.5196
  173SAPI   C3319635   7.053   6.156   9.527 -0.0426  0.4280  0.6155
  173SAPI   H3X19636   6.995   6.219   9.456  0.9717  1.3716  0.5856
  173SAPI   H3Y19637   6.992   6.066   9.550 -2.0224  2.1568  2.5662
  173SAPI   C3419638   7.184   6.124   9.453 -0.1207  0.5329  0.1311
  173SAPI   H4X19639   7.251   6.058   9.513  0.9438  2.0747  0.6897
  173SAPI   H4Y19640   7.233   6.222   9.433  0.9986  0.3180  1.6105
  173SAPI   C3519641   7.152   6.061   9.315 -0.2263  0.1425 -0.2639
  173SAPI   H5X19642   7.085   6.133   9.264 -1.5278 -0.1188  1.0113
  173SAPI   H5Y19643   7.092   5.969   9.334 -0.3979  0.7880  2.7631
  173SAPI   C3619644   7.275   6.024   9.234 -0.1938 -0.0381 -0.3429
  173SAPI   H6X19645   7.249   5.933   9.176  2.0495 -0.1749 -1.2338
  173SAPI   H6Y19646   7.358   5.998   9.303 -1.1983 -2.0166  0.1996
  173SAPI   C3719647   7.327   6.129   9.138 -0.3109 -0.1802  0.0893
  173SAPI   H7X19648   7.355   6.214   9.203 -0.5085 -0.5528  0.6647
  173SAPI   H7Y19649   7.240   6.164   9.078  0.1740  0.3341 -0.3289
  173SAPI   C3819650   7.443   6.073   9.050 -0.1340 -1.0587  0.1716
  173SAPI   H8X19651   7.519   6.033   9.121 -0.4342 -1.3409  0.3340
  173SAPI   H8Y19652   7.488   6.151   8.984  0.8202 -0.9683  0.9125
  173SAPI   C3919653   7.416   5.953   8.960 -0.3793  0.1371  0.5602
  173SAPI   H9X19654   7.354   5.873   9.006 -1.5892  0.1571 -0.9640
  173SAPI   H9Y19655   7.510   5.907   8.922  0.6183  2.5755 -0.1054
  173SAPI  C31019656   7.351   6.005   8.834  0.5716  0.7939  0.4746
  173SAPI  H10X19657   7.413   6.074   8.772  0.7473  0.2501  0.0421
  173SAPI  H10Y19658   7.258   6.057   8.864  0.3573  0.4385  0.4356
  173SAPI  C31119659   7.297   5.889   8.746 -0.0689 -0.6302  0.2068
  173SAPI  H11X19660   7.223   5.825   8.801  0.5891 -1.3599  0.2625
  173SAPI  H11Y19661   7.384   5.832   8.708 -1.7565 -3.3979  0.2210
  173SAPI  C31219662   7.233   5.944   8.615 -0.8150 -0.4156 -0.4259
  173SAPI  H12X19663   7.311   5.993   8.553 -0.2853 -0.6881  0.0064
  173SAPI  H12Y19664   7.162   6.027   8.637  0.9678  0.9148  0.5727
  173SAPI  C31319665   7.170   5.837   8.524  0.5612  0.9501 -0.0026
  173SAPI  H13X19666   7.210   5.736   8.551  1.7892  1.5094  0.3656
  173SAPI  H13Y19667   7.203   5.851   8.419  1.7377  1.7921  0.4456
  173SAPI  C31419668   7.019   5.843   8.529  0.2499 -0.4315  0.2455
  173SAPI  H14X19669   6.988   5.862   8.634 -2.0364 -0.9143 -0.2889
  173SAPI  H14Y19670   6.971   5.751   8.490 -0.7849 -0.3992  1.3769
  173SAPI  C31519671   6.970   5.957   8.440 -0.3698  0.4454  0.6983
  173SAPI  H15X19672   7.035   6.046   8.451 -0.0308  0.2345  0.4321
  173SAPI  H15Y19673   6.869   5.995   8.465 -0.9846 -0.6770  0.0456
  173SAPI  C31619674   6.976   5.915   8.295 -0.1962  0.0989  0.0031
  173SAPI  H16X19675   6.896   5.848   8.258 -0.8747  0.7486  0.2483
  173SAPI  H16Y19676   7.077   5.878   8.270  0.7387  2.3891  0.1763
  173SAPI  C31719677   6.952   6.049   8.222 -0.5524 -0.3791  0.4490
  173SAPI  H17X19678   7.010   6.137   8.260 -1.4419  0.3424  0.1705
  173SAPI  H17Y19679   6.848   6.078   8.247 -1.1881 -2.8307  0.8843
  173SAPI  C31819680   6.974   6.045   8.067 -0.5021 -0.3010 -0.0371
  173SAPI  H18X19681   6.930   5.956   8.018 -1.3009 -0.2219  0.5118
  173SAPI  H18Y19682   7.083   6.041   8.048 -0.6199 -2.1164 -0.4441
  173SAPI  H18Z19683   6.924   6.134   8.022 -0.6605 -0.0073  0.6933
  174SAPI   C1219684   3.341   0.634  10.357 -0.1276  0.0408 -0.2303
  174SAPI    H219685   3.395   0.731  10.364  2.5378 -1.3640 -0.0944
  174SAPI    O219686   3.291   0.604  10.482  0.0984 -0.2420 -0.0313
  174SAPI   HO219687   3.292   0.683  10.535  0.7601 -0.3485  0.1262
  174SAPI   C1319688   3.232   0.643  10.252 -0.3094 -0.0970 -0.4945
  174SAPI    H319689   3.278   0.655  10.152  0.1419 -0.2650 -0.3108
  174SAPI    O319690   3.137   0.751  10.279 -0.5995  0.1556 -0.4216
  174SAPI   HO319691   3.167   0.842  10.283 -1.2184  0.3720 -0.6618
  174SAPI   C1419692   3.161   0.506  10.241  0.3368 -0.2212 -0.1915
  174SAPI    H419693   3.110   0.500  10.339  0.3708 -0.6123 -0.1936
  174SAPI    O419694   3.059   0.504  10.144  0.0601  0.3298  0.5069
  174SAPI   HO419695   3.029   0.595  10.132 -0.0189  0.1615 -0.7096
  174SAPI   C1519696   3.252   0.390  10.233  0.2144 -0.8334 -0.2122
  174SAPI    H519697   3.291   0.380  10.129  0.8670 -0.4137 -0.0146
  174SAPI    O519698   3.191   0.266  10.254  0.0466  0.2697  0.6380
  174SAPI   HO519699   3.236   0.202  10.199  1.5268 -0.1749  2.2981
  174SAPI   C1619700   3.378   0.395  10.314 -0.1771  0.3384 -0.0153
  174SAPI    H619701   3.350   0.362  10.417 -0.6970 -0.3303 -0.3632
  174SAPI    O619702   3.476   0.299  10.275  0.4970  0.1728 -0.1658
  174SAPI   HO619703   3.555   0.310  10.328 -0.3748  0.6612  1.0952
  174SAPI   C1119704   3.438   0.530  10.320 -0.2171  0.7441 -0.3098
  174SAPI    H119705   3.475   0.558  10.219 -0.7253  0.0277 -0.7070
  174SAPI     P19706   3.667   0.635  10.434  0.2384 -0.3411  0.7711
  174SAPI   O1319707   3.729   0.603  10.563  0.4779 -0.5068 -0.1717
  174SAPI   O1419708   3.614   0.779  10.440  0.5187  0.0697  0.3460
  174SAPI   O1219709   3.552   0.522  10.409 -0.2844  0.2175 -0.1687
  174SAPI   O1119710   3.769   0.619  10.315 -0.6968 -0.3587 -0.2263
  174SAPI    C119711   3.802   0.485  10.273  0.1964 -0.6291  0.2314
  174SAPI    HA19712   3.876   0.446  10.346 -0.9847  0.1942  1.9306
  174SAPI    HB19713   3.717   0.414  10.269 -0.3491 -0.1094  1.7877
  174SAPI    C219714   3.877   0.478  10.129 -0.0402 -0.0910 -0.5040
  174SAPI    HS19715   3.899   0.375  10.094 -1.1800  0.0505 -1.7182
  174SAPI   O2119716   3.997   0.552  10.130 -0.2628  0.5203 -0.0565
  174SAPI   C2119717   4.107   0.490  10.175 -0.8078 -0.0496 -0.3245
  174SAPI   O2219718   4.101   0.385  10.240 -0.0192 -0.6645 -0.3486
  174SAPI   C2219719   4.236   0.567  10.146  0.5249  0.6419  0.7182
  174SAPI   H2R19720   4.215   0.652  10.079  1.7415  1.3460  1.1951
  174SAPI   H2S19721   4.276   0.596  10.246  2.7594 -0.1241  0.1274
  174SAPI    C319722   3.783   0.536  10.014 -0.1643  0.6402  0.2446
  174SAPI    HX19723   3.837   0.521   9.918  0.3407  0.2458  0.5825
  174SAPI    HY19724   3.764   0.643  10.037 -2.3929  0.4413 -0.3902
  174SAPI   O3119725   3.658   0.464  10.003 -0.1290  0.1281 -0.5732
  174SAPI   C3119726   3.658   0.334   9.960 -0.6075  0.3159 -0.5542
  174SAPI   O3219727   3.752   0.261   9.961 -0.2131  0.0138 -0.1487
  174SAPI   C3219728   3.519   0.291   9.927  0.2054  0.2789 -0.5600
  174SAPI   H2X19729   3.448   0.349   9.990 -0.5222 -1.4428  0.2634
  174SAPI   H2Y19730   3.511   0.182   9.950  2.4638 -0.0321 -0.9843
  174SAPI   C2319731   4.346   0.475  10.074 -0.1557  0.0207 -0.6683
  174SAPI   H3R19732   4.350   0.383  10.136  1.5756  1.1563  0.9888
  174SAPI   H3S19733   4.440   0.533  10.079 -1.6287  2.4623  1.0760
  174SAPI   C2419734   4.321   0.445   9.923 -0.0042  1.5469 -0.3834
  174SAPI   H4R19735   4.220   0.398   9.915 -0.0478  1.4926  0.3854
  174SAPI   H4S19736   4.394   0.366   9.897  0.1558  1.3359  0.6562
  174SAPI   C2519737   4.336   0.555   9.828 -0.3420  0.4422  0.4604
  174SAPI   H5R19738   4.440   0.584   9.805  0.5884 -0.2339  3.4474
  174SAPI   C2619739   4.236   0.618   9.769  0.4298 -0.0812  0.3029
  174SAPI   H6R19740   4.264   0.705   9.708  2.5998  0.3328  1.7860
  174SAPI   C2719741   4.087   0.601   9.782 -0.3116  0.1221  0.3140
  174SAPI   H7R19742   4.057   0.532   9.864  3.0987 -0.7228  0.9927
  174SAPI   H7S19743   4.045   0.562   9.687 -1.4642 -1.0102  1.2500
  174SAPI   C2819744   4.030   0.733   9.806  0.6420  0.1135 -0.7149
  174SAPI   H8R19745   4.021   0.771   9.908  0.4699  2.0055 -1.3902
  174SAPI   C2919746   3.965   0.801   9.712 -0.2466 -0.2693  0.4510
  174SAPI   H9R19747   3.907   0.887   9.750  0.0527 -1.1277  3.0059
  174SAPI  C21019748   3.958   0.778   9.568 -0.3810 -1.0330  0.5448
  174SAPI  H10R19749   3.859   0.817   9.537  0.0533  0.8847  1.4510
  174SAPI  H10S19750   3.954   0.669   9.547  0.0543 -0.9001 -0.2865
  174SAPI  C21119751   4.072   0.854   9.498  0.6116  0.0671  0.1570
  174SAPI  H11R19752   4.165   0.860   9.557  1.7583 -2.3439 -1.2706
  174SAPI  C21219753   4.068   0.884   9.367 -0.0119  0.5282 -0.4843
  174SAPI  H12R19754   4.141   0.958   9.332 -1.3219  2.3942  0.4917
  174SAPI  C21319755   3.954   0.848   9.272  0.0231  0.1210  0.1350
  174SAPI  H13R19756   3.875   0.916   9.310  0.7098 -0.4329  2.8391
  174SAPI  H13S19757   3.928   0.740   9.282 -2.1317  0.5226 -0.7623
  174SAPI  C21419758   3.986   0.872   9.131 -0.2725  0.6597 -0.1905
  174SAPI  H14R19759   4.051   0.960   9.129  1.6099 -0.5655  1.9057
  174SAPI  C21519760   3.973   0.787   9.018 -0.0141 -0.0016 -0.1430
  174SAPI  H15R19761   4.013   0.823   8.922 -0.4236  0.8712  0.0083
  174SAPI  C21619762   3.900   0.655   9.022 -0.2644 -0.2676  0.1488
  174SAPI  H16R19763   3.821   0.665   8.945 -0.5800 -2.2928  0.1612
  174SAPI  H16S19764   3.854   0.632   9.120 -0.9378  0.5542  0.0343
  174SAPI  C21719765   3.991   0.542   8.981 -0.3511  0.1486  0.4559
  174SAPI  H17R19766   4.093   0.559   9.020 -0.2815  2.6717 -0.5883
  174SAPI  H17S19767   4.003   0.541   8.870  1.1286  0.9338  0.5854
  174SAPI  C21819768   3.939   0.404   9.027  0.2378  0.7110  0.1278
  174SAPI  H18R19769   3.925   0.416   9.136  0.8442  2.4278  0.0437
  174SAPI  H18S19770   4.026   0.336   9.013  1.4055  2.2383 -0.2851
  174SAPI  C21919771   3.807   0.356   8.956 -0.5673  0.6062 -0.5277
  174SAPI  H19R19772   3.722   0.420   8.989 -2.2850 -1.4536 -0.7056
  174SAPI  H19S19773   3.780   0.253   8.989 -0.7666 -0.2847 -3.1879
  174SAPI  C22019774   3.821   0.344   8.806  0.0490 -0.2975 -0.3918
  174SAPI  H20R19775   3.730   0.294   8.767 -0.3450  1.4040 -1.8086
  174SAPI  H20S19776   3.915   0.291   8.781  1.0439  1.0785  0.2848
  174SAPI  H20T19777   3.821   0.451   8.776 -0.7709  0.0439  0.7407
  174SAPI   C3319778   3.470   0.307   9.780  0.3026  0.2030 -0.6071
  174SAPI   H3X19779   3.382   0.240   9.768  1.1772 -1.0361 -0.2568
  174SAPI   H3Y19780   3.549   0.267   9.713 -0.6691  0.3636 -1.8964
  174SAPI   C3419781   3.444   0.458   9.753  0.1383  1.2929  0.5328
  174SAPI   H4X19782   3.533   0.522   9.773 -0.9849  2.7850  0.8923
  174SAPI   H4Y19783   3.363   0.494   9.820 -0.5513  0.6492  0.0602
  174SAPI   C3519784   3.397   0.479   9.607  0.9802 -0.8169  0.0288
  174SAPI   H5X19785   3.350   0.579   9.592  0.5732 -1.0665 -0.4145
  174SAPI   H5Y19786   3.311   0.411   9.591 -0.3392  0.1878  2.3598
  174SAPI   C3619787   3.503   0.474   9.497 -0.1709  0.9075 -0.0284
  174SAPI   H6X19788   3.534   0.368   9.485 -2.6639  0.0848  0.2857
  174SAPI   H6Y19789   3.590   0.535   9.529  0.5547 -0.6561  1.1297
  174SAPI   C3719790   3.463   0.528   9.359  0.2318 -0.5580  0.2299
  174SAPI   H7X19791   3.432   0.634   9.367  1.9299  0.1618 -1.9143
  174SAPI   H7Y19792   3.384   0.473   9.303  1.3670 -2.7409  0.6256
  174SAPI   C3819793   3.577   0.540   9.253 -0.4242 -0.1394  0.0864
  174SAPI   H8X19794   3.587   0.449   9.191 -0.1435 -0.5484  0.7139
  174SAPI   H8Y19795   3.665   0.567   9.316 -0.1060 -2.1245  0.5528
  174SAPI   C3919796   3.543   0.641   9.144  0.4473  0.0914  0.6131
  174SAPI   H9X19797   3.624   0.649   9.067  0.0597 -0.4663  0.1413
  174SAPI   H9Y19798   3.544   0.745   9.183  2.8827  1.5725 -2.7937
  174SAPI  C31019799   3.421   0.597   9.058 -0.0616 -0.4024  0.3916
  174SAPI  H10X19800   3.349   0.668   9.103 -1.2246  0.3888 -2.5294
  174SAPI  H10Y19801   3.381   0.498   9.091 -0.9187  0.6999  2.9093
  174SAPI  C31119802   3.440   0.606   8.907 -0.1622 -0.9533 -0.5803
  174SAPI  H11X19803   3.536   0.556   8.880  1.2419  0.2653  1.8023
  174SAPI  H11Y19804   3.441   0.714   8.879 -2.2476  0.8467  5.0541
  174SAPI  C31219805   3.330   0.534   8.833  0.1457 -0.1679 -0.1803
  174SAPI  H12X19806   3.233   0.566   8.878  0.0665 -1.2904  0.5008
  174SAPI  H12Y19807   3.347   0.426   8.852  1.1492 -0.1316 -0.7836
  174SAPI  C31319808   3.323   0.564   8.682  0.1335  0.1596  0.3848
  174SAPI  H13X19809   3.422   0.524   8.652 -0.5869 -2.3017  1.0296
  174SAPI  H13Y19810   3.326   0.671   8.654  3.6760 -0.3234 -1.6547
  174SAPI  C31419811   3.213   0.496   8.598  1.2040 -0.2298  0.3421
  174SAPI  H14X19812   3.220   0.513   8.489 -1.0178 -0.0257  0.1698
  174SAPI  H14Y19813   3.112   0.532   8.630  1.4344 -0.2168  1.0893
  174SAPI  C31519814   3.205   0.345   8.613 -0.3379  0.5486  0.4669
  174SAPI  H15X19815   3.185   0.327   8.721  1.0368  0.8651  0.8046
  174SAPI  H15Y19816   3.310   0.313   8.592  0.1646  1.8639  0.8435
  174SAPI  C31619817   3.096   0.276   8.526  0.4408  0.2266 -0.1170
  174SAPI  H16X19818   3.134   0.291   8.423 -0.1003  0.0906 -0.3432
  174SAPI  H16Y19819   3.000   0.331   8.526  0.1212 -0.3186 -0.4611
  174SAPI  C31719820   3.085   0.122   8.551 -0.2707 -0.1551 -0.4287
  174SAPI  H17X19821   3.057   0.107   8.657 -0.4931  2.2574 -0.1036
  174SAPI  H17Y19822   3.186   0.078   8.536 -0.3082 -0.2957 -0.2698
  174SAPI  C31819823   2.986   0.050   8.459  0.3968  0.4914 -0.8667
  174SAPI  H18X19824   3.019  -0.055   8.441  2.7077  1.0684 -0.3217
  174SAPI  H18Y19825   2.990   0.108   8.364 -0.0995  0.1466 -1.1050
  174SAPI  H18Z19826   2.883   0.047   8.502  1.7133  1.4525  2.7100
  175SAPI   C1219827   1.871   4.252   5.763 -0.0913  0.3017 -0.7539
  175SAPI    H219828   1.787   4.194   5.720 -1.3841 -0.6777  2.7507
  175SAPI    O219829   1.896   4.207   5.896  0.7609 -0.1796  0.0402
  175SAPI   HO219830   1.813   4.190   5.941  1.0921 -1.1176  0.3269
  175SAPI   C1319831   1.986   4.230   5.683 -0.3051  0.2442 -0.4310
  175SAPI    H319832   1.961   4.279   5.586 -0.2059  0.3778 -0.3888
  175SAPI    O319833   2.007   4.093   5.655 -0.2848 -0.3115  0.8342
  175SAPI   HO319834   1.999   4.041   5.735 -0.2256  2.4489  2.7820
  175SAPI   C1419835   2.107   4.300   5.738 -0.3566 -1.3761 -0.3689
  175SAPI    H419836   2.129   4.234   5.824 -0.5449 -2.6074 -1.2393
  175SAPI    O419837   2.220   4.305   5.649  0.2776 -0.0182  0.0021
  175SAPI   HO419838   2.279   4.234   5.674 -1.3422 -1.7315 -0.8578
  175SAPI   C1519839   2.081   4.442   5.801 -0.6991  0.2161 -0.4646
  175SAPI    H519840   2.104   4.521   5.728  1.8047  1.3119  1.3648
  175SAPI    O519841   2.165   4.466   5.912 -0.3025  0.1680 -0.4102
  175SAPI   HO519842   2.198   4.556   5.903  0.5950  0.1671  2.1193
  175SAPI   C1619843   1.939   4.481   5.836  0.9120  0.9369 -0.0341
  175SAPI    H619844   1.921   4.466   5.945 -0.3816  1.6246 -0.1356
  175SAPI    O619845   1.912   4.621   5.816 -0.1380  0.4618  0.2084
  175SAPI   HO619846   1.855   4.656   5.886 -1.1666  1.4485 -1.0704
  175SAPI   C1119847   1.836   4.395   5.768  0.6961  0.1006 -0.2376
  175SAPI    H119848   1.829   4.430   5.662 -1.1543 -0.7310 -0.4336
  175SAPI     P19849   1.597   4.520   5.810 -0.0021  0.4509 -0.0040
  175SAPI   O1319850   1.461   4.468   5.854 -0.3100  0.6785 -0.4789
  175SAPI   O1419851   1.613   4.577   5.675 -0.1995 -0.0778  0.1644
  175SAPI   O1219852   1.713   4.403   5.838  0.6182  0.2312 -0.3219
  175SAPI   O1119853   1.635   4.634   5.919 -0.4523  0.4150 -0.2074
  175SAPI    C119854   1.598   4.589   6.051 -0.0147  0.3023 -0.0972
  175SAPI    HA19855   1.487   4.594   6.062 -0.1738  0.6920 -1.6304
  175SAPI    HB19856   1.636   4.488   6.078  0.0945  0.9725  2.4859
  175SAPI    C219857   1.648   4.688   6.153 -0.3165 -0.0194 -0.0626
  175SAPI    HS19858   1.631   4.789   6.111 -1.4997  0.4655  1.5019
  175SAPI   O2119859   1.787   4.669   6.173 -0.6045  0.1483 -0.3774
  175SAPI   C2119860   1.870   4.754   6.102 -1.2660 -0.5002 -0.5554
  175SAPI   O2219861   1.834   4.831   6.014  0.2879  0.6138  0.1069
  175SAPI   C2219862   2.015   4.733   6.140 -0.3458 -0.1602 -0.0787
  175SAPI   H2R19863   2.032   4.656   6.219  4.0201 -0.0672 -0.6699
  175SAPI   H2S19864   2.061   4.692   6.048 -1.4980 -0.3053 -0.6117
  175SAPI    C319865   1.575   4.684   6.284 -0.3272  1.3997 -0.2412
  175SAPI    HX19866   1.465   4.679   6.268 -0.0274  0.7803 -2.3896
  175SAPI    HY19867   1.591   4.780   6.337  0.4691  1.2713 -0.2438
  175SAPI   O3119868   1.610   4.573   6.379  0.5625 -0.0569  0.1539
  175SAPI   C3119869   1.700   4.602   6.472 -0.2560 -0.1244  0.9926
  175SAPI   O3219870   1.760   4.707   6.479  1.0286  0.2895 -0.6578
  175SAPI   C3219871   1.714   4.483   6.569 -0.5583 -0.1947  0.1483
  175SAPI   H2X19872   1.763   4.401   6.512 -0.9452  2.2403 -4.1421
  175SAPI   H2Y19873   1.609   4.452   6.586 -0.3646  0.1344  2.2299
  175SAPI   C2319874   2.076   4.864   6.200 -0.1873 -0.1165 -0.0501
  175SAPI   H3R19875   2.033   4.898   6.297 -0.0767  0.8805 -0.3353
  175SAPI   H3S19876   2.064   4.948   6.128  0.4447  0.8090  0.8862
  175SAPI   C2419877   2.228   4.851   6.212 -0.4443  0.1249 -0.2265
  175SAPI   H4R19878   2.264   4.951   6.244 -1.7315  0.0169  1.8064
  175SAPI   H4S19879   2.271   4.830   6.112 -0.3229 -1.1505  0.0678
  175SAPI   C2519880   2.275   4.754   6.325  0.1263 -0.1322  0.7748
  175SAPI   H5R19881   2.230   4.770   6.423 -0.9150  2.0117  0.0065
  175SAPI   C2619882   2.358   4.653   6.320 -0.4494  0.0613 -0.8667
  175SAPI   H6R19883   2.370   4.597   6.414 -0.7919 -1.5714 -1.7477
  175SAPI   C2719884   2.431   4.599   6.196  0.0638  0.3054 -0.5781
  175SAPI   H7R19885   2.364   4.610   6.108 -0.9337 -2.8736 -0.3330
  175SAPI   H7S19886   2.454   4.490   6.194  0.9035  0.4805 -2.2946
  175SAPI   C2819887   2.568   4.662   6.178  1.0029 -0.7569  0.3161
  175SAPI   H8R19888   2.579   4.738   6.100  0.8748 -0.4122  0.6296
  175SAPI   C2919889   2.670   4.630   6.258  0.1337  0.3146  0.2305
  175SAPI   H9R19890   2.759   4.689   6.231 -1.1493  1.3832 -1.9371
  175SAPI  C21019891   2.677   4.542   6.380 -0.4119  0.3196 -0.4402
  175SAPI  H10R19892   2.592   4.471   6.378  0.2277 -0.4509 -1.3358
  175SAPI  H10S19893   2.663   4.609   6.467 -0.2038 -2.5302  1.9375
  175SAPI  C21119894   2.805   4.461   6.410 -0.1541  0.5156  0.0230
  175SAPI  H11R19895   2.898   4.485   6.355  1.2618 -1.5474  1.3935
  175SAPI  C21219896   2.805   4.354   6.497  1.0448  0.0797 -0.3716
  175SAPI  H12R19897   2.897   4.296   6.514  0.1811 -1.7284 -1.5701
  175SAPI  C21319898   2.679   4.296   6.559 -0.6772 -0.2573  0.7311
  175SAPI  H13R19899   2.605   4.254   6.488 -0.1663  0.9990 -0.6141
  175SAPI  H13S19900   2.612   4.374   6.602 -0.9181 -0.4829  0.7672
  175SAPI  C21419901   2.707   4.184   6.657 -0.3121 -0.1998  0.0970
  175SAPI  H14R19902   2.769   4.099   6.625  0.6295  0.2936  0.5633
  175SAPI  C21519903   2.666   4.190   6.788  0.0567  0.3452  0.2061
  175SAPI  H15R19904   2.692   4.102   6.849  1.8357 -0.3122 -1.4141
  175SAPI  C21619905   2.597   4.307   6.859 -0.2095  0.5964 -0.1552
  175SAPI  H16R19906   2.560   4.271   6.958  0.2752 -0.9885 -0.5132
  175SAPI  H16S19907   2.501   4.341   6.814 -0.8797 -0.1927  0.6277
  175SAPI  C21719908   2.685   4.432   6.866  0.6792 -0.3734  0.3897
  175SAPI  H17R19909   2.716   4.462   6.764 -1.5487  2.7800  0.5238
  175SAPI  H17S19910   2.778   4.407   6.921  1.9022 -0.7322 -1.7344
  175SAPI  C21819911   2.614   4.562   6.919  0.6169 -0.2305 -0.0383
  175SAPI  H18R19912   2.536   4.590   6.845 -0.1960  0.4968  1.0582
  175SAPI  H18S19913   2.685   4.647   6.930  1.1588 -0.7620  0.6805
  175SAPI  C21919914   2.554   4.548   7.065  0.2400  0.4532  0.5289
  175SAPI  H19R19915   2.465   4.481   7.065 -1.6654  2.8139 -1.3244
  175SAPI  H19S19916   2.503   4.644   7.085  1.3278  1.1493  0.0256
  175SAPI  C22019917   2.653   4.510   7.173 -0.7362  0.3284  0.2144
  175SAPI  H20R19918   2.745   4.572   7.179 -1.0249  0.8549 -0.5346
  175SAPI  H20S19919   2.687   4.410   7.138 -1.4433  0.3661 -0.6233
  175SAPI  H20T19920   2.600   4.503   7.270 -0.9112 -1.7557  0.0137
  175SAPI   C3319921   1.795   4.507   6.701 -0.5131 -0.4521  0.6400
  175SAPI   H3X19922   1.898   4.541   6.678 -0.9978  0.4239 -0.3239
  175SAPI   H3Y19923   1.818   4.410   6.751  2.5138  0.1087  0.5468
  175SAPI   C3419924   1.723   4.606   6.792 -0.5089 -0.2774  0.2990
  175SAPI   H4X19925   1.624   4.559   6.811  0.1379 -1.1945  1.5643
  175SAPI   H4Y19926   1.696   4.703   6.746  0.9753 -0.1478 -0.3358
  175SAPI   C3519927   1.797   4.638   6.923  0.0764  0.3751 -0.9293
  175SAPI   H5X19928   1.901   4.672   6.905  1.2132 -2.4729 -0.2580
  175SAPI   H5Y19929   1.813   4.542   6.977  1.3281  0.4600 -1.1194
  175SAPI   C3619930   1.730   4.737   7.018 -0.6558  0.1171 -0.2295
  175SAPI   H6X19931   1.630   4.696   7.045 -0.1793 -1.3056 -0.5148
  175SAPI   H6Y19932   1.717   4.838   6.974  0.2580  0.4737  0.2865
  175SAPI   C3719933   1.815   4.765   7.149  0.1526  0.7911  0.0844
  175SAPI   H7X19934   1.882   4.852   7.129  1.5975  0.4264  2.9338
  175SAPI   H7Y19935   1.885   4.679   7.160 -0.9757 -0.0094  1.1834
  175SAPI   C3819936   1.732   4.779   7.270 -0.3232  0.0544  0.0027
  175SAPI   H8X19937   1.795   4.783   7.362 -0.4581  0.1921  0.0897
  175SAPI   H8Y19938   1.673   4.686   7.280  0.1669 -0.4375 -1.3627
  175SAPI   C3919939   1.629   4.893   7.267 -0.0398 -0.2781  1.0001
  175SAPI   H9X19940   1.562   4.885   7.178 -0.6468  1.3454  1.2708
  175SAPI   H9Y19941   1.682   4.990   7.272  0.3570 -0.4517  0.3010
  175SAPI  C31019942   1.536   4.891   7.400 -0.9502 -0.3805  0.0273
  175SAPI  H10X19943   1.486   4.990   7.396  0.3324  0.2592 -2.7253
  175SAPI  H10Y19944   1.601   4.897   7.490 -0.6859  1.7233 -0.2634
  175SAPI  C31119945   1.429   4.784   7.413  0.3505 -0.1346 -0.3431
  175SAPI  H11X19946   1.378   4.787   7.512  0.2162 -3.2429 -0.2194
  175SAPI  H11Y19947   1.468   4.679   7.414  0.0120 -0.3275  2.3944
  175SAPI  C31219948   1.318   4.807   7.303 -0.2241  0.2165 -0.1096
  175SAPI  H12X19949   1.352   4.781   7.201 -2.8469  0.3701 -1.0911
  175SAPI  H12Y19950   1.285   4.913   7.303 -0.4552  0.1862 -2.1706
  175SAPI  C31319951   1.193   4.724   7.362 -0.0958 -0.5601  0.7162
  175SAPI  H13X19952   1.165   4.782   7.453 -1.9826  0.1250 -0.2639
  175SAPI  H13Y19953   1.224   4.622   7.396 -0.6608 -0.2378  2.2733
  175SAPI  C31419954   1.073   4.722   7.270  0.0644 -1.0553 -0.3172
  175SAPI  H14X19955   1.092   4.664   7.178  0.8183 -0.3451 -0.6238
  175SAPI  H14Y19956   1.061   4.826   7.231 -0.0040 -1.2346 -0.7762
  175SAPI  C31519957   0.936   4.684   7.332  0.6386 -0.0611 -0.0076
  175SAPI  H15X19958   0.948   4.611   7.415  2.7705 -0.8078 -0.9017
  175SAPI  H15Y19959   0.871   4.639   7.253  0.4778 -0.0801  0.1343
  175SAPI  C31619960   0.878   4.811   7.384  0.0385 -0.1086  0.3037
  175SAPI  H16X19961   0.854   4.883   7.303  1.3742  1.2766  1.0957
  175SAPI  H16Y19962   0.957   4.858   7.446 -0.2733  0.4121  0.3122
  175SAPI  C31719963   0.753   4.790   7.472 -0.2780  0.2028  0.0427
  175SAPI  H17X19964   0.774   4.711   7.547 -2.5859 -1.4027 -0.8926
  175SAPI  H17Y19965   0.662   4.748   7.425 -0.4845 -0.1220  0.7183
  175SAPI  C31819966   0.708   4.917   7.536  0.0673 -0.3573  0.2234
  175SAPI  H18X19967   0.681   4.997   7.464 -1.2320 -1.3136 -0.3907
  175SAPI  H18Y19968   0.773   4.965   7.613 -0.2032  2.1653 -1.0005
  175SAPI  H18Z19969   0.616   4.906   7.596 -0.8331 -1.2535 -1.2625
  176SAPI   C1219970   2.074   3.646   6.044 -0.3281 -0.7161  0.0943
  176SAPI    H219971   2.121   3.742   6.014  1.2449 -0.6620  2.4676
  176SAPI    O219972   2.064   3.562   5.934  0.2877  0.5277 -0.4020
  176SAPI   HO219973   2.077   3.614   5.854 -0.0903  0.8858 -0.2384
  176SAPI   C1319974   2.184   3.585   6.140 -0.2949 -1.1013  0.5172
  176SAPI    H319975   2.179   3.663   6.219 -0.1470 -0.0565 -0.4857
  176SAPI    O319976   2.318   3.581   6.093  0.3937 -0.0794 -0.2342
  176SAPI   HO319977   2.375   3.638   6.146  1.2845 -1.8784  0.8502
  176SAPI   C1419978   2.138   3.456   6.204  0.0495  0.5485  0.7699
  176SAPI    H419979   2.159   3.370   6.137  0.9576 -1.0139  2.9186
  176SAPI    O419980   2.218   3.434   6.323 -0.9243 -0.2150 -0.1646
  176SAPI   HO419981   2.235   3.340   6.332 -1.9061 -0.2824  1.2979
  176SAPI   C1519982   1.994   3.443   6.238 -0.0122  0.3508 -0.2312
  176SAPI    H519983   1.986   3.480   6.342 -3.3058  0.7738 -0.5127
  176SAPI    O519984   1.941   3.301   6.239  0.3571 -0.3653  0.2318
  176SAPI   HO519985   1.848   3.308   6.263 -0.0439  2.8811 -1.6344
  176SAPI   C1619986   1.887   3.533   6.169 -0.1818 -0.7908 -0.0078
  176SAPI    H619987   1.862   3.473   6.079 -0.6661 -2.2124  1.0321
  176SAPI    O619988   1.758   3.539   6.241  0.1974  0.6644  0.6104
  176SAPI   HO619989   1.688   3.543   6.176  0.6966  0.3552  0.0387
  176SAPI   C1119990   1.939   3.663   6.110 -0.0713 -0.2618 -0.6201
  176SAPI    H119991   1.951   3.741   6.189 -4.8115 -1.0008  1.2412
  176SAPI     P19992   1.820   3.853   5.944 -0.2651 -0.4309  0.1415
  176SAPI   O1319993   1.692   3.838   5.873  0.1499 -0.0546 -0.9904
  176SAPI   O1419994   1.936   3.894   5.860 -0.3927 -0.1530 -0.3783
  176SAPI   O1219995   1.841   3.707   6.016  0.3383 -0.6043  0.1359
  176SAPI   O1119996   1.794   3.953   6.067 -0.3643 -0.0085 -0.4880
  176SAPI    C119997   1.741   3.906   6.189  0.2482 -0.4650 -0.3663
  176SAPI    HA19998   1.674   3.820   6.167  0.0837 -0.4336  0.0036
  176SAPI    HB19999   1.812   3.873   6.268 -1.5294 -0.0291  1.4887
  176SAPI    C220000   1.657   4.020   6.241  0.1836 -0.1455 -0.3245
  176SAPI    HS20001   1.593   4.062   6.160  1.6068  2.7375 -0.0908
  176SAPI   O2120002   1.742   4.125   6.288  0.4317 -0.4637  0.1162
  176SAPI   C2120003   1.756   4.220   6.187 -0.5339  0.2484 -0.1249
  176SAPI   O2220004   1.698   4.214   6.085 -0.1790 -0.3961  0.2165
  176SAPI   C2220005   1.869   4.322   6.228 -0.2785 -0.3040 -0.3387
  176SAPI   H2R20006   1.917   4.364   6.137 -1.9418  1.8401 -0.3084
  176SAPI   H2S20007   1.825   4.412   6.276  1.2557 -0.1646  0.8695
  176SAPI    C320008   1.553   3.978   6.354 -0.2201  0.3924 -0.9297
  176SAPI    HX20009   1.605   3.929   6.440 -2.2972  0.2924  0.3452
  176SAPI    HY20010   1.485   3.907   6.303  0.1225 -1.1426  0.6252
  176SAPI   O3120011   1.488   4.094   6.409  0.3734 -0.0146 -0.2449
  176SAPI   C3120012   1.387   4.146   6.332 -0.5465  0.4597 -0.0637
  176SAPI   O3220013   1.357   4.106   6.221 -0.1170 -0.1493  0.1730
  176SAPI   C3220014   1.313   4.255   6.404  0.4689  0.1312  0.1306
  176SAPI   H2X20015   1.373   4.348   6.397 -0.3022  0.6223 -0.0675
  176SAPI   H2Y20016   1.309   4.226   6.511 -1.3419 -0.8195 -0.1537
  176SAPI   C2320017   1.980   4.268   6.325 -0.5172 -0.3575 -0.6390
  176SAPI   H3R20018   2.042   4.205   6.258 -0.9873  0.0369 -1.4571
  176SAPI   H3S20019   1.937   4.216   6.414 -1.1558  1.5949  0.2669
  176SAPI   C2420020   2.088   4.366   6.377 -0.3947 -0.2075 -0.0978
  176SAPI   H4R20021   2.035   4.423   6.456 -0.6044 -0.3013 -0.1680
  176SAPI   H4S20022   2.119   4.435   6.296 -1.4397  0.5516  0.1224
  176SAPI   C2520023   2.213   4.302   6.435 -0.1786  0.3107 -0.4308
  176SAPI   H5R20024   2.265   4.232   6.369  0.7935 -0.4534  1.0997
  176SAPI   C2620025   2.254   4.306   6.564 -0.3342  1.1286  0.0437
  176SAPI   H6R20026   2.353   4.266   6.590  0.4210  1.9349 -1.4631
  176SAPI   C2720027   2.195   4.378   6.678  0.0993  0.4343  0.6495
  176SAPI   H7R20028   2.216   4.339   6.780  0.5154  1.6249  1.0256
  176SAPI   H7S20029   2.085   4.371   6.666 -0.0551  1.1751  1.5891
  176SAPI   C2820030   2.226   4.524   6.670  0.3345  0.2225  0.1534
  176SAPI   H8R20031   2.246   4.569   6.572  0.8862  0.0793  0.1941
  176SAPI   C2920032   2.230   4.612   6.775 -0.1691 -0.3719  0.6467
  176SAPI   H9R20033   2.243   4.720   6.762 -0.2588 -0.4064  0.2800
  176SAPI  C21020034   2.215   4.571   6.916  0.0679  0.4201 -0.1714
  176SAPI  H10R20035   2.306   4.527   6.963 -1.1594 -0.6466  1.3036
  176SAPI  H10S20036   2.135   4.497   6.935 -1.6824  2.0191 -0.9738
  176SAPI  C21120037   2.185   4.687   7.016 -0.1167 -0.1308  0.0604
  176SAPI  H11R20038   2.158   4.783   6.969  2.0549  0.5487  0.0766
  176SAPI  C21220039   2.175   4.684   7.153  1.1256 -0.7295 -0.5710
  176SAPI  H12R20040   2.140   4.772   7.209 -0.9272 -1.3458 -0.7901
  176SAPI  C21320041   2.195   4.562   7.247 -0.0903 -0.2759 -0.5448
  176SAPI  H13R20042   2.267   4.491   7.201 -1.3281 -0.9728 -1.5042
  176SAPI  H13S20043   2.102   4.503   7.234 -1.0763  0.5208  2.3225
  176SAPI  C21420044   2.224   4.582   7.394  0.4522 -0.7849  0.1331
  176SAPI  H14R20045   2.331   4.597   7.413  0.4310 -1.8612  1.2644
  176SAPI  C21520046   2.136   4.567   7.492 -0.1723  0.1491  0.0744
  176SAPI  H15R20047   2.173   4.580   7.595  3.1026 -0.3143 -0.9252
  176SAPI  C21620048   1.994   4.533   7.476  0.1091  0.1241 -0.2728
  176SAPI  H16R20049   1.986   4.422   7.479 -2.5574  0.2143 -1.6249
  176SAPI  H16S20050   1.961   4.570   7.377  0.8489  0.5949 -0.3449
  176SAPI  C21720051   1.904   4.583   7.590  0.5087  0.2356  0.7950
  176SAPI  H17R20052   1.918   4.692   7.572  1.4260 -0.2384 -1.8236
  176SAPI  H17S20053   1.945   4.546   7.686 -0.3772 -3.0344  0.0370
  176SAPI  C21820054   1.754   4.539   7.579  0.6063 -0.8238 -0.3021
  176SAPI  H18R20055   1.748   4.431   7.604  2.4049 -0.6686  1.0008
  176SAPI  H18S20056   1.717   4.549   7.475  1.5858  1.2637 -0.4908
  176SAPI  C21920057   1.675   4.620   7.678  0.3703 -0.1529  0.4830
  176SAPI  H19R20058   1.608   4.682   7.615 -0.6092  0.5835  2.1904
  176SAPI  H19S20059   1.743   4.685   7.738 -1.4310  1.2704  1.0554
  176SAPI  C22020060   1.601   4.532   7.774  0.1001  0.3575 -0.6900
  176SAPI  H20R20061   1.661   4.474   7.846 -0.1435  0.7871 -0.1328
  176SAPI  H20S20062   1.529   4.463   7.725  1.1683 -0.7801 -0.7062
  176SAPI  H20T20063   1.542   4.604   7.836 -0.2711  0.7664 -1.4978
  176SAPI   C3320064   1.178   4.294   6.343  0.1441  0.0195 -0.0402
  176SAPI   H3X20065   1.103   4.222   6.382 -0.9891 -0.0850 -2.2596
  176SAPI   H3Y20066   1.181   4.284   6.233  1.0640 -2.6394  0.1758
  176SAPI   C3420067   1.127   4.430   6.371  0.2742 -0.1586 -1.1697
  176SAPI   H4X20068   1.023   4.443   6.333 -1.0765  0.1053  2.3088
  176SAPI   H4Y20069   1.190   4.493   6.305  0.7945  1.1831  0.5398
  176SAPI   C3520070   1.142   4.480   6.515 -0.0423 -0.0191  0.2094
  176SAPI   H5X20071   1.247   4.506   6.539 -0.6134  0.2690  2.5933
  176SAPI   H5Y20072   1.098   4.409   6.587 -0.7735  0.2540  0.0427
  176SAPI   C3620073   1.066   4.612   6.537 -0.0037  0.1861 -0.0638
  176SAPI   H6X20074   1.070   4.632   6.646  2.0503  0.3163 -0.1231
  176SAPI   H6Y20075   0.966   4.598   6.491  0.4282  1.6186 -1.5306
  176SAPI   C3720076   1.127   4.727   6.455  0.1278  0.9337 -1.0674
  176SAPI   H7X20077   1.133   4.700   6.347  1.0857 -0.3539 -0.7195
  176SAPI   H7Y20078   1.232   4.747   6.486 -0.1133  1.4996 -0.5984
  176SAPI   C3820079   1.040   4.853   6.469  0.4402  0.4452  0.4856
  176SAPI   H8X20080   0.933   4.828   6.481  0.5325 -0.2299 -0.0720
  176SAPI   H8Y20081   1.053   4.913   6.377 -0.8355 -1.4455 -0.9917
  176SAPI   C3920082   1.082   4.940   6.592 -0.3820  0.6008 -0.3758
  176SAPI   H9X20083   1.188   4.963   6.571  0.0274 -0.0005  0.8852
  176SAPI   H9Y20084   1.090   4.877   6.684 -0.0965  0.6570 -0.3625
  176SAPI  C31020085   0.995   5.064   6.605  0.5044  0.6510 -1.0298
  176SAPI  H10X20086   0.908   5.050   6.672  1.7651 -0.8675  0.3793
  176SAPI  H10Y20087   0.958   5.083   6.502 -1.1135  0.2279 -0.5543
  176SAPI  C31120088   1.069   5.191   6.651 -0.0131  0.1085  0.5919
  176SAPI  H11X20089   1.147   5.225   6.580  0.0004 -0.5349  0.2916
  176SAPI  H11Y20090   1.125   5.171   6.745  0.9145  0.6897  0.1728
  176SAPI  C31220091   0.978   5.313   6.671  0.1639 -0.6742 -0.5241
  176SAPI  H12X20092   1.044   5.399   6.694 -0.3285  0.2605 -2.3656
  176SAPI  H12Y20093   0.913   5.287   6.757  0.9709  2.4717  1.2339
  176SAPI  C31320094   0.885   5.346   6.552 -0.2425  0.1727 -0.5185
  176SAPI  H13X20095   0.829   5.442   6.554  1.4693  1.1888 -0.3623
  176SAPI  H13Y20096   0.812   5.263   6.536  0.0246  0.2715 -2.5012
  176SAPI  C31420097   0.969   5.355   6.422 -0.1764  0.7837  0.4332
  176SAPI  H14X20098   1.016   5.256   6.406  2.2626  1.5503  2.3600
  176SAPI  H14Y20099   1.045   5.436   6.425  1.5705 -0.7827  0.5734
  176SAPI  C31520100   0.882   5.391   6.298  0.0587 -0.2883 -0.2503
  176SAPI  H15X20101   0.784   5.344   6.321  0.6666 -0.7892  1.4710
  176SAPI  H15Y20102   0.919   5.364   6.197  3.3773  2.3237  0.0828
  176SAPI  C31620103   0.844   5.539   6.279 -0.2761  0.1472 -0.1722
  176SAPI  H16X20104   0.801   5.582   6.372  0.5128 -2.1170  1.3182
  176SAPI  H16Y20105   0.755   5.524   6.214 -1.2732  0.0457  1.1997
  176SAPI  C31720106   0.955   5.626   6.223  0.3339  0.3515  0.2636
  176SAPI  H17X20107   0.894   5.701   6.168 -0.2317 -0.9574 -0.9448
  176SAPI  H17Y20108   1.012   5.567   6.148  0.4571  0.1234  0.5354
  176SAPI  C31820109   1.039   5.703   6.325  0.3701 -0.0654 -0.2779
  176SAPI  H18X20110   1.066   5.806   6.295  1.8510  0.6489  3.0577
  176SAPI  H18Y20111   1.142   5.662   6.337  0.8599  0.8704 -1.1340
  176SAPI  H18Z20112   0.986   5.716   6.421  1.7699  1.5041  0.3199
  177SLPC     N20113   4.948   1.184  10.682  0.2189  0.3559  0.5762
  177SLPC   C1320114   4.969   1.246  10.821  0.1185  0.0416 -0.2634
  177SLPC  H13A20115   4.873   1.255  10.870 -0.4464  0.0868 -1.3568
  177SLPC  H13B20116   5.039   1.191  10.883  1.5512  2.7037  0.6516
  177SLPC  H13C20117   5.002   1.349  10.822  2.7654 -0.7005 -1.4784
  177SLPC   C1420118   5.072   1.209  10.597 -0.1494 -0.2252 -0.5743
  177SLPC  H14A20119   5.066   1.205  10.489  1.3705  1.3587 -0.7793
  177SLPC  H14B20120   5.124   1.299  10.628  1.8750 -2.3011  2.6679
  177SLPC  H14C20121   5.139   1.126  10.611  1.1012  0.5696 -1.5546
  177SLPC   C1520122   4.835   1.248  10.604  0.1479 -0.0462 -0.2636
  177SLPC  H15A20123   4.746   1.226  10.661  1.1545  1.5502  2.0639
  177SLPC  H15B20124   4.845   1.356  10.610  0.8669 -0.1912  1.7427
  177SLPC  H15C20125   4.821   1.213  10.502 -1.9686  1.9500 -0.7483
  177SLPC   C1220126   4.923   1.037  10.692  0.2230  0.4597 -0.3512
  177SLPC  H12A20127   4.826   1.021  10.735  0.1407  0.6615 -0.4604
  177SLPC  H12B20128   4.995   0.993  10.759 -0.3367 -2.1150 -1.3437
  177SLPC   C1120129   4.928   0.946  10.567 -0.1229 -0.6312 -0.3533
  177SLPC  H11A20130   4.849   0.967  10.492 -0.2458  0.0454 -0.0478
  177SLPC  H11B20131   4.913   0.844  10.607  0.3206  1.2983  5.7006
  177SLPC     P20132   5.187   0.879  10.560  0.4781 -0.0532  0.0503
  177SLPC   O1320133   5.295   0.983  10.560  0.1401  0.2996 -0.6071
  177SLPC   O1420134   5.157   0.799  10.679  0.1162 -0.8325 -0.1691
  177SLPC   O1220135   5.059   0.950  10.500 -0.6837 -0.1822 -0.1094
  177SLPC   O1120136   5.213   0.779  10.444  0.1341  0.0644  0.9459
  177SLPC    C120137   5.099   0.702  10.386 -0.0797  0.0036  0.0075
  177SLPC    HA20138   5.037   0.660  10.468  1.4753  0.0484  1.2507
  177SLPC    HB20139   5.037   0.770  10.324  0.8019  2.3286  1.5576
  177SLPC    C220140   5.153   0.582  10.309  0.1012  0.1972 -1.1581
  177SLPC    HS20141   5.234   0.530  10.363 -1.1668 -0.2881  0.3545
  177SLPC   O2120142   5.208   0.641  10.191 -0.4045  0.4919  0.0253
  177SLPC   C2120143   5.277   0.567  10.113 -0.2073 -0.5897  0.2769
  177SLPC   O2220144   5.312   0.449  10.131  0.2586  0.2997  0.6816
  177SLPC   C2220145   5.302   0.643   9.977 -0.0908  0.6912 -0.4706
  177SLPC   H2R20146   5.200   0.663   9.937 -1.0891 -1.4253  0.9006
  177SLPC   H2S20147   5.344   0.743  10.000 -0.6899  0.6449  0.9082
  177SLPC    C320148   5.038   0.481  10.268 -0.6248  0.1970  0.2959
  177SLPC    HX20149   5.003   0.423  10.356 -2.1090 -0.2606 -0.5633
  177SLPC    HY20150   5.090   0.401  10.210  0.8521  0.3019  1.4133
  177SLPC   O3120151   4.925   0.543  10.205 -0.2531 -0.4547  0.2409
  177SLPC   C3120152   4.925   0.560  10.068  0.3417  0.0666 -0.4359
  177SLPC   O3220153   5.010   0.509   9.996  0.1692  0.2622  0.4863
  177SLPC   C3220154   4.804   0.638  10.017  0.0410  0.5454  0.4626
  177SLPC   H2X20155   4.772   0.701  10.103  1.2030  4.2534 -1.5943
  177SLPC   H2Y20156   4.734   0.556   9.989 -0.2955  0.5134  1.3801
  177SLPC   C2320157   5.379   0.562   9.873  0.4358  0.2182  0.1184
  177SLPC   H3R20158   5.327   0.467   9.849  0.3690 -0.0874  1.3779
  177SLPC   H3S20159   5.483   0.534   9.901  0.0979  0.1540  1.3781
  177SLPC   C2420160   5.373   0.638   9.736  0.5117  0.2570 -0.4191
  177SLPC   H4R20161   5.429   0.573   9.664  1.8168  0.2337  0.5957
  177SLPC   H4S20162   5.412   0.741   9.743  1.0923 -0.1024  3.7817
  177SLPC   C2520163   5.229   0.648   9.668 -0.4608 -0.8181  0.0575
  177SLPC   H5R20164   5.167   0.717   9.729 -1.0234 -1.2042 -0.0625
  177SLPC   H5S20165   5.172   0.553   9.662  1.6209 -2.0629 -1.3473
  177SLPC   C2620166   5.238   0.702   9.527 -0.2664 -0.1516  0.4532
  177SLPC   H6R20167   5.292   0.799   9.536  0.8743 -0.7940  0.8601
  177SLPC   H6S20168   5.144   0.744   9.485 -0.4625  1.4398  2.3315
  177SLPC   C2720169   5.306   0.615   9.422 -0.0202  0.3468  0.4081
  177SLPC   H7R20170   5.244   0.525   9.403 -0.4830  0.8455 -0.5271
  177SLPC   H7S20171   5.410   0.586   9.446  1.2565  3.8906 -0.2202
  177SLPC   C2820172   5.322   0.685   9.275  0.2808  0.0880  0.0275
  177SLPC   H8R20173   5.363   0.606   9.209  0.4822 -0.1205  0.3999
  177SLPC   H8S20174   5.388   0.772   9.292 -2.9078  2.7104  0.0348
  177SLPC   C2920175   5.190   0.735   9.221 -0.1125 -0.5703 -0.2887
  177SLPC   H9R20176   5.157   0.832   9.262  1.8196  0.5394 -1.2460
  177SLPC  C21020177   5.121   0.686   9.123 -0.5165  0.2891  0.2945
  177SLPC  H10R20178   5.035   0.751   9.103 -0.3533  0.9025  1.5133
  177SLPC  C21120179   5.148   0.564   9.040 -0.4820  0.3000 -1.1971
  177SLPC  H11R20180   5.179   0.484   9.110  1.7949  2.0059 -0.1196
  177SLPC  H11S20181   5.045   0.535   9.011 -1.0756  0.7724  0.3745
  177SLPC  C21220182   5.236   0.573   8.916  0.5568 -0.3705 -0.4526
  177SLPC  H12R20183   5.335   0.617   8.935 -1.2424  3.8515  0.3659
  177SLPC  C21320184   5.214   0.526   8.793  0.2665  0.3097  0.2479
  177SLPC  H13R20185   5.292   0.533   8.716 -0.1986 -3.2619 -0.6882
  177SLPC  C21420186   5.094   0.447   8.749 -0.6356  0.2063 -0.0254
  177SLPC  H14R20187   5.045   0.393   8.833  2.0098 -4.3458 -1.0838
  177SLPC  H14S20188   5.126   0.360   8.688  0.0641 -0.2752  1.0000
  177SLPC  C21520189   5.004   0.544   8.669 -0.6564  0.2753 -0.1493
  177SLPC  H15R20190   4.953   0.611   8.741  0.9177  0.6742  0.6484
  177SLPC  H15S20191   4.921   0.483   8.628 -0.9938 -0.7421  1.9492
  177SLPC  C21620192   5.062   0.624   8.555  0.0971 -0.9137  0.2025
  177SLPC  H16R20193   5.101   0.553   8.478  0.3630  0.4977 -1.0198
  177SLPC  H16S20194   5.142   0.693   8.589  1.3063 -0.9009 -2.4165
  177SLPC  C21720195   4.942   0.711   8.503 -0.3403 -0.0777  0.4811
  177SLPC  H17R20196   4.948   0.809   8.555  0.9824 -0.2508  0.6681
  177SLPC  H17S20197   4.844   0.664   8.524  0.9374 -2.2476  1.9056
  177SLPC  C21820198   4.953   0.735   8.358 -0.0446 -0.4642  0.0086
  177SLPC  H18R20199   4.959   0.647   8.290 -1.8925  1.3101 -2.6303
  177SLPC  H18S20200   5.047   0.794   8.344  0.0508 -0.1008  1.8420
  177SLPC  H18T20201   4.876   0.809   8.329 -0.1789 -0.0153  1.4287
  177SLPC   C3320202   4.833   0.730   9.893 -0.4725 -0.1883  0.3727
  177SLPC   H3X20203   4.928   0.779   9.925  0.1865 -1.4907  0.4658
  177SLPC   H3Y20204   4.762   0.815   9.900  1.4068  2.0027 -3.6525
  177SLPC   C3420205   4.821   0.647   9.761 -0.0060 -0.4390  0.2849
  177SLPC   H4X20206   4.724   0.593   9.756 -1.4253  2.0310 -2.2951
  177SLPC   H4Y20207   4.897   0.566   9.764  0.2769 -0.3299 -2.1263
  177SLPC   C3520208   4.847   0.723   9.639  0.2579 -0.1811  0.0739
  177SLPC   H5X20209   4.953   0.755   9.634  0.2916 -0.2588  0.3183
  177SLPC   H5Y20210   4.790   0.819   9.633  3.7605  2.2411  2.0801
  177SLPC   C3620211   4.820   0.635   9.512  0.5336  0.2555  0.6195
  177SLPC   H6X20212   4.715   0.603   9.527  0.8701  0.4049  3.9135
  177SLPC   H6Y20213   4.874   0.538   9.511  0.0179 -0.0467 -0.6419
  177SLPC   C3720214   4.842   0.708   9.378 -0.5506 -0.2142  0.1238
  177SLPC   H7X20215   4.949   0.739   9.381 -0.3945 -0.8398  1.4691
  177SLPC   H7Y20216   4.798   0.810   9.377 -0.0471  0.1066  2.9496
  177SLPC   C3820217   4.813   0.618   9.257 -0.1087 -1.2654 -0.1424
  177SLPC   H8X20218   4.880   0.530   9.244  0.8969 -0.9380  2.4479
  177SLPC   H8Y20219   4.841   0.682   9.170 -0.8357  1.4859  1.5327
  177SLPC   C3920220   4.662   0.574   9.244 -0.1183  0.0814  1.3452
  177SLPC   H9X20221   4.592   0.658   9.265  0.8400  1.2254  0.1158
  177SLPC   H9Y20222   4.646   0.500   9.326  0.6362 -1.3909  0.2122
  177SLPC  C31020223   4.634   0.523   9.104 -0.2455 -0.2340  0.4804
  177SLPC  H10X20224   4.711   0.453   9.065 -1.1729 -1.0348  0.0673
  177SLPC  H10Y20225   4.634   0.614   9.040  3.2879 -0.2640  0.2529
  177SLPC  C31120226   4.494   0.462   9.086 -0.8779  0.4661 -0.5238
  177SLPC  H11X20227   4.424   0.544   9.112  1.0714  1.6225  1.3795
  177SLPC  H11Y20228   4.485   0.371   9.149  0.8892 -0.0152 -0.9095
  177SLPC  C31220229   4.474   0.430   8.931  0.6675  0.5718 -0.1210
  177SLPC  H12X20230   4.553   0.355   8.909 -1.1882 -1.3918 -0.4382
  177SLPC  H12Y20231   4.492   0.523   8.873 -0.3985  1.2635  0.6225
  177SLPC  C31320232   4.334   0.373   8.891  0.2352 -1.0003 -0.3515
  177SLPC  H13X20233   4.266   0.461   8.893  1.2060 -0.1796 -1.7612
  177SLPC  H13Y20234   4.297   0.296   8.962 -2.3935  0.7306  0.3109
  177SLPC  C31420235   4.337   0.316   8.747 -0.0228  0.4534 -0.5757
  177SLPC  H14X20236   4.387   0.217   8.753 -1.8639 -0.4942 -0.0218
  177SLPC  H14Y20237   4.385   0.389   8.678  1.4885 -0.4533 -0.5016
  177SLPC  C31520238   4.189   0.303   8.697 -0.0569  0.7503  0.0307
  177SLPC  H15X20239   4.135   0.399   8.703 -1.6385 -0.1513  0.8522
  177SLPC  H15Y20240   4.136   0.227   8.759 -2.6758  1.0998 -1.6361
  177SLPC  C31620241   4.175   0.269   8.553 -0.2349  0.4444 -0.0724
  177SLPC  H16X20242   4.067   0.268   8.526 -0.2045  0.1582 -0.1861
  177SLPC  H16Y20243   4.203   0.163   8.532  1.0784  1.0515 -1.6387
  177SLPC  C31720244   4.238   0.363   8.453  0.1006 -0.3058 -0.1432
  177SLPC  H17X20245   4.347   0.342   8.443  0.8227  2.6407  0.5829
  177SLPC  H17Y20246   4.220   0.467   8.488 -1.6288 -0.5169 -0.3178
  177SLPC  C31820247   4.167   0.356   8.320 -0.9078 -0.0268  0.6104
  177SLPC  H18X20248   4.218   0.415   8.240 -0.5900 -1.2627 -0.1269
  177SLPC  H18Y20249   4.061   0.389   8.328 -0.9164 -0.4626  2.6807
  177SLPC  H18Z20250   4.165   0.250   8.286 -1.6307  0.2916 -0.4060
  178SLPC     N20251   1.171   4.068  10.207 -0.1589  0.1880  0.2856
  178SLPC   C1320252   1.118   3.930  10.248  0.2897 -0.4324 -0.6038
  178SLPC  H13A20253   1.152   3.854  10.181  0.2287 -1.6430  0.6969
  178SLPC  H13B20254   1.148   3.906  10.349 -2.7998  2.4957  1.2530
  178SLPC  H13C20255   1.010   3.928  10.245  0.2413  1.2910 -2.8997
  178SLPC   C1420256   1.310   4.078  10.259  0.0863 -0.3281 -0.0847
  178SLPC  H14A20257   1.301   4.072  10.367 -1.3933  0.1826 -0.1639
  178SLPC  H14B20258   1.364   4.000  10.207  0.1020 -1.0688  0.9944
  178SLPC  H14C20259   1.356   4.168  10.221 -0.1789 -0.6055 -1.1033
  178SLPC   C1520260   1.093   4.166  10.294 -0.3358  0.3060  0.3914
  178SLPC  H15A20261   0.999   4.173  10.242  0.1696 -0.3420 -0.6330
  178SLPC  H15B20262   1.071   4.143  10.397 -2.9290  1.0551  0.0860
  178SLPC  H15C20263   1.133   4.266  10.295 -0.6738  0.4448  0.4188
  178SLPC   C1220264   1.166   4.090  10.068 -0.4129  0.3394  0.0424
  178SLPC  H12A20265   1.197   3.998  10.021  0.9934  0.3971  0.8164
  178SLPC  H12B20266   1.238   4.164  10.037 -0.8837  0.6140 -0.4124
  178SLPC   C1120267   1.029   4.141  10.008 -0.2950  1.0483 -0.0240
  178SLPC  H11A20268   0.948   4.075  10.046  1.5797 -0.3022  1.7990
  178SLPC  H11B20269   1.042   4.118   9.900 -0.4527  0.2985  0.1133
  178SLPC     P20270   1.104   4.386   9.987 -0.3245  0.6600 -0.4518
  178SLPC   O1320271   1.143   4.456  10.112  0.4189  0.3305  0.1546
  178SLPC   O1420272   1.212   4.318   9.907 -0.7381  0.0170  0.2030
  178SLPC   O1220273   0.995   4.277  10.024  0.3337  0.8518  0.0985
  178SLPC   O1120274   1.017   4.487   9.896 -0.0228 -0.6122 -0.1312
  178SLPC    C120275   0.879   4.502   9.914 -0.6915 -0.4776  0.4956
  178SLPC    HA20276   0.848   4.488  10.020 -1.5872 -0.7087  0.2084
  178SLPC    HB20277   0.856   4.608   9.890  2.1780  0.0294 -0.3386
  178SLPC    C220278   0.786   4.402   9.828 -0.5034 -0.9779  0.2245
  178SLPC    HS20279   0.830   4.302   9.850  0.0769 -0.6617  0.5294
  178SLPC   O2120280   0.799   4.441   9.691 -0.0085 -0.1935  0.0402
  178SLPC   C2120281   0.882   4.374   9.616  0.2749 -0.8949  0.5152
  178SLPC   O2220282   0.927   4.263   9.649  0.0083  0.5119 -0.3953
  178SLPC   C2220283   0.913   4.441   9.481 -0.3578 -0.5140  0.2536
  178SLPC   H2R20284   0.827   4.424   9.413 -0.1912 -2.8487  0.5531
  178SLPC   H2S20285   0.919   4.551   9.491  0.1685 -0.3876 -1.2073
  178SLPC    C320286   0.636   4.402   9.878 -0.2564 -0.1397  0.1079
  178SLPC    HX20287   0.613   4.508   9.854 -2.1158 -0.0629  1.8652
  178SLPC    HY20288   0.615   4.389   9.987 -1.8109  1.1724 -0.0043
  178SLPC   O3120289   0.555   4.310   9.810 -0.6671 -0.0086 -0.2937
  178SLPC   C3120290   0.557   4.187   9.849  0.7769 -0.0828  0.1867
  178SLPC   O3220291   0.615   4.138   9.942  0.6519  0.2961  0.4932
  178SLPC   C3220292   0.469   4.110   9.746 -0.3824  0.5204 -0.1545
  178SLPC   H2X20293   0.366   4.101   9.787  0.0690  0.8434  1.1008
  178SLPC   H2Y20294   0.513   4.008   9.741  2.0535  1.5605 -2.2310
  178SLPC   C2320295   1.039   4.374   9.408  0.2042  0.1176 -0.3372
  178SLPC   H3R20296   1.029   4.265   9.387  2.3746 -0.4185  1.0291
  178SLPC   H3S20297   1.120   4.400   9.480  0.3003 -1.7409  0.2747
  178SLPC   C2420298   1.072   4.421   9.269 -0.2802 -0.2656 -0.0328
  178SLPC   H4R20299   1.072   4.532   9.271  1.6192 -0.2191  2.2188
  178SLPC   H4S20300   0.999   4.403   9.187 -0.4354  2.2964 -0.5314
  178SLPC   C2520301   1.208   4.368   9.223 -0.3227  0.8975 -0.0931
  178SLPC   H5R20302   1.208   4.257   9.236 -2.7732  0.7212 -1.2002
  178SLPC   H5S20303   1.282   4.417   9.290  0.3284  1.8817 -1.4769
  178SLPC   C2620304   1.244   4.400   9.080 -0.5533  0.6402  0.4398
  178SLPC   H6R20305   1.354   4.396   9.069 -0.5792  1.9144 -0.5129
  178SLPC   H6S20306   1.217   4.505   9.053  1.2974  0.2087 -3.9773
  178SLPC   C2720307   1.199   4.305   8.966 -0.2057 -0.1442 -0.9137
  178SLPC   H7R20308   1.089   4.310   8.948 -0.3924 -0.2638  0.1433
  178SLPC   H7S20309   1.226   4.203   9.003  0.8193 -0.1557 -1.6523
  178SLPC   C2820310   1.276   4.336   8.840  0.1654 -0.4032 -0.1627
  178SLPC   H8R20311   1.382   4.307   8.862 -0.1088 -1.7974 -0.6052
  178SLPC   H8S20312   1.266   4.445   8.823  0.0245 -0.7511 -2.6606
  178SLPC   C2920313   1.216   4.263   8.726  0.0437 -0.2279 -0.1908
  178SLPC   H9R20314   1.146   4.183   8.753 -0.5919  0.1249 -0.7712
  178SLPC  C21020315   1.253   4.279   8.596  0.4195  0.6027  0.6436
  178SLPC  H10R20316   1.206   4.207   8.527 -1.4789  0.4220  2.0309
  178SLPC  C21120317   1.369   4.363   8.556 -0.6236  0.1603  0.3094
  178SLPC  H11R20318   1.455   4.303   8.520  0.6250  2.8073 -1.4377
  178SLPC  H11S20319   1.404   4.420   8.645 -1.3072 -1.6699  1.8153
  178SLPC  C21220320   1.341   4.472   8.459 -0.7889  0.5649 -0.3579
  178SLPC  H12R20321   1.282   4.555   8.501 -0.0340  1.5338 -1.1277
  178SLPC  C21320322   1.379   4.487   8.334  0.0491  0.2023  0.3780
  178SLPC  H13R20323   1.335   4.581   8.298  1.3904  1.8723  2.8450
  178SLPC  C21420324   1.460   4.400   8.246  0.2601 -0.1801 -0.2988
  178SLPC  H14R20325   1.510   4.318   8.301  0.4994 -0.9304 -1.5895
  178SLPC  H14S20326   1.539   4.458   8.195 -0.7112  1.7994  0.3514
  178SLPC  C21520327   1.372   4.339   8.134  0.1455  0.4588 -0.4687
  178SLPC  H15R20328   1.437   4.300   8.053  0.9384 -0.4403  0.5549
  178SLPC  H15S20329   1.313   4.420   8.087 -1.3134 -2.1127 -3.4457
  178SLPC  C21620330   1.281   4.232   8.195 -0.2790 -0.8799  0.2004
  178SLPC  H16R20331   1.203   4.203   8.121  0.0136 -0.4583 -0.2880
  178SLPC  H16S20332   1.237   4.265   8.291 -1.3853  0.0667 -0.6046
  178SLPC  C21720333   1.358   4.109   8.240 -0.1981  0.1402  0.1711
  178SLPC  H17R20334   1.425   4.131   8.326 -0.3552  0.2307  0.2719
  178SLPC  H17S20335   1.417   4.067   8.156  2.0246  3.5613 -0.1808
  178SLPC  C21820336   1.257   3.993   8.286  0.1653  0.3662  0.5013
  178SLPC  H18R20337   1.311   3.900   8.312 -0.8549 -0.7415 -1.1631
  178SLPC  H18S20338   1.196   3.959   8.199  1.9155 -3.3102  0.5309
  178SLPC  H18T20339   1.196   4.031   8.371 -1.6649 -1.8823  0.2846
  178SLPC   C3320340   0.461   4.178   9.604 -1.1910  0.2149 -0.2603
  178SLPC   H3X20341   0.462   4.289   9.612  0.5708  0.3177 -1.3806
  178SLPC   H3Y20342   0.365   4.140   9.562  0.0033 -0.2356 -2.7609
  178SLPC   C3420343   0.583   4.129   9.522  0.5215 -0.0309 -0.4586
  178SLPC   H4X20344   0.580   4.020   9.504  3.1162 -0.3864  0.9186
  178SLPC   H4Y20345   0.677   4.145   9.579  0.0934 -0.8863  0.5072
  178SLPC   C3520346   0.580   4.208   9.386  0.6982  0.3769 -0.4150
  178SLPC   H5X20347   0.592   4.314   9.420  0.0677  0.1625  0.5155
  178SLPC   H5Y20348   0.478   4.209   9.341 -0.3303  3.2065  1.6131
  178SLPC   C3620349   0.694   4.184   9.288  0.2184 -0.6583  0.2778
  178SLPC   H6X20350   0.788   4.166   9.345  1.6724  0.1328 -1.7771
  178SLPC   H6Y20351   0.708   4.276   9.229  0.9016 -0.4214  0.7999
  178SLPC   C3720352   0.671   4.053   9.203  0.0635  0.1710  0.5461
  178SLPC   H7X20353   0.632   3.968   9.262 -0.3538  0.5468  0.8161
  178SLPC   H7Y20354   0.772   4.031   9.163  0.0246  2.3962 -0.9747
  178SLPC   C3820355   0.578   4.077   9.086 -0.9272  0.0835  0.1067
  178SLPC   H8X20356   0.608   4.176   9.048  0.0070  0.1790  1.0681
  178SLPC   H8Y20357   0.474   4.069   9.124 -0.6139 -0.1770  0.9271
  178SLPC   C3920358   0.594   3.972   8.971  0.6557 -0.1705 -0.0846
  178SLPC   H9X20359   0.512   3.990   8.898  1.0171 -1.7565 -0.9407
  178SLPC   H9Y20360   0.589   3.869   9.012 -0.6180 -0.2225 -0.3309
  178SLPC  C31020361   0.733   3.971   8.902  0.0522  0.0326  0.2881
  178SLPC  H10X20362   0.731   3.880   8.839  2.6087  0.4534 -0.5215
  178SLPC  H10Y20363   0.808   3.950   8.982 -0.4793 -1.0673  0.5054
  178SLPC  C31120364   0.776   4.096   8.830  0.1029 -0.4391  0.6896
  178SLPC  H11X20365   0.816   4.165   8.908 -1.6347 -0.5209  1.6953
  178SLPC  H11Y20366   0.692   4.157   8.790 -1.2508 -0.9273  2.6211
  178SLPC  C31220367   0.884   4.072   8.719 -0.4849 -0.4789 -0.0760
  178SLPC  H12X20368   0.973   4.014   8.753 -0.4689 -0.3658  0.0772
  178SLPC  H12Y20369   0.905   4.173   8.678 -0.6486 -0.3134  0.2507
  178SLPC  C31320370   0.817   4.008   8.597  0.6373 -0.2709 -0.0476
  178SLPC  H13X20371   0.710   4.035   8.607  0.8450  0.1801  1.1991
  178SLPC  H13Y20372   0.828   3.897   8.600  0.7610 -0.2474  0.6505
  178SLPC  C31420373   0.869   4.061   8.464  0.3029  0.1265 -0.3926
  178SLPC  H14X20374   0.960   4.009   8.427 -0.5379 -1.4799 -0.3022
  178SLPC  H14Y20375   0.876   4.172   8.461 -0.9484  0.2019 -1.2239
  178SLPC  C31520376   0.772   4.021   8.355  0.3042  0.0074  0.1671
  178SLPC  H15X20377   0.756   3.911   8.359  0.7684 -0.0474  0.6980
  178SLPC  H15Y20378   0.680   4.082   8.348 -0.7970 -1.5862  0.3572
  178SLPC  C31620379   0.823   4.052   8.206 -0.1090 -1.2435  0.1479
  178SLPC  H16X20380   0.919   4.005   8.178  0.4902  0.1772 -0.2883
  178SLPC  H16Y20381   0.848   4.159   8.188  0.9929 -1.6130 -0.5821
  178SLPC  C31720382   0.714   4.014   8.105  0.1912  0.1555 -0.5996
  178SLPC  H17X20383   0.615   4.057   8.131  0.8600  1.1858  0.3688
  178SLPC  H17Y20384   0.706   3.903   8.104 -0.0452  0.1118  1.8329
  178SLPC  C31820385   0.743   4.074   7.962  0.3297  0.5819 -0.3882
  178SLPC  H18X20386   0.840   4.031   7.927 -0.9230 -1.1729 -1.8717
  178SLPC  H18Y20387   0.757   4.184   7.972  2.4138  0.3583 -0.4011
  178SLPC  H18Z20388   0.668   4.031   7.892 -1.1128  1.5507  0.5260
  179SLPC     N20389   1.770   0.030   9.926 -0.0742  0.0160 -0.6484
  179SLPC   C1320390   1.637   0.084   9.970 -0.3014  0.2216  0.7880
  179SLPC  H13A20391   1.571   0.011  10.014 -0.4506 -0.1916 -0.0963
  179SLPC  H13B20392   1.657   0.165  10.039 -0.0652 -0.2054  1.2225
  179SLPC  H13C20393   1.586   0.122   9.883  1.2269  0.4551 -0.0496
  179SLPC   C1420394   1.867   0.020  10.035 -0.1000 -0.5264 -0.0559
  179SLPC  H14A20395   1.825  -0.052  10.103  1.0382 -0.7206  0.4636
  179SLPC  H14B20396   1.963  -0.017  10.000 -0.8724 -1.7535 -0.9461
  179SLPC  H14C20397   1.887   0.117  10.079  1.6228 -1.0367  0.3906
  179SLPC   C1520398   1.822   0.115   9.812 -0.7705 -0.0911  0.9253
  179SLPC  H15A20399   1.918   0.080   9.777 -0.0724  0.6247  2.0497
  179SLPC  H15B20400   1.759   0.110   9.724 -2.4327  2.6495  1.8148
  179SLPC  H15C20401   1.835   0.219   9.839  1.1037  0.2990 -1.1347
  179SLPC   C1220402   1.746  -0.106   9.861  0.5377  0.1011 -0.6584
  179SLPC  H12A20403   1.823  -0.129   9.789  1.6708 -0.0137  0.5564
  179SLPC  H12B20404   1.651  -0.100   9.809  1.1173  1.5256 -1.6108
  179SLPC   C1120405   1.731  -0.236   9.945 -0.8120  0.0647  0.0721
  179SLPC  H11A20406   1.691  -0.314   9.878 -2.3536 -1.2677  2.4124
  179SLPC  H11B20407   1.652  -0.211  10.019  0.1501  3.0440  0.2645
  179SLPC     P20408   1.983  -0.291   9.944  0.1324  0.0575  0.0012
  179SLPC   O1320409   2.066  -0.176   9.941 -0.1938  0.0112  0.5644
  179SLPC   O1420410   2.038  -0.411  10.008  0.0633 -0.0330 -0.3996
  179SLPC   O1220411   1.849  -0.266  10.022  0.0972  0.5362 -0.5298
  179SLPC   O1120412   1.949  -0.314   9.792  0.1958  0.6537 -0.3778
  179SLPC    C120413   1.941  -0.441   9.725  0.4892 -0.1501  0.0016
  179SLPC    HA20414   1.883  -0.522   9.773  1.4239 -1.1960 -0.5754
  179SLPC    HB20415   1.894  -0.428   9.625  3.0491 -0.3751 -1.3104
  179SLPC    C220416   2.084  -0.501   9.704  0.2973 -0.1659  0.1169
  179SLPC    HS20417   2.104  -0.574   9.785 -3.3529 -0.9679  0.4728
  179SLPC   O2120418   2.180  -0.386   9.685 -0.1246  0.1344  0.0707
  179SLPC   C2120419   2.304  -0.438   9.694 -0.2769  0.3999 -0.6248
  179SLPC   O2220420   2.335  -0.549   9.740 -0.0371  0.0164 -0.1104
  179SLPC   C2220421   2.410  -0.340   9.648 -1.4711 -0.3972  0.0089
  179SLPC   H2R20422   2.363  -0.277   9.569  1.4245 -1.5565 -2.8638
  179SLPC   H2S20423   2.439  -0.269   9.729  0.6390  2.1265 -2.7270
  179SLPC    C320424   2.101  -0.583   9.576  0.4138  0.6639 -0.0829
  179SLPC    HX20425   2.034  -0.671   9.572  0.0506  0.9656 -2.3533
  179SLPC    HY20426   2.203  -0.627   9.572 -0.7912 -2.3670  0.2115
  179SLPC   O3120427   2.069  -0.513   9.456 -0.4061  0.4715  0.6728
  179SLPC   C3120428   2.079  -0.595   9.348 -0.3598 -0.4089 -0.2502
  179SLPC   O3220429   2.106  -0.716   9.350 -0.4891 -0.0385 -0.1989
  179SLPC   C3220430   2.032  -0.518   9.224  0.1771  0.7628 -0.9446
  179SLPC   H2X20431   2.098  -0.428   9.219  0.6899  0.4660  0.2004
  179SLPC   H2Y20432   1.929  -0.481   9.242  0.8337  1.6703  1.1926
  179SLPC   C2320433   2.530  -0.411   9.574  0.4627 -0.3078 -0.3681
  179SLPC   H3R20434   2.574  -0.486   9.642 -0.0783 -1.6346 -1.4342
  179SLPC   H3S20435   2.608  -0.342   9.538  0.8011  0.0874  1.0582
  179SLPC   C2420436   2.500  -0.480   9.440  0.4415  0.1455  0.0495
  179SLPC   H4R20437   2.437  -0.571   9.450  0.5141  0.0260 -0.5062
  179SLPC   H4S20438   2.600  -0.518   9.409  0.8223  1.5269 -0.5091
  179SLPC   C2520439   2.450  -0.379   9.332  0.2294 -0.1548 -0.2293
  179SLPC   H5R20440   2.527  -0.300   9.328  0.1225  0.1380  2.1065
  179SLPC   H5S20441   2.353  -0.335   9.362 -0.9444 -3.1113  0.7460
  179SLPC   C2620442   2.440  -0.449   9.195 -0.0459  1.0816  0.2865
  179SLPC   H6R20443   2.377  -0.538   9.217  1.2006  0.3508  1.0721
  179SLPC   H6S20444   2.542  -0.484   9.168  0.0623  0.1794  1.7620
  179SLPC   C2720445   2.376  -0.363   9.090 -0.0246 -0.4197 -0.4886
  179SLPC   H7R20446   2.386  -0.259   9.127 -3.0862 -0.9792  2.4070
  179SLPC   H7S20447   2.265  -0.377   9.088 -0.3757  1.9427  0.0360
  179SLPC   C2820448   2.425  -0.377   8.948  0.3605 -0.5121 -0.0269
  179SLPC   H8R20449   2.535  -0.359   8.949  0.1829  0.6089  0.4682
  179SLPC   H8S20450   2.378  -0.297   8.888  0.2703 -0.2527  0.3838
  179SLPC   C2920451   2.393  -0.506   8.882 -0.1908  0.0880 -0.2185
  179SLPC   H9R20452   2.353  -0.580   8.952 -1.4656 -0.1978 -1.1963
  179SLPC  C21020453   2.407  -0.528   8.750  0.1614  0.3817 -0.5496
  179SLPC  H10R20454   2.384  -0.631   8.718 -1.3901 -0.0278  1.6425
  179SLPC  C21120455   2.473  -0.437   8.650  0.1441  0.1342 -0.2648
  179SLPC  H11R20456   2.575  -0.473   8.623  1.2176  2.2412  0.6489
  179SLPC  H11S20457   2.492  -0.336   8.692 -1.5784  1.4913 -2.5784
  179SLPC  C21220458   2.394  -0.430   8.519 -0.5248  0.0908 -0.4483
  179SLPC  H12R20459   2.284  -0.435   8.525 -0.4162 -2.1583  0.6176
  179SLPC  C21320460   2.441  -0.436   8.390  0.1627  0.8863 -0.0311
  179SLPC  H13R20461   2.378  -0.416   8.302 -2.8635  3.0742  2.4139
  179SLPC  C21420462   2.584  -0.448   8.350 -0.4112 -0.2019 -0.3562
  179SLPC  H14R20463   2.588  -0.484   8.245 -4.1361 -0.6568 -0.4911
  179SLPC  H14S20464   2.630  -0.536   8.400 -2.0521 -0.7693  0.2091
  179SLPC  C21520465   2.663  -0.313   8.364  0.8405 -0.2831  0.2670
  179SLPC  H15R20466   2.765  -0.334   8.326  0.4290 -2.0778  0.0858
  179SLPC  H15S20467   2.672  -0.282   8.470 -0.7886 -3.6598  1.5527
  179SLPC  C21620468   2.603  -0.197   8.288  0.6362 -1.4120  0.2431
  179SLPC  H16R20469   2.664  -0.108   8.318  0.9284 -1.4340 -0.2857
  179SLPC  H16S20470   2.501  -0.186   8.331 -0.4487 -0.5636 -2.3818
  179SLPC  C21720471   2.592  -0.209   8.127  0.4967 -0.6412  0.2919
  179SLPC  H17R20472   2.535  -0.116   8.106  1.3832  0.4416  2.4166
  179SLPC  H17S20473   2.529  -0.297   8.102  3.2619 -2.0443 -2.5667
  179SLPC  C21820474   2.710  -0.199   8.021  0.5134 -0.0339  0.1481
  179SLPC  H18R20475   2.751  -0.302   8.017 -0.4289 -0.4143 -0.1976
  179SLPC  H18S20476   2.790  -0.127   8.046  3.3341 -2.8182 -0.2392
  179SLPC  H18T20477   2.676  -0.154   7.925  1.9570  1.0959  0.1455
  179SLPC   C3320478   2.028  -0.614   9.100  0.5801 -0.4124 -0.6641
  179SLPC   H3X20479   1.934  -0.673   9.093 -1.7196  3.0999 -2.0501
  179SLPC   H3Y20480   2.115  -0.684   9.101  0.3113 -0.8500  2.1969
  179SLPC   C3420481   2.037  -0.538   8.964 -0.1130  0.4924  0.2374
  179SLPC   H4X20482   2.123  -0.469   8.955 -0.6176  1.0282 -0.6443
  179SLPC   H4Y20483   1.941  -0.482   8.961  0.2189  1.1178  1.0279
  179SLPC   C3520484   2.038  -0.636   8.845  0.2483  0.8510 -0.7574
  179SLPC   H5X20485   2.129  -0.699   8.837  1.5278  2.4503  0.3667
  179SLPC   H5Y20486   2.039  -0.577   8.751 -0.3986  3.0109  0.5089
  179SLPC   C3620487   1.914  -0.730   8.837 -0.1529 -0.4102  0.4575
  179SLPC   H6X20488   1.822  -0.672   8.861  0.0265 -0.0797  0.3634
  179SLPC   H6Y20489   1.928  -0.812   8.911  1.3402  0.2882  0.9955
  179SLPC   C3720490   1.901  -0.797   8.690 -0.3716 -0.3602 -0.4794
  179SLPC   H7X20491   1.829  -0.882   8.687  0.7118 -1.2939 -0.6006
  179SLPC   H7Y20492   2.003  -0.829   8.660 -1.3112 -1.2682 -3.0190
  179SLPC   C3820493   1.842  -0.707   8.568  0.3091  0.3803 -0.1769
  179SLPC   H8X20494   1.920  -0.628   8.553 -0.2116  0.9564  0.1039
  179SLPC   H8Y20495   1.747  -0.670   8.613 -0.9115 -1.4101 -1.2010
  179SLPC   C3920496   1.826  -0.781   8.431 -0.2885  0.5810 -0.1641
  179SLPC   H9X20497   1.823  -0.891   8.444 -0.2421  0.5275 -0.6172
  179SLPC   H9Y20498   1.907  -0.750   8.362 -1.0202  0.7042 -0.9795
  179SLPC  C31020499   1.695  -0.729   8.368 -0.0755  0.5569  0.2477
  179SLPC  H10X20500   1.713  -0.622   8.346  3.3615  0.6928  2.8159
  179SLPC  H10Y20501   1.616  -0.742   8.446 -1.4795 -0.3713 -1.2657
  179SLPC  C31120502   1.635  -0.806   8.250  0.2008  0.2760 -0.3693
  179SLPC  H11X20503   1.559  -0.742   8.200 -1.8447 -0.7511  1.2756
  179SLPC  H11Y20504   1.587  -0.896   8.295  1.6053 -0.2542  0.1180
  179SLPC  C31220505   1.729  -0.845   8.141  0.1480  0.1158  0.3932
  179SLPC  H12X20506   1.822  -0.901   8.167 -0.1809 -0.8854 -0.4881
  179SLPC  H12Y20507   1.756  -0.752   8.087 -0.3939  0.3818  0.5851
  179SLPC  C31320508   1.673  -0.942   8.027  0.1544  0.0357 -0.3425
  179SLPC  H13X20509   1.578  -0.891   8.001  0.1804  1.8383  2.6739
  179SLPC  H13Y20510   1.650  -1.045   8.063  1.0528  0.0977  0.4177
  179SLPC  C31420511   1.768  -0.954   7.909  0.5842 -0.3120  0.8674
  179SLPC  H14X20512   1.847  -1.018   7.952  0.0924 -0.8248  1.0158
  179SLPC  H14Y20513   1.806  -0.855   7.874  2.9304 -1.7049 -0.8439
  179SLPC  C31520514   1.705  -1.039   7.801  0.3545  0.2719 -0.7538
  179SLPC  H15X20515   1.603  -0.998   7.789  0.0073 -0.0285  0.9451
  179SLPC  H15Y20516   1.701  -1.146   7.832  3.6315  0.6377  1.4070
  179SLPC  C31620517   1.769  -1.026   7.660 -0.0799  0.3914  0.0558
  179SLPC  H16X20518   1.878  -1.040   7.677 -0.3150 -0.9363  0.5970
  179SLPC  H16Y20519   1.744  -0.925   7.621  1.8685  0.6531 -0.6189
  179SLPC  C31720520   1.720  -1.139   7.560 -0.1442  0.3261  0.4918
  179SLPC  H17X20521   1.765  -1.236   7.591  2.7472  1.6090  0.6956
  179SLPC  H17Y20522   1.757  -1.114   7.458  0.2869 -0.2877  0.4939
  179SLPC  C31820523   1.561  -1.145   7.551 -0.6064  0.4983 -0.1385
  179SLPC  H18X20524   1.514  -1.148   7.651 -0.8169  0.9046 -0.2270
  179SLPC  H18Y20525   1.531  -1.236   7.495 -0.5523  1.2116 -1.3645
  179SLPC  H18Z20526   1.522  -1.057   7.496 -1.3719  1.0548  1.2703
  180SLPC     N20527   4.260   6.118  10.554  0.4135  0.0026 -0.8586
  180SLPC   C1320528   4.376   6.134  10.654  0.3000  0.5670 -0.3727
  180SLPC  H13A20529   4.344   6.114  10.755  2.6802  1.7356  0.6882
  180SLPC  H13B20530   4.456   6.065  10.630 -0.7708 -0.8995  0.0933
  180SLPC  H13C20531   4.423   6.230  10.646 -1.7822  1.7430  0.5886
  180SLPC   C1420532   4.156   6.222  10.590 -0.5603 -0.2031 -0.4527
  180SLPC  H14A20533   4.137   6.239  10.695  1.0487 -0.8764 -0.0270
  180SLPC  H14B20534   4.195   6.312  10.547  1.5279 -1.9289 -2.3885
  180SLPC  H14C20535   4.059   6.196  10.549 -0.8920 -1.3195  0.9485
  180SLPC   C1520536   4.205   5.977  10.578 -0.4098 -1.0924  0.6366
  180SLPC  H15A20537   4.144   5.953  10.492 -0.1495  0.0453  0.1143
  180SLPC  H15B20538   4.282   5.901  10.585  0.7788  0.0077 -0.0421
  180SLPC  H15C20539   4.144   5.972  10.667 -2.5079 -0.8492 -0.7072
  180SLPC   C1220540   4.322   6.133  10.417  0.3121 -0.6138 -0.2381
  180SLPC  H12A20541   4.406   6.067  10.403  0.5269  0.0332 -2.5637
  180SLPC  H12B20542   4.358   6.234  10.403  2.0915 -1.3498 -1.3717
  180SLPC   C1120543   4.219   6.108  10.298  0.3422 -0.2844 -0.2058
  180SLPC  H11A20544   4.255   6.141  10.198 -0.1979 -0.5028 -0.4754
  180SLPC  H11B20545   4.124   6.162  10.315  0.7876  0.9943 -1.5300
  180SLPC     P20546   4.289   5.868  10.225 -0.1648  0.0977 -0.3049
  180SLPC   O1320547   4.391   5.945  10.162 -0.5554  0.9381  0.3909
  180SLPC   O1420548   4.323   5.776  10.335 -0.1389  0.0982 -0.5106
  180SLPC   O1220549   4.185   5.970  10.284 -0.0613  0.7572 -0.2544
  180SLPC   O1120550   4.205   5.788  10.117 -0.4571 -1.0234 -0.0149
  180SLPC    C120551   4.135   5.866  10.013 -0.8961  0.8068 -0.2393
  180SLPC    HA20552   4.028   5.882  10.039 -0.8272 -0.1885  0.7279
  180SLPC    HB20553   4.182   5.965   9.992  0.9583  0.1553  0.6501
  180SLPC    C220554   4.132   5.784   9.888 -0.1013  0.0227 -0.5609
  180SLPC    HS20555   4.104   5.679   9.910  1.4379 -0.1379  0.8772
  180SLPC   O2120556   4.273   5.782   9.853 -0.0885  0.0663  0.1478
  180SLPC   C2120557   4.324   5.688   9.775 -0.9357  0.1966  0.8923
  180SLPC   O2220558   4.265   5.587   9.742  0.8807 -0.4780 -0.1423
  180SLPC   C2220559   4.471   5.730   9.737  0.2676  0.0320 -0.2559
  180SLPC   H2R20560   4.473   5.832   9.692 -1.0363  0.0802 -0.2644
  180SLPC   H2S20561   4.528   5.732   9.832  1.6633  0.5984 -1.0737
  180SLPC    C320562   4.050   5.860   9.779  0.3052  0.2113 -0.2042
  180SLPC    HX20563   4.094   5.957   9.751 -0.4349  0.1779 -1.5840
  180SLPC    HY20564   3.945   5.877   9.812  0.9088  1.0116  1.3700
  180SLPC   O3120565   4.055   5.785   9.659  0.4325 -0.3869  0.4824
  180SLPC   C3120566   3.976   5.678   9.652 -0.1507  0.2070 -0.0476
  180SLPC   O3220567   3.896   5.640   9.738 -0.6142 -0.1056  0.1678
  180SLPC   C3220568   3.998   5.624   9.517 -0.1162  0.1681 -0.1752
  180SLPC   H2X20569   4.104   5.591   9.508 -0.6760 -1.8635  0.0347
  180SLPC   H2Y20570   3.975   5.707   9.448 -0.7046 -0.0051 -0.1862
  180SLPC   C2320571   4.549   5.635   9.633  0.3656 -0.0361  0.3489
  180SLPC   H3R20572   4.575   5.541   9.688  3.9923  0.5973 -0.0963
  180SLPC   H3S20573   4.645   5.677   9.598  0.1745 -1.3588 -2.0031
  180SLPC   C2420574   4.461   5.596   9.508 -0.2563 -0.3131  0.1879
  180SLPC   H4R20575   4.417   5.680   9.451  1.7753 -0.2622 -1.4391
  180SLPC   H4S20576   4.370   5.538   9.535 -1.0184  0.3032 -0.9982
  180SLPC   C2520577   4.544   5.520   9.402  0.5281  0.1767 -0.2346
  180SLPC   H5R20578   4.599   5.428   9.433  0.4372 -0.5521 -2.1231
  180SLPC   H5S20579   4.624   5.591   9.374 -0.7432  1.5901 -0.3931
  180SLPC   C2620580   4.451   5.494   9.279  0.2238  0.0343  0.3420
  180SLPC   H6R20581   4.400   5.578   9.229  0.4784 -0.6917 -1.1949
  180SLPC   H6S20582   4.363   5.432   9.305  0.1052 -1.3428 -2.8880
  180SLPC   C2720583   4.531   5.429   9.165  0.7753  0.4359  0.0883
  180SLPC   H7R20584   4.607   5.375   9.224 -0.8812  0.5876  2.5183
  180SLPC   H7S20585   4.585   5.509   9.110  0.2176 -0.4867 -1.8935
  180SLPC   C2820586   4.436   5.352   9.073  0.1427 -0.0750 -0.3201
  180SLPC   H8R20587   4.350   5.309   9.129  0.9899  0.7438  1.7104
  180SLPC   H8S20588   4.490   5.266   9.028 -1.2039 -0.0547 -2.0762
  180SLPC   C2920589   4.372   5.446   8.969 -0.3132  0.2388 -0.2772
  180SLPC   H9R20590   4.294   5.508   9.016 -2.9151 -3.0245  0.1320
  180SLPC  C21020591   4.408   5.461   8.844 -0.5448 -0.3123 -0.0834
  180SLPC  H10R20592   4.361   5.529   8.773 -0.1112 -0.4519 -0.5099
  180SLPC  C21120593   4.520   5.388   8.768 -0.5346  0.1462 -0.0114
  180SLPC  H11R20594   4.590   5.342   8.841 -0.5426  1.3171  0.7761
  180SLPC  H11S20595   4.577   5.467   8.715  0.9506 -0.8525  0.0344
  180SLPC  C21220596   4.467   5.283   8.678 -0.5082 -0.0278 -0.1428
  180SLPC  H12R20597   4.422   5.197   8.731 -0.6893  1.6518  2.6622
  180SLPC  C21320598   4.471   5.285   8.544 -0.1635 -0.3411  0.3510
  180SLPC  H13R20599   4.434   5.194   8.494  0.3118 -1.1260  1.3853
  180SLPC  C21420600   4.532   5.398   8.453  0.0017  0.1550 -0.0471
  180SLPC  H14R20601   4.614   5.362   8.388  1.6551  0.4692  1.8041
  180SLPC  H14S20602   4.575   5.476   8.519 -0.8986  1.1112 -0.5425
  180SLPC  C21520603   4.417   5.469   8.378  0.3272 -0.6130 -0.2862
  180SLPC  H15R20604   4.448   5.568   8.337 -0.0452 -0.1817  0.4540
  180SLPC  H15S20605   4.347   5.499   8.459 -0.2343 -0.4841 -0.8177
  180SLPC  C21620606   4.344   5.386   8.270 -0.0563 -0.1292  0.3283
  180SLPC  H16R20607   4.307   5.289   8.310  0.6614 -0.6235 -0.1924
  180SLPC  H16S20608   4.414   5.364   8.186 -2.3093  1.0398 -2.0315
  180SLPC  C21720609   4.214   5.456   8.224 -0.3617  0.3469  0.0612
  180SLPC  H17R20610   4.234   5.556   8.179  1.2137 -1.0820 -2.6251
  180SLPC  H17S20611   4.158   5.466   8.320  0.4952 -0.1617  0.6300
  180SLPC  C21820612   4.128   5.368   8.126 -0.2782 -1.0320  0.6623
  180SLPC  H18R20613   4.017   5.380   8.127 -0.1529  0.3299  0.2097
  180SLPC  H18S20614   4.154   5.260   8.137 -0.2852 -1.2912 -1.4053
  180SLPC  H18T20615   4.167   5.394   8.026  2.7517 -1.7516  1.5613
  180SLPC   C3320616   3.911   5.499   9.482 -0.3793  0.1144 -0.2025
  180SLPC   H3X20617   3.803   5.518   9.499 -0.4191  0.7200 -1.0599
  180SLPC   H3Y20618   3.951   5.421   9.551  2.1722  1.4835  0.0092
  180SLPC   C3420619   3.946   5.459   9.335  0.0700 -0.1814  0.7917
  180SLPC   H4X20620   3.891   5.365   9.314  1.5912 -0.7477 -0.9156
  180SLPC   H4Y20621   4.054   5.433   9.335  0.3869  0.7621 -1.9972
  180SLPC   C3520622   3.919   5.565   9.224 -0.1868  0.3890  0.0937
  180SLPC   H5X20623   3.946   5.666   9.261  0.5557 -0.7031  2.8497
  180SLPC   H5Y20624   3.812   5.565   9.195 -0.7986  0.2184  2.1718
  180SLPC   C3620625   3.998   5.541   9.096 -0.4568 -0.4173 -0.2824
  180SLPC   H6X20626   4.104   5.540   9.127 -0.5516 -2.4024  0.0849
  180SLPC   H6Y20627   3.983   5.616   9.016  1.1683 -0.4915 -0.6795
  180SLPC   C3720628   3.958   5.412   9.028 -0.5767 -0.2273  0.0757
  180SLPC   H7X20629   3.847   5.404   9.032 -0.4522 -2.0002  1.3422
  180SLPC   H7Y20630   3.992   5.323   9.086 -1.4660 -1.4474 -1.1862
  180SLPC   C3820631   4.004   5.415   8.879  0.0372  0.3977 -0.3525
  180SLPC   H8X20632   4.113   5.437   8.870  0.7614 -2.1581  1.1144
  180SLPC   H8Y20633   3.953   5.501   8.831 -1.1596  0.4790  1.0000
  180SLPC   C3920634   3.966   5.289   8.803  0.6960  0.1081  1.3150
  180SLPC   H9X20635   3.856   5.293   8.791  0.9285 -1.7925 -3.1011
  180SLPC   H9Y20636   4.010   5.197   8.846  1.5390 -0.2755 -0.2967
  180SLPC  C31020637   4.018   5.298   8.660 -0.7403  0.0055 -0.3399
  180SLPC  H10X20638   4.126   5.316   8.677 -1.0539  0.1178  1.7732
  180SLPC  H10Y20639   3.976   5.376   8.593  2.5639  1.7730 -0.5913
  180SLPC  C31120640   3.995   5.163   8.594 -0.1668 -0.2703  0.2072
  180SLPC  H11X20641   3.885   5.150   8.595 -0.3213  0.9032 -0.0604
  180SLPC  H11Y20642   4.041   5.080   8.653  3.5177 -0.7687 -2.9712
  180SLPC  C31220643   4.059   5.153   8.455 -0.1446  0.3257  1.7684
  180SLPC  H12X20644   4.160   5.199   8.455  0.0157  0.2996 -1.9073
  180SLPC  H12Y20645   4.004   5.208   8.376 -0.8232 -2.0620  0.4762
  180SLPC  C31320646   4.087   5.010   8.400 -0.8079  0.0268 -0.4624
  180SLPC  H13X20647   4.100   4.938   8.483 -2.1591  0.3190  0.0368
  180SLPC  H13Y20648   4.177   5.008   8.335 -1.2409 -2.3828 -1.0778
  180SLPC  C31420649   3.979   4.942   8.314  0.7898 -0.3268  0.1220
  180SLPC  H14X20650   3.974   4.978   8.209 -0.2295 -2.0271 -0.4591
  180SLPC  H14Y20651   3.880   4.964   8.360  1.3637  0.5084  0.9876
  180SLPC  C31520652   3.990   4.781   8.304 -0.4072  0.0736 -0.2482
  180SLPC  H15X20653   3.956   4.728   8.396  0.5219  0.8629  0.5682
  180SLPC  H15Y20654   4.094   4.749   8.284 -0.8183 -2.2215  0.9572
  180SLPC  C31620655   3.909   4.721   8.190 -0.5255  0.3093 -0.1712
  180SLPC  H16X20656   3.911   4.610   8.188 -0.7027  0.2982  0.1148
  180SLPC  H16Y20657   3.946   4.760   8.093 -0.2224  1.9487  0.5764
  180SLPC  C31720658   3.757   4.753   8.194 -1.0254  0.0967  0.0664
  180SLPC  H17X20659   3.753   4.861   8.220  0.8454 -0.6125  4.3403
  180SLPC  H17Y20660   3.729   4.712   8.294  1.6084 -1.5824  0.2258
  180SLPC  C31820661   3.673   4.703   8.076 -0.0980  0.6755  0.3849
  180SLPC  H18X20662   3.563   4.713   8.092  0.3450  1.1579  4.2990
  180SLPC  H18Y20663   3.687   4.593   8.076  1.5828  0.8441  1.5137
  180SLPC  H18Z20664   3.703   4.747   7.979 -0.0285  4.0493  1.7819
  181SLPC     N20665   6.221   1.194  10.962 -0.4207  0.2920 -0.3629
  181SLPC   C1320666   6.168   1.268  11.084  0.5403  0.2593 -0.2912
  181SLPC  H13A20667   6.178   1.374  11.070  1.1228  0.3469  0.7194
  181SLPC  H13B20668   6.063   1.256  11.102  0.1246  1.6996 -1.5632
  181SLPC  H13C20669   6.230   1.238  11.167 -0.7701 -3.1929 -0.3786
  181SLPC   C1420670   6.207   1.052  10.991  0.2271  0.4262 -0.7952
  181SLPC  H14A20671   6.249   1.022  11.085  0.7953 -1.8157 -1.6956
  181SLPC  H14B20672   6.104   1.020  10.978  1.0980 -2.2978 -1.7364
  181SLPC  H14C20673   6.259   0.982  10.927 -1.4773 -0.0325 -1.7670
  181SLPC   C1520674   6.367   1.231  10.946  0.0001 -0.1276 -0.1521
  181SLPC  H15A20675   6.386   1.337  10.939 -0.2629  0.0094  1.0277
  181SLPC  H15B20676   6.435   1.192  11.020  0.9263  1.2030 -0.2506
  181SLPC  H15C20677   6.407   1.192  10.853  2.9320  0.1825  0.8750
  181SLPC   C1220678   6.158   1.240  10.834 -0.4246  0.2034  0.4985
  181SLPC  H12A20679   6.179   1.344  10.818  0.3657 -0.0526 -0.1887
  181SLPC  H12B20680   6.050   1.239  10.843 -0.6704 -1.9985 -1.5741
  181SLPC   C1120681   6.194   1.175  10.696 -0.1520 -0.0554 -0.3521
  181SLPC  H11A20682   6.115   1.212  10.627 -0.5918  0.2407  0.3071
  181SLPC  H11B20683   6.186   1.064  10.693  1.0285 -0.2229  1.3153
  181SLPC     P20684   6.345   1.359  10.587  0.1429  0.0294 -0.0315
  181SLPC   O1320685   6.301   1.451  10.692 -0.1873 -0.0570 -0.5351
  181SLPC   O1420686   6.485   1.379  10.541 -0.0887  0.5430 -0.2615
  181SLPC   O1220687   6.321   1.217  10.653 -0.0015 -0.2426  0.3732
  181SLPC   O1120688   6.243   1.357  10.466 -0.3159  0.6391 -0.0780
  181SLPC    C120689   6.252   1.245  10.377  0.1742  0.0883 -0.0962
  181SLPC    HA20690   6.347   1.189  10.383 -0.8668 -1.9699 -1.6734
  181SLPC    HB20691   6.173   1.175  10.411 -0.8716 -0.4149 -3.2364
  181SLPC    C220692   6.224   1.270  10.221  0.4203  0.5743 -0.5430
  181SLPC    HS20693   6.324   1.298  10.181 -1.2640  1.5418 -4.6726
  181SLPC   O2120694   6.130   1.374  10.199 -0.0620 -0.2435 -0.3278
  181SLPC   C2120695   6.148   1.422  10.075  0.5198 -0.5846  0.0062
  181SLPC   O2220696   6.234   1.402  10.001  0.0484  0.4868  0.1790
  181SLPC   C2220697   6.025   1.526  10.056 -0.1902  0.4183  0.3777
  181SLPC   H2R20698   5.935   1.486  10.107 -0.1122  0.2111  0.3529
  181SLPC   H2S20699   6.066   1.617  10.104 -0.3693 -0.0413  1.4294
  181SLPC    C320700   6.188   1.129  10.163 -0.6066 -0.6873 -0.2034
  181SLPC    HX20701   6.091   1.110  10.214 -3.1621  2.4610 -3.3806
  181SLPC    HY20702   6.262   1.050  10.187 -1.7885 -1.5429  0.7735
  181SLPC   O3120703   6.163   1.126  10.023 -0.1317  0.7433  0.1023
  181SLPC   C3120704   6.265   1.101   9.941 -0.1632 -0.7210  0.3615
  181SLPC   O3220705   6.376   1.074   9.977 -0.5527 -0.0015 -0.6520
  181SLPC   C3220706   6.231   1.118   9.793 -0.0968 -0.4363  0.4141
  181SLPC   H2X20707   6.295   1.200   9.754  0.9276 -1.5225 -0.2722
  181SLPC   H2Y20708   6.123   1.139   9.780 -0.9745 -3.5706  1.5371
  181SLPC   C2320709   5.981   1.565   9.908  0.4924 -0.1257  0.1125
  181SLPC   H3R20710   6.059   1.609   9.841  0.9587 -0.3581  0.4926
  181SLPC   H3S20711   5.909   1.648   9.919  0.5405 -0.2108  1.2100
  181SLPC   C2420712   5.904   1.452   9.831  0.1545 -0.3911  0.4023
  181SLPC   H4R20713   5.828   1.419   9.905  0.5613 -2.6498 -0.1178
  181SLPC   H4S20714   5.973   1.367   9.814  0.5662 -0.3269  1.6401
  181SLPC   C2520715   5.820   1.500   9.711  0.0855 -0.0397  0.8280
  181SLPC   H5R20716   5.754   1.585   9.740  1.3217  1.2894 -0.1780
  181SLPC   H5S20717   5.737   1.432   9.682 -1.2658  2.1270 -0.7144
  181SLPC   C2620718   5.906   1.533   9.587 -0.3607 -0.5742 -0.5877
  181SLPC   H6R20719   5.991   1.465   9.567  0.3467  0.5274 -1.3974
  181SLPC   H6S20720   5.944   1.629   9.628  0.8096 -1.1444 -0.3011
  181SLPC   C2720721   5.821   1.555   9.463 -0.0007  0.3995  0.0556
  181SLPC   H7R20722   5.899   1.592   9.393  0.4069 -2.1787 -0.9778
  181SLPC   H7S20723   5.742   1.632   9.479 -1.5516 -1.1747  0.3000
  181SLPC   C2820724   5.753   1.424   9.406 -0.4655 -0.1972  0.3510
  181SLPC   H8R20725   5.691   1.467   9.324 -0.1474 -0.4098 -0.0017
  181SLPC   H8S20726   5.683   1.371   9.474  1.4055 -1.0345  1.6922
  181SLPC   C2920727   5.847   1.318   9.361  0.8313  0.4876  0.0008
  181SLPC   H9R20728   5.919   1.284   9.437  1.5091 -0.1560 -0.9020
  181SLPC  C21020729   5.837   1.258   9.238  0.1197 -0.5843  0.3663
  181SLPC  H10R20730   5.882   1.159   9.219 -1.5234 -1.0609 -1.4798
  181SLPC  C21120731   5.752   1.299   9.119  0.4170 -1.2513 -0.5501
  181SLPC  H11R20732   5.658   1.350   9.149  1.2669  1.0700 -1.5557
  181SLPC  H11S20733   5.706   1.213   9.066 -2.8939  0.5957 -0.9744
  181SLPC  C21220734   5.813   1.392   9.013  0.0394  0.1834  0.1601
  181SLPC  H12R20735   5.825   1.492   9.055  1.1245 -0.6427  1.9236
  181SLPC  C21320736   5.871   1.365   8.895  0.4377  0.0486 -0.6983
  181SLPC  H13R20737   5.880   1.447   8.822  0.3828  0.6744 -0.0147
  181SLPC  C21420738   5.874   1.227   8.841 -0.0349 -0.0641 -0.0878
  181SLPC  H14R20739   5.894   1.144   8.911 -1.6109 -0.4837 -0.1034
  181SLPC  H14S20740   5.956   1.227   8.765  1.9787  2.2061  1.9194
  181SLPC  C21520741   5.738   1.178   8.771 -0.3129 -0.8581 -0.6037
  181SLPC  H15R20742   5.666   1.146   8.849 -2.0678  0.8846 -1.3946
  181SLPC  H15S20743   5.761   1.078   8.728  1.3388 -0.9805  0.5078
  181SLPC  C21620744   5.674   1.279   8.682 -0.0146 -0.0253  0.1274
  181SLPC  H16R20745   5.738   1.301   8.595 -2.4724  0.3525 -1.6931
  181SLPC  H16S20746   5.654   1.370   8.742  1.8491 -0.5019  1.5721
  181SLPC  C21720747   5.541   1.231   8.628 -0.1780  0.5176  0.1106
  181SLPC  H17R20748   5.467   1.241   8.710  1.6861  2.1928  1.6890
  181SLPC  H17S20749   5.556   1.123   8.605 -3.0234  0.0379  0.1617
  181SLPC  C21820750   5.500   1.299   8.502 -0.0270 -0.5172 -0.4968
  181SLPC  H18R20751   5.500   1.410   8.510 -1.0837 -0.6267  1.8962
  181SLPC  H18S20752   5.398   1.273   8.465 -0.9577  1.6685  0.3490
  181SLPC  H18T20753   5.581   1.278   8.428  1.1123  1.5032  0.0856
  181SLPC   C3320754   6.266   0.988   9.727  0.2746 -0.2600  0.0089
  181SLPC   H3X20755   6.215   0.908   9.785  0.8060  0.1329  1.0437
  181SLPC   H3Y20756   6.370   0.953   9.744 -0.3211 -1.6430  0.9710
  181SLPC   C3420757   6.229   0.977   9.578  0.2156 -0.7308 -0.6000
  181SLPC   H4X20758   6.235   0.869   9.552 -0.9839 -0.6672 -1.1810
  181SLPC   H4Y20759   6.293   1.026   9.501  1.5225  1.5493  1.7818
  181SLPC   C3520760   6.078   0.994   9.551 -0.2008 -0.6340 -0.9553
  181SLPC   H5X20761   6.051   1.098   9.523  0.0334 -0.3405 -0.1353
  181SLPC   H5Y20762   6.025   0.958   9.642 -0.3915 -1.9668 -1.5750
  181SLPC   C3620763   6.034   0.916   9.433 -0.3255 -0.3816 -0.1457
  181SLPC   H6X20764   5.924   0.924   9.420 -0.2349  0.0299 -0.6945
  181SLPC   H6Y20765   6.061   0.812   9.462  1.7054  0.5098  1.4546
  181SLPC   C3720766   6.102   0.939   9.296  0.0194 -0.0177  0.1908
  181SLPC   H7X20767   6.208   0.904   9.300  0.2654 -0.0158 -3.4779
  181SLPC   H7Y20768   6.093   1.049   9.283  1.7079 -0.2001 -4.3037
  181SLPC   C3820769   6.024   0.869   9.180  0.2645  0.0531 -0.1301
  181SLPC   H8X20770   5.914   0.874   9.198  0.2399 -1.8788  0.4937
  181SLPC   H8Y20771   6.060   0.764   9.173  1.4709  0.5154 -1.3631
  181SLPC   C3920772   6.068   0.917   9.044  0.8722  0.0291  0.4831
  181SLPC   H9X20773   6.175   0.897   9.024  0.2724 -2.0547 -0.9728
  181SLPC   H9Y20774   6.055   1.026   9.057  0.1192 -0.0005  0.0248
  181SLPC  C31020775   5.971   0.855   8.944 -0.2292  0.8151  0.4097
  181SLPC  H10X20776   5.872   0.895   8.975 -2.5735 -1.1243 -3.7456
  181SLPC  H10Y20777   5.957   0.746   8.954 -0.1492  0.6367 -1.1853
  181SLPC  C31120778   6.008   0.882   8.796 -0.4527  0.2593  0.4326
  181SLPC  H11X20779   6.115   0.861   8.778 -0.9080 -1.0330 -0.8728
  181SLPC  H11Y20780   5.982   0.988   8.776 -1.0707 -0.3005 -1.9679
  181SLPC  C31220781   5.926   0.786   8.704  0.1482  0.3371 -0.2736
  181SLPC  H12X20782   5.817   0.803   8.718  0.0949 -0.2526  0.0642
  181SLPC  H12Y20783   5.950   0.681   8.730 -0.5672 -0.2860 -2.0118
  181SLPC  C31320784   5.951   0.813   8.554 -0.2149  0.6869  0.3558
  181SLPC  H13X20785   6.055   0.782   8.530  0.2206  1.9428  0.5037
  181SLPC  H13Y20786   5.942   0.923   8.539 -0.5327  0.9657  2.2819
  181SLPC  C31420787   5.853   0.729   8.471 -0.3795  0.1558 -0.6058
  181SLPC  H14X20788   5.864   0.622   8.500  0.4296  0.7089  1.3216
  181SLPC  H14Y20789   5.892   0.741   8.368 -0.5922 -2.3076 -1.0216
  181SLPC  C31520790   5.702   0.756   8.480 -0.2662 -0.9674  0.7185
  181SLPC  H15X20791   5.654   0.725   8.575 -2.1927 -1.4436 -0.3448
  181SLPC  H15Y20792   5.656   0.699   8.396 -0.4844 -0.0135  0.1744
  181SLPC  C31620793   5.663   0.895   8.439  0.2875 -0.4774 -0.1402
  181SLPC  H16X20794   5.699   0.969   8.513 -0.8568 -1.9416  1.9771
  181SLPC  H16Y20795   5.553   0.912   8.439  0.3988  0.5512  1.8430
  181SLPC  C31720796   5.720   0.937   8.299  0.3291  0.3724 -0.3294
  181SLPC  H17X20797   5.699   0.862   8.220 -1.5034 -0.0749  0.5344
  181SLPC  H17Y20798   5.830   0.949   8.312  0.2778 -0.0328  0.5326
  181SLPC  C31820799   5.669   1.075   8.244  0.6724  0.0046  0.5188
  181SLPC  H18X20800   5.558   1.066   8.237  0.3461  2.6116  1.3218
  181SLPC  H18Y20801   5.695   1.092   8.138  0.1017 -1.8286  0.0403
  181SLPC  H18Z20802   5.694   1.155   8.317  0.9416 -0.3314  0.7979
  182SLPC     N20803   5.441   1.426  10.763 -0.0553 -0.2136 -0.5630
  182SLPC   C1320804   5.509   1.364  10.654  0.0569 -0.1610 -0.1082
  182SLPC  H13A20805   5.561   1.276  10.688 -0.4220  0.3255  1.9896
  182SLPC  H13B20806   5.438   1.335  10.577 -0.9584  0.7858  0.4492
  182SLPC  H13C20807   5.584   1.431  10.615  0.4922  0.6142  1.9614
  182SLPC   C1420808   5.547   1.457  10.870  0.8318  0.2258  0.3380
  182SLPC  H14A20809   5.617   1.376  10.885  0.5449  0.3653  2.7086
  182SLPC  H14B20810   5.619   1.529  10.833 -0.1759 -0.1052 -2.5529
  182SLPC  H14C20811   5.504   1.475  10.967 -1.1802 -1.7142 -0.1084
  182SLPC   C1520812   5.337   1.334  10.828  0.1108 -0.3208  0.0687
  182SLPC  H15A20813   5.332   1.355  10.934  2.3157  0.5190  0.0697
  182SLPC  H15B20814   5.240   1.358  10.787  1.1356  1.3081 -1.5546
  182SLPC  H15C20815   5.351   1.230  10.803  0.7794 -0.0717 -0.6499
  182SLPC   C1220816   5.380   1.565  10.722 -0.0213  0.0797  0.4130
  182SLPC  H12A20817   5.451   1.638  10.687  2.0001 -0.4186  3.1576
  182SLPC  H12B20818   5.338   1.614  10.809  0.6018 -0.1673  0.8549
  182SLPC   C1120819   5.266   1.561  10.615  0.0738 -0.3932  0.4500
  182SLPC  H11A20820   5.285   1.485  10.537 -0.6068 -1.3977  1.2255
  182SLPC  H11B20821   5.254   1.662  10.571  0.7402  0.1562  1.4746
  182SLPC     P20822   5.035   1.633  10.709  0.5202  0.2459  0.4363
  182SLPC   O1320823   4.936   1.571  10.795  0.6125  0.1137 -0.4780
  182SLPC   O1420824   5.095   1.757  10.763  0.4820 -0.5866  0.0760
  182SLPC   O1220825   5.141   1.519  10.672 -0.1842  0.3797 -0.2620
  182SLPC   O1120826   4.957   1.660  10.577 -0.2366 -0.1653  0.0754
  182SLPC    C120827   4.966   1.568  10.468 -0.4886 -0.1606 -0.0026
  182SLPC    HA20828   5.064   1.581  10.418 -0.5891 -2.8641 -1.0805
  182SLPC    HB20829   4.961   1.462  10.501  1.8186 -1.0551 -2.2453
  182SLPC    C220830   4.851   1.593  10.366 -0.6064 -0.2806 -0.2169
  182SLPC    HS20831   4.818   1.492  10.334 -0.1269 -0.8500  1.0327
  182SLPC   O2120832   4.872   1.678  10.254  0.5619  0.6471 -0.6023
  182SLPC   C2120833   4.966   1.633  10.170  0.2382 -0.3177  0.5738
  182SLPC   O2220834   5.026   1.527  10.188  0.5473  0.3034  0.3672
  182SLPC   C2220835   4.989   1.713  10.044  0.0848 -0.7278 -0.4756
  182SLPC   H2R20836   5.073   1.783  10.061  0.5187 -1.5833  1.1154
  182SLPC   H2S20837   5.010   1.645   9.959  0.2620  0.0149 -1.0339
  182SLPC    C320838   4.723   1.651  10.439 -0.1726  0.8276  0.8811
  182SLPC    HX20839   4.740   1.746  10.495 -2.6741  0.1898  2.9479
  182SLPC    HY20840   4.703   1.578  10.520  2.2739 -0.1581  0.6781
  182SLPC   O3120841   4.610   1.671  10.350  0.2893  0.1465  0.0755
  182SLPC   C3120842   4.547   1.782  10.342  0.2546 -0.8878 -0.1979
  182SLPC   O3220843   4.554   1.878  10.417 -0.1089  0.2692 -1.2556
  182SLPC   C3220844   4.455   1.784  10.221  0.6788  0.6186 -0.4422
  182SLPC   H2X20845   4.348   1.800  10.246  0.8984  1.1618  0.1849
  182SLPC   H2Y20846   4.466   1.688  10.167  0.6018  0.1656  0.3361
  182SLPC   C2320847   4.871   1.807   9.996 -0.1288 -0.6144  0.4879
  182SLPC   H3R20848   4.867   1.895  10.063 -0.0652  1.6256 -2.2522
  182SLPC   H3S20849   4.771   1.757   9.995  0.5281 -1.9821 -0.1196
  182SLPC   C2420850   4.899   1.877   9.860  0.4618  0.6444 -0.2505
  182SLPC   H4R20851   4.991   1.940   9.864 -1.0401  2.8954  1.5029
  182SLPC   H4S20852   4.821   1.954   9.840 -0.9216 -0.1892  1.6465
  182SLPC   C2520853   4.882   1.781   9.744  0.1513 -0.0577  0.3887
  182SLPC   H5R20854   4.787   1.726   9.765  0.4498 -0.1905  1.4111
  182SLPC   H5S20855   4.953   1.696   9.750 -1.7578 -1.6451  2.1899
  182SLPC   C2620856   4.875   1.849   9.599  0.1483  0.4459 -0.1667
  182SLPC   H6R20857   4.977   1.881   9.572 -0.9461  1.6120 -3.4981
  182SLPC   H6S20858   4.829   1.950   9.610 -0.3259  0.1277  0.8395
  182SLPC   C2720859   4.817   1.767   9.478  0.1963  0.3303 -0.1056
  182SLPC   H7R20860   4.717   1.722   9.499 -0.6545  1.6706 -1.1599
  182SLPC   H7S20861   4.878   1.679   9.448 -0.3035 -0.3464  0.7909
  182SLPC   C2820862   4.773   1.858   9.367 -0.3060  0.1155 -0.5179
  182SLPC   H8R20863   4.712   1.944   9.403 -0.1401  0.6756 -1.5133
  182SLPC   H8S20864   4.707   1.797   9.301 -0.3054  0.3108 -0.7014
  182SLPC   C2920865   4.883   1.934   9.295  0.5576  0.8006 -0.7620
  182SLPC   H9R20866   4.944   1.999   9.359  1.2937 -0.0191 -0.6076
  182SLPC  C21020867   4.901   1.940   9.165  0.0918  0.0592  0.0011
  182SLPC  H10R20868   4.980   2.004   9.124 -0.6766  0.1997 -1.3209
  182SLPC  C21120869   4.825   1.876   9.050 -0.2382  0.3845  0.3170
  182SLPC  H11R20870   4.753   1.953   9.014 -1.0641 -0.9509 -0.9872
  182SLPC  H11S20871   4.768   1.788   9.085  0.7150 -1.3830 -2.3115
  182SLPC  C21220872   4.917   1.841   8.935 -0.7403  0.1792 -0.1749
  182SLPC  H12R20873   4.953   1.737   8.924 -0.6709  0.0557  1.0751
  182SLPC  C21320874   4.974   1.918   8.845 -0.1453  0.2467 -0.1514
  182SLPC  H13R20875   5.048   1.879   8.774 -1.6229 -1.8697 -0.6246
  182SLPC  C21420876   4.954   2.070   8.828 -0.6569 -0.1945  0.5031
  182SLPC  H14R20877   5.050   2.125   8.837  0.2606 -1.7049  0.3598
  182SLPC  H14S20878   4.883   2.114   8.900 -1.1419 -0.2516  0.0696
  182SLPC  C21520879   4.914   2.095   8.678 -0.6965  0.3348  0.3990
  182SLPC  H15R20880   4.850   2.013   8.639 -2.1566  1.1972  0.8927
  182SLPC  H15S20881   5.005   2.098   8.615 -2.1209  2.7705 -1.7517
  182SLPC  C21620882   4.835   2.230   8.664 -0.3951  0.7024  0.3624
  182SLPC  H16R20883   4.899   2.317   8.690  3.1462 -1.3800 -0.6073
  182SLPC  H16S20884   4.749   2.216   8.733  0.0852 -0.4480  0.7656
  182SLPC  C21720885   4.770   2.227   8.525 -0.3139 -0.2114  0.2264
  182SLPC  H17R20886   4.677   2.166   8.526 -0.2160 -0.3507  0.8081
  182SLPC  H17S20887   4.836   2.196   8.441 -2.9209 -0.3779 -1.8771
  182SLPC  C21820888   4.717   2.372   8.500 -0.4512 -0.3639  0.5794
  182SLPC  H18R20889   4.708   2.380   8.390 -1.7586 -1.0079  0.6288
  182SLPC  H18S20890   4.793   2.448   8.530  0.0030 -0.7976  0.5510
  182SLPC  H18T20891   4.616   2.403   8.534 -1.0370  0.4480 -1.6976
  182SLPC   C3320892   4.475   1.908  10.117  0.5662 -0.3031 -0.5113
  182SLPC   H3X20893   4.584   1.927  10.112  0.6322 -0.6093 -0.2802
  182SLPC   H3Y20894   4.425   1.993  10.169 -0.0246 -1.8650  1.6321
  182SLPC   C3420895   4.426   1.866   9.979 -0.1201 -0.3379  0.1564
  182SLPC   H4X20896   4.316   1.869   9.989 -0.0673  0.2457  0.5830
  182SLPC   H4Y20897   4.449   1.758   9.967 -1.2211 -1.2361  4.4467
  182SLPC   C3520898   4.487   1.934   9.854  0.3762 -0.0255  0.4615
  182SLPC   H5X20899   4.593   1.900   9.852  0.5368  0.4473  0.6428
  182SLPC   H5Y20900   4.482   2.041   9.885 -0.5838 -0.5931  2.4592
  182SLPC   C3620901   4.416   1.916   9.719  0.2173  0.4492  0.3749
  182SLPC   H6X20902   4.307   1.936   9.726  0.1092  0.2395 -0.5936
  182SLPC   H6Y20903   4.423   1.808   9.694 -1.5070 -0.2675  2.6396
  182SLPC   C3720904   4.476   1.992   9.598  0.2325  0.8234  0.1816
  182SLPC   H7X20905   4.569   1.942   9.564  0.7863  2.6177 -1.0709
  182SLPC   H7Y20906   4.490   2.100   9.620  1.0074  0.7025  0.2851
  182SLPC   C3820907   4.376   1.997   9.481 -0.2639  0.1944 -0.5050
  182SLPC   H8X20908   4.275   2.029   9.516 -0.1907  0.4532 -0.5217
  182SLPC   H8Y20909   4.383   1.892   9.447 -0.4980 -0.7595  2.1180
  182SLPC   C3920910   4.426   2.097   9.380  0.1247  0.3695  0.3246
  182SLPC   H9X20911   4.519   2.157   9.392  0.5182  0.0912 -1.2067
  182SLPC   H9Y20912   4.349   2.176   9.365 -0.4687 -0.2921 -0.1770
  182SLPC  C31020913   4.426   2.030   9.243  0.3590  0.7578  0.2790
  182SLPC  H10X20914   4.339   1.962   9.232  0.1415  1.2416 -1.2033
  182SLPC  H10Y20915   4.521   1.976   9.222 -0.8687 -1.4367  0.0571
  182SLPC  C31120916   4.426   2.139   9.138  0.4891 -0.2218 -0.3895
  182SLPC  H11X20917   4.512   2.209   9.147  0.7957 -0.4494 -1.3558
  182SLPC  H11Y20918   4.333   2.198   9.148  0.1248 -0.8095 -0.2229
  182SLPC  C31220919   4.429   2.068   9.003  0.3620 -0.0144  0.2820
  182SLPC  H12X20920   4.331   2.015   8.998 -0.3208  1.2804 -0.5863
  182SLPC  H12Y20921   4.517   2.000   8.996  0.5929  0.3388 -0.3251
  182SLPC  C31320922   4.423   2.159   8.885  0.2231  0.3767  0.2113
  182SLPC  H13X20923   4.502   2.237   8.889 -0.1039  0.6881  0.7806
  182SLPC  H13Y20924   4.326   2.213   8.891 -0.2121 -0.4039  0.2383
  182SLPC  C31420925   4.413   2.102   8.741  0.8881  0.1975 -0.2018
  182SLPC  H14X20926   4.331   2.028   8.751 -0.8304  1.9824 -0.2989
  182SLPC  H14Y20927   4.502   2.042   8.713  1.4477  0.4112  1.0409
  182SLPC  C31520928   4.374   2.196   8.628  0.2223 -0.0173  0.1165
  182SLPC  H15X20929   4.469   2.242   8.594  0.8981 -0.0950  1.8183
  182SLPC  H15Y20930   4.329   2.282   8.681 -0.0936  0.1019 -0.3461
  182SLPC  C31620931   4.286   2.132   8.521  0.0202 -0.1040  0.1399
  182SLPC  H16X20932   4.204   2.069   8.562 -0.7643  1.4330  0.9974
  182SLPC  H16Y20933   4.337   2.057   8.456  0.8025  2.2267 -2.1160
  182SLPC  C31720934   4.246   2.243   8.420  0.1648 -0.6829  0.5813
  182SLPC  H17X20935   4.245   2.336   8.480 -0.0031 -0.4912  0.2815
  182SLPC  H17Y20936   4.144   2.224   8.380  1.0204 -1.4326 -1.4245
  182SLPC  C31820937   4.348   2.253   8.307 -0.3624  0.6781  0.0061
  182SLPC  H18X20938   4.306   2.320   8.230  0.3501  0.2243 -0.7924
  182SLPC  H18Y20939   4.368   2.156   8.256 -0.8223 -0.4401  1.8192
  182SLPC  H18Z20940   4.443   2.300   8.339 -0.7378  1.1274  0.4788
  183SLPC     N20941   4.975   3.211  10.895 -0.4494  0.4375 -0.5812
  183SLPC   C1320942   4.868   3.187  10.985  0.5029  0.9706  0.0937
  183SLPC  H13A20943   4.781   3.151  10.931 -0.4947  3.7732 -0.3357
  183SLPC  H13B20944   4.891   3.112  11.059  0.2378 -0.6765 -1.4435
  183SLPC  H13C20945   4.832   3.274  11.038 -1.8141  0.7539 -1.0030
  183SLPC   C1420946   4.988   3.086  10.817 -0.4443 -0.2359  0.1528
  183SLPC  H14A20947   5.040   3.099  10.723 -1.7809  0.5012 -0.5177
  183SLPC  H14B20948   5.028   3.004  10.875  0.2364 -1.5585 -2.0732
  183SLPC  H14C20949   4.899   3.046  10.771 -0.4919 -1.8080  1.5232
  183SLPC   C1520950   5.101   3.235  10.982  0.4063 -0.3787 -0.1616
  183SLPC  H15A20951   5.170   3.280  10.911 -0.6336  0.1085 -0.8843
  183SLPC  H15B20952   5.090   3.296  11.070  0.7043 -2.3030  1.2809
  183SLPC  H15C20953   5.147   3.145  11.019 -1.1958 -0.6503  1.2696
  183SLPC   C1220954   4.946   3.327  10.799  0.0456  0.3075 -0.3618
  183SLPC  H12A20955   4.932   3.405  10.872  0.6075 -1.9341  2.2873
  183SLPC  H12B20956   4.851   3.315  10.749 -1.1909  1.1901  1.6754
  183SLPC   C1120957   5.058   3.370  10.701  0.0678  1.0665 -0.6314
  183SLPC  H11A20958   5.021   3.455  10.639 -0.0763 -0.1464 -2.2567
  183SLPC  H11B20959   5.079   3.282  10.637  0.2980 -2.3861  3.7366
  183SLPC     P20960   5.311   3.439  10.705 -0.2700  0.1146 -0.0505
  183SLPC   O1320961   5.394   3.545  10.772 -0.3631  0.2888  0.4758
  183SLPC   O1420962   5.374   3.303  10.689  0.2788 -0.6185 -0.1650
  183SLPC   O1220963   5.176   3.411  10.777  0.2910 -0.3097 -0.3140
  183SLPC   O1120964   5.273   3.501  10.566  0.1613 -0.5191  0.5035
  183SLPC    C120965   5.304   3.443  10.441 -0.2850  0.0228  0.1576
  183SLPC    HA20966   5.372   3.356  10.450  1.2892  1.3022  1.3934
  183SLPC    HB20967   5.214   3.415  10.383 -0.6061  1.0344  0.1398
  183SLPC    C220968   5.382   3.536  10.345  0.5964  0.7529 -0.2976
  183SLPC    HS20969   5.465   3.579  10.406  0.1708  1.9560 -0.5388
  183SLPC   O2120970   5.295   3.644  10.299 -0.0089  0.6298 -0.7917
  183SLPC   C2120971   5.362   3.749  10.249  0.0850 -0.1771  0.2462
  183SLPC   O2220972   5.480   3.768  10.243 -0.0075 -0.0245  0.2742
  183SLPC   C2220973   5.266   3.842  10.186  0.8326 -0.1198 -0.4099
  183SLPC   H2R20974   5.163   3.826  10.225  0.6895  1.0776 -0.2377
  183SLPC   H2S20975   5.303   3.944  10.211  3.7295 -0.4459 -2.7638
  183SLPC    C320976   5.443   3.460  10.225 -0.7260  0.6318 -0.5439
  183SLPC    HX20977   5.519   3.392  10.269 -0.6529  2.3784  2.2997
  183SLPC    HY20978   5.492   3.526  10.150 -0.9210 -0.8407 -2.0268
  183SLPC   O3120979   5.341   3.396  10.149 -0.4433  0.1213 -0.0057
  183SLPC   C3120980   5.365   3.346  10.031  0.9550  0.2421  0.5185
  183SLPC   O3220981   5.471   3.347   9.975 -0.3670 -0.1623  0.3338
  183SLPC   C3220982   5.231   3.320   9.954 -0.0192  0.1799 -0.0665
  183SLPC   H2X20983   5.205   3.409   9.893  0.0661  1.3425  1.5300
  183SLPC   H2Y20984   5.147   3.301  10.024  0.7095 -0.1689  0.7339
  183SLPC   C2320985   5.244   3.841  10.035 -0.3093  0.2627 -0.1678
  183SLPC   H3R20986   5.169   3.918  10.007 -1.9572 -1.2178 -0.0141
  183SLPC   H3S20987   5.196   3.748   9.997 -1.8323  1.2252 -0.6746
  183SLPC   C2420988   5.377   3.866   9.969 -1.2129  0.6430 -0.4221
  183SLPC   H4R20989   5.464   3.807  10.005 -1.5961  1.2493  1.6618
  183SLPC   H4S20990   5.403   3.971   9.995  0.9331 -0.1973  1.1457
  183SLPC   C2520991   5.369   3.848   9.819  0.3886 -0.4683  0.6168
  183SLPC   H5R20992   5.438   3.907   9.756 -1.2038  0.5296 -0.2682
  183SLPC   H5S20993   5.268   3.889   9.795  0.2304 -0.4829  1.2337
  183SLPC   C2620994   5.360   3.701   9.770  0.3144 -0.7929  0.6007
  183SLPC   H6R20995   5.267   3.653   9.809 -0.5907  1.5791  1.5557
  183SLPC   H6S20996   5.448   3.657   9.822  1.5601  1.9791  1.0299
  183SLPC   C2720997   5.351   3.684   9.624  0.0076  0.7234  0.5772
  183SLPC   H7R20998   5.431   3.745   9.577 -0.0163 -1.2533 -2.2738
  183SLPC   H7S20999   5.255   3.732   9.595  1.0040  1.5896 -1.5176
  183SLPC   C2821000   5.364   3.541   9.582  0.0933  0.1833 -0.4213
  183SLPC   H8R21001   5.365   3.540   9.470  0.2448 -0.7529 -0.4177
  183SLPC   H8S21002   5.276   3.487   9.621  1.4092 -1.5137  0.3249
  183SLPC   C2921003   5.483   3.464   9.622  0.0932  0.0725 -0.0968
  183SLPC   H9R21004   5.488   3.448   9.730  0.4736 -2.6517 -0.4278
  183SLPC  C21021005   5.585   3.405   9.556  0.3724 -0.1079  0.9352
  183SLPC  H10R21006   5.660   3.344   9.607  1.5437  0.1237 -0.4413
  183SLPC  C21121007   5.608   3.397   9.407  0.1865  0.3639  0.0444
  183SLPC  H11R21008   5.510   3.422   9.361 -0.4174 -1.8062  0.0388
  183SLPC  H11S21009   5.613   3.288   9.386 -1.1529 -0.1192  2.0062
  183SLPC  C21221010   5.715   3.488   9.355 -0.2688  0.2571 -0.1608
  183SLPC  H12R21011   5.758   3.558   9.428 -0.4606  0.2433 -0.0336
  183SLPC  C21321012   5.763   3.485   9.228  0.4439  0.2253  0.2218
  183SLPC  H13R21013   5.838   3.563   9.208 -0.3975  0.8318 -0.6231
  183SLPC  C21421014   5.729   3.381   9.126  0.5676  0.0269 -0.1485
  183SLPC  H14R21015   5.695   3.285   9.170 -0.3457  0.1428 -0.5837
  183SLPC  H14S21016   5.817   3.353   9.064  1.0814  0.8290  0.1966
  183SLPC  C21521017   5.622   3.433   9.030  0.2570  0.0543  0.5142
  183SLPC  H15R21018   5.679   3.478   8.946  1.8692 -2.1827  0.2942
  183SLPC  H15S21019   5.565   3.516   9.077 -0.8844  0.0770 -0.8580
  183SLPC  C21621020   5.530   3.333   8.971 -0.0921 -0.1863 -0.1742
  183SLPC  H16R21021   5.485   3.267   9.048 -1.2043  0.6988 -0.0274
  183SLPC  H16S21022   5.577   3.274   8.890 -1.2579 -0.2093 -0.8638
  183SLPC  C21721023   5.408   3.403   8.900  0.3381  0.2452  0.1732
  183SLPC  H17R21024   5.438   3.493   8.842  0.4528 -0.3107 -0.6470
  183SLPC  H17S21025   5.339   3.443   8.978  1.1045  0.4230  0.7719
  183SLPC  C21821026   5.323   3.304   8.810 -0.5774 -0.9140 -0.1735
  183SLPC  H18R21027   5.273   3.359   8.728  0.2391 -2.3735 -1.7276
  183SLPC  H18S21028   5.238   3.267   8.870 -0.2880 -1.4575 -0.0895
  183SLPC  H18T21029   5.384   3.223   8.763 -0.9695 -0.3730 -1.6571
  183SLPC   C3321030   5.236   3.191   9.866  0.3512  0.0757  0.4916
  183SLPC   H3X21031   5.216   3.103   9.931  0.5536 -0.4290 -0.1184
  183SLPC   H3Y21032   5.336   3.167   9.822 -0.6071 -2.8257 -0.3198
  183SLPC   C3421033   5.120   3.198   9.763 -0.5310  0.5732 -0.4525
  183SLPC   H4X21034   5.165   3.268   9.690  0.1590  1.0776  0.4354
  183SLPC   H4Y21035   5.032   3.249   9.808  1.0245  1.2513  2.0087
  183SLPC   C3521036   5.078   3.059   9.695 -0.5871 -1.0157 -0.0502
  183SLPC   H5X21037   5.005   3.089   9.617 -0.2750  0.4968  0.2156
  183SLPC   H5Y21038   5.025   2.993   9.768 -0.7484  0.5404  1.2865
  183SLPC   C3621039   5.189   2.982   9.629 -0.5188  0.5023 -0.6738
  183SLPC   H6X21040   5.260   2.951   9.708 -2.0796  1.3773  1.1663
  183SLPC   H6Y21041   5.248   3.037   9.553 -2.2045  0.8919 -1.7692
  183SLPC   C3721042   5.128   2.861   9.557  0.0637 -0.1019  0.1239
  183SLPC   H7X21043   5.056   2.907   9.485 -0.8339 -0.6754  0.6389
  183SLPC   H7Y21044   5.070   2.803   9.631  0.4466 -0.7188 -0.0520
  183SLPC   C3821045   5.226   2.767   9.484  0.0196  0.2888 -0.0812
  183SLPC   H8X21046   5.310   2.740   9.552  2.0545  0.4357 -2.3825
  183SLPC   H8Y21047   5.283   2.832   9.413  0.3589  1.1768  0.9867
  183SLPC   C3921048   5.157   2.662   9.393 -0.3353  0.2758  0.0476
  183SLPC   H9X21049   5.097   2.588   9.451  1.2423  0.1816  1.6480
  183SLPC   H9Y21050   5.240   2.605   9.345  0.8683  1.0050  1.2112
  183SLPC  C31021051   5.067   2.711   9.279  0.1300  0.2095  0.2898
  183SLPC  H10X21052   4.979   2.760   9.325 -0.6958  0.0162 -1.0305
  183SLPC  H10Y21053   5.025   2.626   9.221 -0.7023  1.2699 -0.6915
  183SLPC  C31121054   5.137   2.823   9.193  0.0670  1.1972  0.6385
  183SLPC  H11X21055   5.246   2.802   9.185 -0.5983 -1.9957 -1.6421
  183SLPC  H11Y21056   5.115   2.921   9.241 -1.0995  1.3468 -0.1689
  183SLPC  C31221057   5.085   2.834   9.045 -0.8299 -0.1334 -0.4094
  183SLPC  H12X21058   4.990   2.888   9.024  0.0087  1.5397 -0.0485
  183SLPC  H12Y21059   5.072   2.732   9.002  0.4468  0.1494 -1.5301
  183SLPC  C31321060   5.193   2.893   8.955  0.1366 -0.2068 -0.0212
  183SLPC  H13X21061   5.286   2.833   8.949  0.5649  0.4719 -0.3423
  183SLPC  H13Y21062   5.219   2.991   9.000 -0.0402 -0.4026  0.5093
  183SLPC  C31421063   5.164   2.917   8.798  0.5210 -0.6331  1.1232
  183SLPC  H14X21064   5.261   2.926   8.743 -0.0982 -1.9263 -0.2429
  183SLPC  H14Y21065   5.101   3.006   8.780  0.3018 -0.9116  0.4990
  183SLPC  C31521066   5.114   2.791   8.723  0.0279 -0.4949 -0.1550
  183SLPC  H15X21067   5.017   2.770   8.773  0.5739  0.7354  1.4961
  183SLPC  H15Y21068   5.173   2.698   8.739  1.0382  0.3960  1.5086
  183SLPC  C31621069   5.099   2.816   8.576  0.1772  0.0565 -0.3084
  183SLPC  H16X21070   5.186   2.842   8.512 -0.7760  1.2322 -1.1549
  183SLPC  H16Y21071   5.030   2.903   8.578 -0.0699 -0.0903  3.0268
  183SLPC  C31721072   5.044   2.691   8.503  0.0438 -0.6144  0.4118
  183SLPC  H17X21073   4.963   2.637   8.557 -0.0473 -0.5207  0.3698
  183SLPC  H17Y21074   5.127   2.618   8.489  0.9682  0.8341 -2.2800
  183SLPC  C31821075   5.004   2.731   8.363 -0.2030  0.2332 -0.1447
  183SLPC  H18X21076   4.922   2.805   8.358  0.4226  0.8480 -2.6176
  183SLPC  H18Y21077   4.961   2.639   8.317  0.2180  0.3824 -0.8539
  183SLPC  H18Z21078   5.087   2.775   8.302  0.5165 -1.9788 -0.8692
  184SLPC     N21079   2.914   0.867  10.614 -0.6413  0.1221 -0.6114
  184SLPC   C1321080   2.786   0.878  10.682 -0.0852 -0.1529  0.4256
  184SLPC  H13A21081   2.752   0.790  10.734  1.5789 -0.6374  0.7673
  184SLPC  H13B21082   2.799   0.957  10.755 -0.0047  2.0498 -1.8408
  184SLPC  H13C21083   2.712   0.916  10.614 -0.0156  1.0789  0.9977
  184SLPC   C1421084   2.914   0.759  10.510 -0.2128  0.2449  0.6063
  184SLPC  H14A21085   2.828   0.785  10.450 -0.6766  1.2416  1.6611
  184SLPC  H14B21086   3.009   0.755  10.458 -0.7913 -1.5193 -0.4094
  184SLPC  H14C21087   2.895   0.660  10.549  0.1704  0.2333  0.7655
  184SLPC   C1521088   3.026   0.835  10.709 -0.0168  0.4301  0.1335
  184SLPC  H15A21089   3.019   0.738  10.754 -0.3365 -0.1339 -1.0816
  184SLPC  H15B21090   3.119   0.828  10.655 -0.4659  0.4554 -0.6636
  184SLPC  H15C21091   3.036   0.907  10.789  0.3012  1.8998 -1.1719
  184SLPC   C1221092   2.954   0.993  10.548  0.6468 -0.5523  0.0060
  184SLPC  H12A21093   3.052   0.992  10.501  1.8521  0.5601  2.3109
  184SLPC  H12B21094   2.971   1.076  10.615 -0.9883 -0.5875  0.4985
  184SLPC   C1121095   2.862   1.047  10.438  1.1852 -0.4167  0.2608
  184SLPC  H11A21096   2.838   0.962  10.371  1.0215 -0.2411  0.0936
  184SLPC  H11B21097   2.922   1.126  10.388 -0.2850  1.5367  1.4542
  184SLPC     P21098   2.740   1.242  10.542  0.0315  0.4471 -0.1504
  184SLPC   O1321099   2.616   1.268  10.630 -0.4441 -0.2946  0.1743
  184SLPC   O1421100   2.869   1.271  10.605 -0.3663  0.3441 -0.0837
  184SLPC   O1221101   2.741   1.095  10.493 -0.0598  0.6620 -0.0032
  184SLPC   O1121102   2.733   1.333  10.414  0.7394 -0.2163  0.8012
  184SLPC    C121103   2.757   1.475  10.411  0.3688  0.3853 -0.5042
  184SLPC    HA21104   2.676   1.539  10.451  1.3944  2.7653 -1.9466
  184SLPC    HB21105   2.835   1.506  10.483 -1.5936  1.3890  1.2743
  184SLPC    C221106   2.804   1.515  10.267 -0.1080  0.3440 -0.4504
  184SLPC    HS21107   2.823   1.624  10.268 -3.7823  1.1128  0.5255
  184SLPC   O2121108   2.706   1.480  10.159 -0.6744 -0.4251  0.6244
  184SLPC   C2121109   2.591   1.535  10.168  0.6683 -0.3590 -0.5407
  184SLPC   O2221110   2.569   1.641  10.232  0.3925 -0.3726 -0.2664
  184SLPC   C2221111   2.489   1.458  10.102 -0.4711  0.0179 -0.6588
  184SLPC   H2R21112   2.533   1.449  10.000 -0.7117 -3.1658 -0.5955
  184SLPC   H2S21113   2.498   1.351  10.132  1.3652  0.6985  1.5637
  184SLPC    C321114   2.940   1.451  10.230 -0.7457 -0.0319 -0.0247
  184SLPC    HX21115   2.937   1.340  10.242  3.0588 -0.2876 -0.0724
  184SLPC    HY21116   3.013   1.477  10.309  2.1701  1.0416 -2.8505
  184SLPC   O3121117   3.007   1.489  10.106 -0.2973 -0.6047 -0.1292
  184SLPC   C3121118   3.069   1.398  10.044  0.8534 -0.3774  0.0934
  184SLPC   O3221119   3.090   1.284  10.085 -0.2357  0.0386  0.2643
  184SLPC   C3221120   3.105   1.447   9.906  0.4142 -0.8569  0.4489
  184SLPC   H2X21121   3.170   1.536   9.918 -2.2966  1.3308 -0.0814
  184SLPC   H2Y21122   3.011   1.484   9.860  0.0919 -1.4134  0.6431
  184SLPC   C2321123   2.346   1.501  10.097  0.5663 -0.4475 -0.1116
  184SLPC   H3R21124   2.336   1.601  10.049 -1.7512 -1.7129 -2.5236
  184SLPC   H3S21125   2.299   1.509  10.197 -3.1122 -0.7130 -1.6477
  184SLPC   C2421126   2.255   1.411  10.011  0.6437 -0.0747  0.3069
  184SLPC   H4R21127   2.152   1.453  10.014  1.3873  1.8791  0.0772
  184SLPC   H4S21128   2.229   1.317  10.064 -2.9887 -0.2328 -1.4804
  184SLPC   C2521129   2.314   1.386   9.873 -0.0850 -0.3021  0.3254
  184SLPC   H5R21130   2.390   1.306   9.882 -0.2804 -0.4823  0.3870
  184SLPC   H5S21131   2.364   1.479   9.838 -0.4051 -0.6696 -1.1669
  184SLPC   C2621132   2.208   1.350   9.770 -0.0421  0.0904 -0.1873
  184SLPC   H6R21133   2.141   1.438   9.759 -0.3563 -0.0428  0.6204
  184SLPC   H6S21134   2.162   1.257   9.809  1.1247 -1.0415 -1.3816
  184SLPC   C2721135   2.279   1.317   9.638 -0.1088  0.5617  0.2929
  184SLPC   H7R21136   2.362   1.248   9.663 -0.0095 -0.0185 -1.4744
  184SLPC   H7S21137   2.324   1.409   9.596 -0.6728  0.8374  0.2908
  184SLPC   C2821138   2.196   1.242   9.532 -0.0317  0.3622 -0.6513
  184SLPC   H8R21139   2.122   1.315   9.493  1.0672  2.2975  0.6948
  184SLPC   H8S21140   2.139   1.159   9.579  1.9107 -0.8607 -0.3270
  184SLPC   C2921141   2.286   1.194   9.414  0.3973  0.2178  0.1009
  184SLPC   H9R21142   2.342   1.100   9.422  1.9415  0.9405 -1.7632
  184SLPC  C21021143   2.292   1.249   9.290 -0.0868 -0.3199  0.0991
  184SLPC  H10R21144   2.361   1.200   9.220  0.5620  1.7263 -0.7780
  184SLPC  C21121145   2.236   1.386   9.253 -0.4961  1.1915  0.8995
  184SLPC  H11R21146   2.310   1.467   9.273  1.4115 -0.2452 -0.0511
  184SLPC  H11S21147   2.143   1.398   9.312 -0.3335  1.0118  1.1964
  184SLPC  C21221148   2.187   1.397   9.110  0.0896 -0.7019  0.0481
  184SLPC  H12R21149   2.102   1.329   9.094 -2.7195  2.2405  1.3957
  184SLPC  C21321150   2.224   1.491   9.018 -0.0716 -0.0187 -0.2473
  184SLPC  H13R21151   2.187   1.471   8.916  1.3367 -0.6807 -0.6597
  184SLPC  C21421152   2.341   1.590   9.028  0.7488 -0.6634 -0.0853
  184SLPC  H14R21153   2.375   1.613   9.131  0.7407  2.4921 -0.6795
  184SLPC  H14S21154   2.299   1.686   8.991  0.4907  0.0107  1.8122
  184SLPC  C21521155   2.462   1.547   8.942 -0.0248 -0.1989 -0.8147
  184SLPC  H15R21156   2.469   1.436   8.943  0.1218 -0.1911 -0.9859
  184SLPC  H15S21157   2.557   1.585   8.986 -0.5163 -0.8581  0.8944
  184SLPC  C21621158   2.442   1.596   8.803  0.1429  0.2902 -0.3655
  184SLPC  H16R21159   2.406   1.701   8.806  2.3234  1.1087 -1.0563
  184SLPC  H16S21160   2.359   1.529   8.773  0.8205 -0.6508 -0.2029
  184SLPC  C21721161   2.557   1.585   8.708 -0.1234  0.0351 -0.2283
  184SLPC  H17R21162   2.550   1.490   8.650  1.9322  0.2785 -0.9563
  184SLPC  H17S21163   2.650   1.598   8.767  0.1509 -0.2347 -0.5934
  184SLPC  C21821164   2.563   1.692   8.597  0.8412  0.6270  0.4120
  184SLPC  H18R21165   2.652   1.666   8.536  0.1708  0.4087 -0.4934
  184SLPC  H18S21166   2.580   1.789   8.648  1.3807  1.4084 -1.1999
  184SLPC  H18T21167   2.469   1.693   8.537 -0.2963 -1.0272  2.0066
  184SLPC   C3321168   3.160   1.342   9.809  0.7290 -0.1951  1.0050
  184SLPC   H3X21169   3.093   1.254   9.795 -1.2495  1.3352  0.2552
  184SLPC   H3Y21170   3.260   1.306   9.840  0.1637  0.6140  4.1804
  184SLPC   C3421171   3.179   1.408   9.673 -0.1071 -1.2692  0.4194
  184SLPC   H4X21172   3.199   1.517   9.681 -2.8259 -0.7081  0.4763
  184SLPC   H4Y21173   3.086   1.401   9.613  1.1714 -1.0683 -1.6724
  184SLPC   C3521174   3.289   1.335   9.590 -0.2900  0.2104  0.0951
  184SLPC   H5X21175   3.259   1.227   9.590 -1.2687  0.4539 -1.7658
  184SLPC   H5Y21176   3.386   1.338   9.645 -0.4710  0.4174  0.4072
  184SLPC   C3621177   3.310   1.389   9.451 -0.4001 -0.3074 -0.0420
  184SLPC   H6X21178   3.404   1.352   9.404 -1.2302 -1.1557 -1.0906
  184SLPC   H6Y21179   3.295   1.499   9.449 -0.1079 -0.2703 -0.3704
  184SLPC   C3721180   3.205   1.322   9.350 -0.4705 -0.2196  0.4126
  184SLPC   H7X21181   3.109   1.327   9.407  0.0127 -0.5323  1.2781
  184SLPC   H7Y21182   3.240   1.220   9.325  2.8723  1.1521 -1.0498
  184SLPC   C3821183   3.192   1.391   9.215 -0.1993  0.0315  0.7341
  184SLPC   H8X21184   3.163   1.498   9.221 -2.5028 -0.4687 -0.3285
  184SLPC   H8Y21185   3.109   1.342   9.160 -1.9941  2.7343  0.8388
  184SLPC   C3921186   3.320   1.380   9.138 -0.5655  0.0088  0.0603
  184SLPC   H9X21187   3.357   1.277   9.122 -2.2914 -0.9254  1.6416
  184SLPC   H9Y21188   3.397   1.433   9.197  0.2388 -3.4262  2.4243
  184SLPC  C31021189   3.309   1.447   8.992 -0.2326 -0.0747 -0.1964
  184SLPC  H10X21190   3.280   1.553   9.007  1.2505  0.0541  2.5357
  184SLPC  H10Y21191   3.237   1.390   8.930  0.4596 -0.6580 -0.4781
  184SLPC  C31121192   3.435   1.439   8.908 -0.0921 -0.4304 -0.0104
  184SLPC  H11X21193   3.445   1.334   8.872 -1.0716 -1.1700  1.7759
  184SLPC  H11Y21194   3.531   1.457   8.961 -0.9511  0.2637  1.3452
  184SLPC  C31221195   3.440   1.522   8.780  0.1697  0.6367  0.4089
  184SLPC  H12X21196   3.453   1.631   8.794  2.3687  0.5612 -0.6276
  184SLPC  H12Y21197   3.351   1.509   8.714  0.7797  3.3256 -1.0750
  184SLPC  C31321198   3.559   1.473   8.690  0.6380  0.2492 -0.1120
  184SLPC  H13X21199   3.534   1.367   8.670 -0.4325  0.4331  0.1584
  184SLPC  H13Y21200   3.655   1.480   8.745  0.7640 -0.9383 -0.1608
  184SLPC  C31421201   3.580   1.542   8.557 -0.4111  0.2503 -0.3604
  184SLPC  H14X21202   3.628   1.641   8.571 -2.3233  1.4698 -1.8969
  184SLPC  H14Y21203   3.482   1.564   8.511  0.3035  2.8480 -0.7708
  184SLPC  C31521204   3.679   1.474   8.458  0.3136  0.4860 -0.8577
  184SLPC  H15X21205   3.633   1.375   8.435 -0.8737  0.6108  0.8136
  184SLPC  H15Y21206   3.777   1.463   8.509 -0.1248  0.8033  0.0710
  184SLPC  C31621207   3.695   1.549   8.326  0.2289  0.3055 -0.7461
  184SLPC  H16X21208   3.798   1.541   8.284  0.7588  3.2471 -0.2436
  184SLPC  H16Y21209   3.690   1.658   8.348  0.5081 -0.1172  1.5906
  184SLPC  C31721210   3.593   1.530   8.219  0.4760  0.6779  0.3894
  184SLPC  H17X21211   3.600   1.616   8.149 -0.3862  1.1697  0.8955
  184SLPC  H17Y21212   3.492   1.531   8.265  0.1777  0.3747 -0.2522
  184SLPC  C31821213   3.605   1.397   8.141 -0.6793 -0.0746  0.1198
  184SLPC  H18X21214   3.538   1.385   8.053  0.3002 -1.5479 -0.4749
  184SLPC  H18Y21215   3.576   1.307   8.200 -0.4395 -0.8593 -0.9201
  184SLPC  H18Z21216   3.707   1.384   8.099 -0.6114  1.1060 -0.0930
  185SLPC     N21217   2.045   2.967   5.927  0.0413  0.1763  0.1782
  185SLPC   C1321218   2.004   3.105   5.969  0.3899  0.5852  0.5748
  185SLPC  H13A21219   2.075   3.140   6.043  1.3066 -4.1506  2.2780
  185SLPC  H13B21220   1.996   3.165   5.880 -3.0684  0.4773  0.6715
  185SLPC  H13C21221   1.899   3.106   5.994  0.1718 -0.7545 -0.2092
  185SLPC   C1421222   2.028   2.885   6.053 -0.6449 -0.5227 -0.2328
  185SLPC  H14A21223   2.071   2.786   6.046  0.5701 -0.0811  0.7516
  185SLPC  H14B21224   2.078   2.927   6.138 -2.6787 -0.5645  1.0539
  185SLPC  H14C21225   1.924   2.886   6.083 -0.1564 -0.5508  1.5692
  185SLPC   C1521226   2.186   2.963   5.879  0.0700  0.1234 -0.8159
  185SLPC  H15A21227   2.210   3.028   5.796 -0.4749  1.2728 -0.0998
  185SLPC  H15B21228   2.250   2.989   5.962 -0.1573 -2.6509  0.3548
  185SLPC  H15C21229   2.209   2.858   5.869  0.2221  0.0920 -0.1897
  185SLPC   C1221230   1.953   2.912   5.814  0.2833 -0.1942 -0.8444
  185SLPC  H12A21231   2.013   2.831   5.775  0.8866  0.0114 -0.3597
  185SLPC  H12B21232   1.961   2.988   5.738 -0.2343 -1.0970 -1.8395
  185SLPC   C1121233   1.806   2.862   5.849  0.1759  0.1246 -0.2590
  185SLPC  H11A21234   1.810   2.764   5.902 -2.3259  0.5593  0.8580
  185SLPC  H11B21235   1.747   2.850   5.756  0.6060  0.0149 -0.5203
  185SLPC     P21236   1.600   2.923   5.985  0.4090 -0.0044  0.3649
  185SLPC   O1321237   1.508   2.914   5.872 -0.3500 -0.1724 -0.7581
  185SLPC   O1421238   1.601   2.809   6.080 -0.5619 -0.1389 -0.1078
  185SLPC   O1221239   1.745   2.957   5.937 -0.0745 -0.1391  0.3329
  185SLPC   O1121240   1.559   3.052   6.066 -0.0020 -0.1411  0.3475
  185SLPC    C121241   1.644   3.131   6.148  0.3489 -0.3686 -0.2412
  185SLPC    HA21242   1.750   3.099   6.139  0.9284  1.8886 -2.7569
  185SLPC    HB21243   1.657   3.231   6.102  0.7983  1.1451  2.9094
  185SLPC    C221244   1.595   3.130   6.297 -0.5138 -0.4570 -1.2391
  185SLPC    HS21245   1.490   3.165   6.292 -0.2457  0.7853  0.5665
  185SLPC   O2121246   1.670   3.232   6.373 -0.0316 -0.1204  0.3650
  185SLPC   C2121247   1.608   3.305   6.463 -0.2137  0.2504  0.5787
  185SLPC   O2221248   1.485   3.329   6.464 -0.2080 -0.5020  0.1043
  185SLPC   C2221249   1.709   3.366   6.562  0.1118 -0.3319 -0.4024
  185SLPC   H2R21250   1.811   3.323   6.556  0.0983 -0.3875 -0.2273
  185SLPC   H2S21251   1.717   3.476   6.547  0.8740  0.0536  2.3251
  185SLPC    C321252   1.617   2.989   6.361  0.6497 -0.1409 -0.1621
  185SLPC    HX21253   1.723   2.967   6.337  1.2422  3.0501 -0.9665
  185SLPC    HY21254   1.548   2.920   6.308  0.2301 -0.6807  1.0472
  185SLPC   O3121255   1.584   2.993   6.509 -0.2429  0.6168  0.4792
  185SLPC   C3121256   1.456   2.999   6.544  0.1977  0.6728  0.5886
  185SLPC   O3221257   1.366   2.994   6.462  0.4058 -0.0610 -0.4454
  185SLPC   C3221258   1.444   3.013   6.694  1.0556  0.1400 -0.0231
  185SLPC   H2X21259   1.379   3.098   6.722 -2.4437 -2.6715  1.0392
  185SLPC   H2Y21260   1.543   3.030   6.741  0.0934  1.0202  1.7401
  185SLPC   C2321261   1.645   3.364   6.703  0.0224  0.4568  0.1173
  185SLPC   H3R21262   1.628   3.256   6.725  1.0710 -0.3763 -2.7075
  185SLPC   H3S21263   1.544   3.411   6.703  0.7156  2.0095 -0.4152
  185SLPC   C2421264   1.721   3.439   6.812 -0.5104  0.5733 -0.1028
  185SLPC   H4R21265   1.673   3.416   6.910 -0.6040  2.7681  0.4141
  185SLPC   H4S21266   1.696   3.546   6.797 -0.7294  0.5226 -0.1092
  185SLPC   C2521267   1.876   3.405   6.820  0.2310  0.3296 -0.2531
  185SLPC   H5R21268   1.916   3.471   6.900  0.5230 -0.2644  0.1021
  185SLPC   H5S21269   1.929   3.431   6.726  0.9393  1.5648  0.4649
  185SLPC   C2621270   1.900   3.259   6.849 -0.3480  0.3903  0.2409
  185SLPC   H6R21271   1.846   3.188   6.783 -0.3157  0.2575  0.3553
  185SLPC   H6S21272   1.860   3.238   6.951 -0.1454  1.3461  0.5312
  185SLPC   C2721273   2.053   3.229   6.857 -0.1299 -0.5781  0.2431
  185SLPC   H7R21274   2.060   3.134   6.914 -0.7249  1.3320  3.7768
  185SLPC   H7S21275   2.105   3.303   6.920 -0.2472 -1.4653  1.4161
  185SLPC   C2821276   2.136   3.205   6.726 -0.4538 -0.0606  0.3045
  185SLPC   H8R21277   2.098   3.113   6.677  0.5304 -0.0856 -0.4423
  185SLPC   H8S21278   2.243   3.188   6.751  0.4468 -0.1894 -3.0233
  185SLPC   C2921279   2.137   3.323   6.635 -0.7481 -0.7884 -0.1533
  185SLPC   H9R21280   2.050   3.333   6.567  0.7804  0.5164 -2.0306
  185SLPC  C21021281   2.231   3.422   6.627 -0.0184  0.5279 -0.2477
  185SLPC  H10R21282   2.204   3.506   6.561  1.0005  1.6475  0.7159
  185SLPC  C21121283   2.358   3.429   6.711 -0.1229  0.6882  0.1507
  185SLPC  H11R21284   2.351   3.355   6.793 -3.5904  0.0436 -0.5531
  185SLPC  H11S21285   2.383   3.530   6.749 -0.5068  1.2976 -1.1302
  185SLPC  C21221286   2.473   3.408   6.618 -0.3411  0.5310  0.4172
  185SLPC  H12R21287   2.457   3.412   6.509  3.8381 -0.8725 -0.4499
  185SLPC  C21321288   2.604   3.401   6.656  0.3816  0.4507  0.0732
  185SLPC  H13R21289   2.671   3.393   6.569 -0.1370  1.1718 -0.4027
  185SLPC  C21421290   2.663   3.404   6.801  0.3747  0.3787 -0.1505
  185SLPC  H14R21291   2.577   3.392   6.870  0.1906  1.8809 -0.0827
  185SLPC  H14S21292   2.693   3.507   6.831  1.0830 -0.0278  0.5697
  185SLPC  C21521293   2.779   3.306   6.829  0.4299  0.6407  0.1125
  185SLPC  H15R21294   2.733   3.209   6.800  0.9060  1.0587 -2.2718
  185SLPC  H15S21295   2.810   3.319   6.935  1.7091  0.0410 -0.1731
  185SLPC  C21621296   2.910   3.318   6.750 -0.5665  0.4869  0.6126
  185SLPC  H16R21297   2.954   3.418   6.765  0.9798 -0.3424  1.8555
  185SLPC  H16S21298   2.895   3.292   6.643 -0.4240 -0.4053  0.8029
  185SLPC  C21721299   3.020   3.223   6.796 -0.3996  0.1996 -0.1176
  185SLPC  H17R21300   3.100   3.223   6.719  0.3285  1.0931  0.6141
  185SLPC  H17S21301   3.000   3.114   6.788  0.9851 -0.0895  0.0147
  185SLPC  C21821302   3.077   3.254   6.936  0.1021 -0.0319  0.1779
  185SLPC  H18R21303   3.001   3.231   7.014 -1.4352  1.6105 -0.7646
  185SLPC  H18S21304   3.112   3.358   6.953 -0.9424  0.7011 -1.8855
  185SLPC  H18T21305   3.159   3.180   6.949  0.8791  0.6150 -0.8777
  185SLPC   C3321306   1.382   2.885   6.758  0.8848 -0.0563  0.5072
  185SLPC   H3X21307   1.445   2.799   6.729 -0.2178 -0.8976  0.5155
  185SLPC   H3Y21308   1.281   2.870   6.715  1.4845 -0.5415 -0.7767
  185SLPC   C3421309   1.378   2.900   6.913  0.2202  0.8445 -0.4039
  185SLPC   H4X21310   1.338   3.002   6.928 -1.7036  0.3467 -1.7847
  185SLPC   H4Y21311   1.477   2.913   6.962 -0.0424  0.0784  0.3439
  185SLPC   C3521312   1.286   2.801   6.984  0.1817  0.1304  0.0767
  185SLPC   H5X21313   1.332   2.702   6.967 -0.7847 -0.2234 -0.5834
  185SLPC   H5Y21314   1.187   2.800   6.933 -0.9849 -1.8990  2.1362
  185SLPC   C3621315   1.262   2.822   7.135 -0.0221  0.3999 -0.7642
  185SLPC   H6X21316   1.168   2.769   7.162  0.4759  0.3931  1.1066
  185SLPC   H6Y21317   1.249   2.928   7.167  0.1513 -0.8458  4.3063
  185SLPC   C3721318   1.378   2.766   7.218 -0.2854  0.0469  0.2583
  185SLPC   H7X21319   1.361   2.796   7.323 -1.1165  3.7391 -0.7701
  185SLPC   H7Y21320   1.479   2.804   7.192 -0.3809 -0.3196 -0.6883
  185SLPC   C3821321   1.400   2.617   7.212 -0.1814 -0.6380 -0.0648
  185SLPC   H8X21322   1.440   2.586   7.113  0.6973  2.8456 -0.9357
  185SLPC   H8Y21323   1.302   2.567   7.230 -0.0920 -0.4005  1.2256
  185SLPC   C3921324   1.489   2.570   7.331 -0.4258 -0.1426  0.1165
  185SLPC   H9X21325   1.435   2.606   7.421 -2.5655 -1.3850 -0.5982
  185SLPC   H9Y21326   1.585   2.623   7.315 -1.4385  1.2714 -1.7322
  185SLPC  C31021327   1.518   2.426   7.342  0.3836  0.0590  0.3433
  185SLPC  H10X21328   1.596   2.387   7.273  0.8649  1.4390  0.0741
  185SLPC  H10Y21329   1.432   2.359   7.324 -0.8602  1.3466  1.2106
  185SLPC  C31121330   1.579   2.381   7.483  0.4934  0.2627  0.1225
  185SLPC  H11X21331   1.660   2.451   7.514  1.3029  0.0622 -1.4204
  185SLPC  H11Y21332   1.620   2.280   7.465  1.2466 -0.3077  4.1997
  185SLPC  C31221333   1.466   2.374   7.590 -0.5886 -0.2262  0.2331
  185SLPC  H12X21334   1.380   2.312   7.555  0.3868 -1.6970  0.3446
  185SLPC  H12Y21335   1.425   2.475   7.607 -0.5816  0.3628 -2.6849
  185SLPC  C31321336   1.528   2.303   7.714 -0.2080 -0.1876 -0.0423
  185SLPC  H13X21337   1.610   2.360   7.762  0.8422 -1.9488  0.3341
  185SLPC  H13Y21338   1.555   2.200   7.681  0.4262 -0.8207  2.2291
  185SLPC  C31421339   1.419   2.279   7.818 -0.3789  0.3463 -0.2305
  185SLPC  H14X21340   1.314   2.280   7.781 -1.2881 -0.5680  2.1479
  185SLPC  H14Y21341   1.427   2.368   7.885 -0.7775  0.7499 -0.7081
  185SLPC  C31521342   1.439   2.154   7.903  0.0730  1.0794  0.2907
  185SLPC  H15X21343   1.545   2.143   7.937 -0.6784 -1.7039  2.0462
  185SLPC  H15Y21344   1.424   2.070   7.831  0.8674 -0.7779  2.1872
  185SLPC  C31621345   1.335   2.128   8.017 -0.0606  1.0812 -0.3516
  185SLPC  H16X21346   1.239   2.090   7.978 -0.1014 -0.1864  0.9047
  185SLPC  H16Y21347   1.318   2.224   8.072  0.5982 -0.4463  2.7559
  185SLPC  C31721348   1.370   2.019   8.128  0.1766 -0.0071  0.4239
  185SLPC  H17X21349   1.299   2.055   8.205 -2.6499 -0.6876 -1.7153
  185SLPC  H17Y21350   1.476   2.031   8.161  0.4108  1.5855 -0.7986
  185SLPC  C31821351   1.364   1.875   8.071  0.3274  0.3401  0.4098
  185SLPC  H18X21352   1.435   1.867   7.986  0.8157  1.5326  0.6796
  185SLPC  H18Y21353   1.262   1.858   8.032  1.3488  3.1150 -4.1645
  185SLPC  H18Z21354   1.388   1.785   8.132 -0.9699 -2.4727 -2.9340
  186SLPC     N21355   2.027   5.051   5.357  0.0721  0.1308  0.2212
  186SLPC   C1321356   1.948   4.986   5.464  0.1604 -0.2491 -0.5947
  186SLPC  H13A21357   1.933   4.884   5.433 -0.8051 -0.8883  1.7775
  186SLPC  H13B21358   2.008   4.984   5.554 -0.3398  2.3038 -0.1231
  186SLPC  H13C21359   1.851   5.034   5.476 -0.0800 -0.3474 -2.0110
  186SLPC   C1421360   1.956   5.055   5.227  0.8006  0.1245 -0.1513
  186SLPC  H14A21361   1.862   5.108   5.219  0.6603 -0.2567 -1.1691
  186SLPC  H14B21362   2.022   5.105   5.159  1.7859 -0.5865  0.2640
  186SLPC  H14C21363   1.940   4.953   5.194  2.3365 -0.2288  0.1066
  186SLPC   C1521364   2.149   4.971   5.330  0.1922 -0.1623 -0.3626
  186SLPC  H15A21365   2.201   5.014   5.245 -1.5107  1.6207 -0.5873
  186SLPC  H15B21366   2.207   4.985   5.420 -3.0153  3.3660  1.4900
  186SLPC  H15C21367   2.128   4.867   5.312  1.4870 -0.6219  0.5862
  186SLPC   C1221368   2.063   5.192   5.396 -0.2333 -0.1456  0.2993
  186SLPC  H12A21369   1.975   5.253   5.381 -1.4454 -1.5776  1.3125
  186SLPC  H12B21370   2.128   5.228   5.317 -0.8060  1.4744  0.5351
  186SLPC   C1121371   2.145   5.223   5.516 -0.1101 -0.6689 -0.3165
  186SLPC  H11A21372   2.084   5.199   5.606  1.1858 -0.8177  0.5463
  186SLPC  H11B21373   2.158   5.333   5.519 -0.8708 -0.5508 -1.0777
  186SLPC     P21374   2.411   5.208   5.528  0.0706  0.0752 -0.0872
  186SLPC   O1321375   2.500   5.152   5.425  0.5677  0.6333  0.0897
  186SLPC   O1421376   2.404   5.362   5.515  0.4350  0.0776 -0.5727
  186SLPC   O1221377   2.261   5.148   5.513 -0.5681  0.3386  0.0582
  186SLPC   O1121378   2.454   5.167   5.674  0.4416  0.1578 -0.3978
  186SLPC    C121379   2.460   5.027   5.700 -0.1884 -0.0089  0.8614
  186SLPC    HA21380   2.362   4.977   5.680  1.5828 -2.9104 -1.4028
  186SLPC    HB21381   2.546   4.996   5.637 -0.6112  2.6784 -1.1924
  186SLPC    C221382   2.495   5.015   5.852  0.0516  0.3536 -0.1795
  186SLPC    HS21383   2.475   4.916   5.898  2.1281 -0.5585 -1.1027
  186SLPC   O2121384   2.412   5.109   5.919  0.5958  0.5826 -0.0496
  186SLPC   C2121385   2.281   5.104   5.897 -0.0584 -0.4940  0.2356
  186SLPC   O2221386   2.216   5.006   5.867 -0.2385  0.2609  0.4295
  186SLPC   C2221387   2.226   5.243   5.917 -0.8695 -0.4032 -0.1962
  186SLPC   H2R21388   2.305   5.317   5.943 -0.6888 -1.2604  1.8929
  186SLPC   H2S21389   2.177   5.264   5.820 -1.2615 -0.7279 -0.0711
  186SLPC    C321390   2.646   5.053   5.873  0.3490  0.0947 -0.3970
  186SLPC    HX21391   2.659   5.160   5.846 -0.7548 -0.1259 -1.8949
  186SLPC    HY21392   2.709   4.999   5.800 -0.0821  0.2229 -0.8683
  186SLPC   O3121393   2.688   5.015   6.003 -0.6758 -0.2802 -0.6367
  186SLPC   C3121394   2.668   5.099   6.104  0.1465  0.0836  1.1019
  186SLPC   O3221395   2.632   5.218   6.090  0.2159 -0.3874 -0.1565
  186SLPC   C3221396   2.715   5.036   6.229  0.4380 -0.0082  0.1023
  186SLPC   H2X21397   2.797   5.104   6.260  1.0175 -0.6171 -0.0743
  186SLPC   H2Y21398   2.748   4.931   6.213  0.2637 -0.2116  1.0083
  186SLPC   C2321399   2.132   5.241   6.044 -0.1806  0.1853  0.2966
  186SLPC   H3R21400   2.077   5.145   6.059 -1.6404  1.1402  1.2673
  186SLPC   H3S21401   2.052   5.318   6.039 -0.1923  0.3586  2.3044
  186SLPC   C2421402   2.213   5.263   6.175 -0.3073 -0.3197  0.0029
  186SLPC   H4R21403   2.262   5.360   6.154 -0.2948 -0.1896  0.6174
  186SLPC   H4S21404   2.292   5.185   6.180 -0.3116 -0.2508  1.5111
  186SLPC   C2521405   2.112   5.256   6.292  0.3589  0.3460 -0.0277
  186SLPC   H5R21406   2.051   5.166   6.270  2.8440 -1.3578 -0.3733
  186SLPC   H5S21407   2.041   5.341   6.290  0.8151  0.7754  1.1658
  186SLPC   C2621408   2.176   5.242   6.427 -0.3680 -0.2194 -0.0589
  186SLPC   H6R21409   2.217   5.338   6.466  0.0768 -0.5634  0.3255
  186SLPC   H6S21410   2.259   5.169   6.432  2.3755  2.7441  2.8787
  186SLPC   C2721411   2.071   5.190   6.529  0.0809 -0.3535  0.2587
  186SLPC   H7R21412   2.010   5.115   6.473 -0.7988 -0.3279  1.1635
  186SLPC   H7S21413   2.003   5.274   6.556 -1.3789 -1.5550  0.4927
  186SLPC   C2821414   2.131   5.129   6.651 -0.4556  0.1369  0.1119
  186SLPC   H8R21415   2.156   5.209   6.724 -1.0253 -0.1752  0.6538
  186SLPC   H8S21416   2.229   5.081   6.633 -0.5239  0.0739 -0.0972
  186SLPC   C2921417   2.043   5.018   6.707  0.4961  0.3184  0.0078
  186SLPC   H9R21418   2.021   4.940   6.633  2.0347  0.8007 -1.0010
  186SLPC  C21021419   1.989   5.020   6.830  0.0492  0.1094 -0.9066
  186SLPC  H10R21420   1.931   4.933   6.865 -2.0458  1.5339 -0.6294
  186SLPC  C21121421   1.995   5.133   6.924 -0.6001 -0.3777 -1.2025
  186SLPC  H11R21422   1.903   5.132   6.985 -0.5493 -1.9511 -1.1140
  186SLPC  H11S21423   1.978   5.236   6.886 -0.7801  0.2549  0.5006
  186SLPC  C21221424   2.127   5.126   7.005 -0.0525  0.0500 -0.7232
  186SLPC  H12R21425   2.218   5.156   6.951 -0.2448  0.8501 -0.6230
  186SLPC  C21321426   2.126   5.124   7.142  0.0950 -0.5599  0.6841
  186SLPC  H13R21427   2.226   5.139   7.186  1.5154 -2.1587 -1.6875
  186SLPC  C21421428   2.005   5.117   7.235  0.0810 -0.1212  0.2988
  186SLPC  H14R21429   1.925   5.048   7.200  0.2303 -1.2185  2.0164
  186SLPC  H14S21430   1.966   5.219   7.256  0.8519 -0.0472  1.4945
  186SLPC  C21521431   2.064   5.062   7.367  0.0131  0.5420  0.1186
  186SLPC  H15R21432   2.130   5.136   7.418  0.2283 -1.2933  2.6556
  186SLPC  H15S21433   2.118   4.965   7.357  0.9499  0.9673  0.9699
  186SLPC  C21621434   1.953   5.044   7.470 -0.0516  0.0975 -0.7100
  186SLPC  H16R21435   1.870   4.987   7.424 -1.3513  2.5312 -1.5408
  186SLPC  H16S21436   1.909   5.142   7.499  0.9967  0.7023 -1.0967
  186SLPC  C21721437   1.997   4.974   7.600  0.0896  0.0352  0.0510
  186SLPC  H17R21438   2.083   5.026   7.646 -1.7149  3.1610  0.2060
  186SLPC  H17S21439   2.042   4.880   7.562  0.4276  1.0236 -2.1668
  186SLPC  C21821440   1.882   4.960   7.699  0.3682  0.0388 -0.6499
  186SLPC  H18R21441   1.785   4.949   7.644  0.0406 -1.6545  0.1956
  186SLPC  H18S21442   1.874   5.045   7.770  1.1317  0.5911 -1.2146
  186SLPC  H18T21443   1.882   4.872   7.767 -4.0532  1.2493  1.2751
  186SLPC   C3321444   2.601   5.045   6.327  0.6717 -0.0758 -0.6791
  186SLPC   H3X21445   2.521   4.981   6.284 -0.1810 -0.3925  1.2502
  186SLPC   H3Y21446   2.571   5.150   6.344 -1.6703 -0.3011 -2.8703
  186SLPC   C3421447   2.649   4.973   6.455 -0.6081 -0.0083  0.1182
  186SLPC   H4X21448   2.722   5.040   6.505  0.5827 -0.9502 -0.2894
  186SLPC   H4Y21449   2.704   4.877   6.448  0.5974  0.6317  0.4404
  186SLPC   C3521450   2.528   4.951   6.550  0.3948 -0.3595  0.4106
  186SLPC   H5X21451   2.473   4.863   6.509  0.7553 -0.1948 -0.4647
  186SLPC   H5Y21452   2.460   5.038   6.558  2.1514  1.1555 -0.3025
  186SLPC   C3621453   2.562   4.903   6.689 -0.1998  0.4548 -0.8460
  186SLPC   H6X21454   2.638   4.822   6.679 -0.1549  0.5249 -1.0706
  186SLPC   H6Y21455   2.471   4.864   6.739  0.4842 -1.0887 -0.7321
  186SLPC   C3721456   2.612   5.009   6.777  0.4337  0.4042 -0.1108
  186SLPC   H7X21457   2.634   5.097   6.712 -1.6279  1.8508  1.0096
  186SLPC   H7Y21458   2.708   4.975   6.820  1.8107  2.2992 -1.5297
  186SLPC   C3821459   2.523   5.046   6.897 -0.0084  0.3211  0.0660
  186SLPC   H8X21460   2.420   5.053   6.856 -1.2313  0.1871  2.9025
  186SLPC   H8Y21461   2.552   5.150   6.925  2.1601  0.7899 -3.2899
  186SLPC   C3921462   2.550   4.958   7.016 -0.4170 -0.2131 -0.0266
  186SLPC   H9X21463   2.656   4.960   7.051 -0.0770 -0.5816 -0.9988
  186SLPC   H9Y21464   2.532   4.850   6.998 -0.4365 -0.5350  1.8072
  186SLPC  C31021465   2.466   4.994   7.131 -0.3208 -0.7709  0.4275
  186SLPC  H10X21466   2.359   4.964   7.123 -0.4866  0.0709 -0.6069
  186SLPC  H10Y21467   2.470   5.104   7.143 -0.4389 -0.5932 -1.0274
  186SLPC  C31121468   2.509   4.933   7.256  0.3252  0.1947 -0.2124
  186SLPC  H11X21469   2.619   4.941   7.270  0.5219  1.8177 -2.2766
  186SLPC  H11Y21470   2.489   4.823   7.256  2.4095 -0.2323  0.7203
  186SLPC  C31221471   2.450   4.994   7.381  0.8374 -0.1926 -0.5254
  186SLPC  H12X21472   2.343   5.014   7.360  0.6013 -1.4679 -0.6081
  186SLPC  H12Y21473   2.509   5.085   7.408  0.4489 -0.1800  0.3252
  186SLPC  C31321474   2.469   4.913   7.517 -0.3416  0.1808  0.3666
  186SLPC  H13X21475   2.579   4.905   7.532 -0.1874  0.1830 -0.6905
  186SLPC  H13Y21476   2.428   4.810   7.509  2.8433 -1.4198  2.5932
  186SLPC  C31421477   2.397   4.975   7.640 -0.0758  0.0811  0.0398
  186SLPC  H14X21478   2.289   4.979   7.617  0.0519 -0.4858 -0.7103
  186SLPC  H14Y21479   2.431   5.079   7.660 -1.4454  0.8188 -1.2511
  186SLPC  C31521480   2.412   4.904   7.774 -0.3407 -0.5580 -0.1430
  186SLPC  H15X21481   2.388   4.965   7.864 -1.8073  0.2008 -1.0021
  186SLPC  H15Y21482   2.515   4.867   7.787 -1.0434 -3.2207 -1.4715
  186SLPC  C31621483   2.320   4.773   7.796 -0.1702  0.1543  0.0300
  186SLPC  H16X21484   2.348   4.711   7.707  1.4001 -1.8694  1.8127
  186SLPC  H16Y21485   2.212   4.799   7.791 -0.2104  0.3932  1.5953
  186SLPC  C31721486   2.363   4.713   7.932 -0.3437 -0.3905  0.5126
  186SLPC  H17X21487   2.329   4.779   8.015 -1.3482  0.0169 -0.1967
  186SLPC  H17Y21488   2.474   4.718   7.937 -0.3799  1.0529  0.3406
  186SLPC  C31821489   2.311   4.564   7.960  1.0658  0.2936 -0.0199
  186SLPC  H18X21490   2.352   4.497   7.881 -0.6753  1.5579 -2.1041
  186SLPC  H18Y21491   2.201   4.552   7.957  1.2321 -1.3110 -0.7048
  186SLPC  H18Z21492   2.350   4.530   8.059  1.2862 -0.7507 -0.4488
  187SLPC     N21493   1.977   0.659   6.145 -0.1831 -0.1356  0.6739
  187SLPC   C1321494   1.865   0.719   6.069  0.7471  0.9508 -0.1424
  187SLPC  H13A21495   1.894   0.807   6.013 -2.2922  0.7388 -2.3169
  187SLPC  H13B21496   1.810   0.661   5.997  0.9535 -0.3162  0.6921
  187SLPC  H13C21497   1.785   0.752   6.134  2.1698  0.1834  2.1058
  187SLPC   C1421498   1.918   0.539   6.213  0.5383  0.0352 -0.6694
  187SLPC  H14A21499   1.988   0.480   6.269 -0.8095  0.7379  1.9135
  187SLPC  H14B21500   1.836   0.566   6.279  0.0980 -1.2733 -0.6469
  187SLPC  H14C21501   1.874   0.465   6.148  0.2612 -1.7306  1.3921
  187SLPC   C1521502   2.027   0.757   6.248  0.0882  0.2178 -0.4383
  187SLPC  H15A21503   1.962   0.758   6.334  1.4685  0.7532  0.6320
  187SLPC  H15B21504   2.129   0.740   6.277 -0.3362 -1.4250  0.2305
  187SLPC  H15C21505   2.019   0.856   6.205  4.2199  0.6562 -0.5419
  187SLPC   C1221506   2.083   0.608   6.052 -0.2164  0.1023 -0.0174
  187SLPC  H12A21507   2.132   0.693   6.005  1.0128  0.8855  2.4943
  187SLPC  H12B21508   2.036   0.546   5.978  3.7502 -2.4027 -0.7240
  187SLPC   C1121509   2.191   0.522   6.117  0.2487 -0.2528 -0.9190
  187SLPC  H11A21510   2.242   0.468   6.035 -0.8689 -0.1735 -1.6884
  187SLPC  H11B21511   2.146   0.442   6.180  0.4306 -0.0857 -0.5694
  187SLPC     P21512   2.385   0.686   6.140 -0.3474  0.4852 -0.0767
  187SLPC   O1321513   2.475   0.600   6.059  0.4535  0.8827 -0.4847
  187SLPC   O1421514   2.325   0.797   6.067 -0.3392 -0.6336 -0.5594
  187SLPC   O1221515   2.275   0.605   6.197 -0.2764  0.6101 -0.8633
  187SLPC   O1121516   2.457   0.742   6.270 -0.2064  0.1158 -0.1281
  187SLPC    C121517   2.483   0.661   6.379 -0.3363 -0.0834  0.3554
  187SLPC    HA21518   2.491   0.552   6.356 -3.3166 -0.0877 -1.1678
  187SLPC    HB21519   2.580   0.697   6.419  0.1097  1.9496 -2.2903
  187SLPC    C221520   2.372   0.677   6.489 -0.0109 -1.0384 -0.3016
  187SLPC    HS21521   2.275   0.652   6.441 -0.5903  1.4932 -0.5787
  187SLPC   O2121522   2.377   0.820   6.528 -0.4141 -0.3322  0.0198
  187SLPC   C2121523   2.266   0.856   6.594 -0.0501 -0.1753 -0.8457
  187SLPC   O2221524   2.165   0.785   6.599 -0.4181  0.4089  0.0946
  187SLPC   C2221525   2.289   0.992   6.651  0.8143 -0.6139 -0.0765
  187SLPC   H2R21526   2.377   1.043   6.606 -1.5206  3.3120 -0.7320
  187SLPC   H2S21527   2.214   1.059   6.604  2.1195  1.1943  0.2829
  187SLPC    C321528   2.404   0.576   6.601  0.3509 -0.7148 -0.3316
  187SLPC    HX21529   2.379   0.469   6.583 -1.4290 -0.8572  2.4222
  187SLPC    HY21530   2.337   0.612   6.682  0.3151  1.2157 -1.1795
  187SLPC   O3121531   2.544   0.580   6.647  0.3627  0.4669 -0.0540
  187SLPC   C3121532   2.561   0.513   6.753  0.0516  0.2209  0.6291
  187SLPC   O3221533   2.483   0.438   6.810  0.6022  0.3791  0.3314
  187SLPC   C3221534   2.707   0.551   6.786 -0.1472  0.4649 -0.8393
  187SLPC   H2X21535   2.728   0.660   6.778  0.2563  0.7342  2.5821
  187SLPC   H2Y21536   2.768   0.490   6.716  0.6670 -0.0757  0.3057
  187SLPC   C2321537   2.287   0.995   6.804 -0.5472  0.5427  0.6977
  187SLPC   H3R21538   2.190   1.037   6.838  1.7569  3.1279  4.9015
  187SLPC   H3S21539   2.368   1.059   6.845 -0.3486  0.1161  0.9807
  187SLPC   C2421540   2.309   0.860   6.881 -0.8146 -0.0956 -0.8472
  187SLPC   H4R21541   2.411   0.817   6.882  0.4396  2.6143  1.2913
  187SLPC   H4S21542   2.239   0.779   6.852 -0.3545 -1.4385  1.5339
  187SLPC   C2521543   2.302   0.891   7.036 -0.5192 -0.2943 -0.0197
  187SLPC   H5R21544   2.199   0.927   7.058 -0.4401 -0.2041  0.2053
  187SLPC   H5S21545   2.371   0.977   7.053 -0.5620 -0.3454  0.4184
  187SLPC   C2621546   2.340   0.775   7.122  0.0218 -0.0575 -0.3815
  187SLPC   H6R21547   2.445   0.741   7.111  0.0191  0.2259 -1.3785
  187SLPC   H6S21548   2.265   0.697   7.095 -0.8139  0.4473  0.4150
  187SLPC   C2721549   2.314   0.803   7.271 -0.2259 -0.0712 -0.7499
  187SLPC   H7R21550   2.294   0.707   7.324  0.3827 -0.5501 -1.3815
  187SLPC   H7S21551   2.226   0.871   7.284 -1.7584 -2.3157  1.6885
  187SLPC   C2821552   2.436   0.866   7.342 -0.8123  0.8083 -0.2244
  187SLPC   H8R21553   2.459   0.959   7.286  0.4051  1.0454  0.6476
  187SLPC   H8S21554   2.524   0.801   7.325 -2.2411 -1.4902  0.6533
  187SLPC   C2921555   2.411   0.896   7.487  0.4248 -0.2745  0.8332
  187SLPC   H9R21556   2.326   0.958   7.519 -0.2540 -0.9788  0.4101
  187SLPC  C21021557   2.465   0.827   7.591  0.2737 -0.4140  0.8565
  187SLPC  H10R21558   2.453   0.857   7.697  0.5888 -1.8918  1.3345
  187SLPC  C21121559   2.577   0.730   7.580  0.1135  0.2022 -0.7221
  187SLPC  H11R21560   2.661   0.799   7.600 -0.4988  0.8522 -0.3407
  187SLPC  H11S21561   2.597   0.692   7.478  0.0239  1.2611 -1.1401
  187SLPC  C21221562   2.574   0.607   7.673 -0.0682  0.2088  0.6143
  187SLPC  H12R21563   2.515   0.522   7.634 -0.2306  1.0088 -0.9540
  187SLPC  C21321564   2.646   0.588   7.784  0.1416 -0.0445  0.5838
  187SLPC  H13R21565   2.639   0.492   7.838 -0.5390 -1.3881 -1.7884
  187SLPC  C21421566   2.735   0.692   7.841  0.1958 -1.1124  0.1602
  187SLPC  H14R21567   2.709   0.793   7.803  0.3447 -1.7951 -1.8724
  187SLPC  H14S21568   2.839   0.660   7.820  0.9546  0.4906  1.2743
  187SLPC  C21521569   2.733   0.703   8.000  0.2568 -0.7022 -0.1137
  187SLPC  H15R21570   2.731   0.596   8.030 -0.9166 -0.4543  0.7580
  187SLPC  H15S21571   2.639   0.756   8.024  1.5393  2.1537 -0.9680
  187SLPC  C21621572   2.844   0.786   8.048 -0.4194 -0.5713 -0.0426
  187SLPC  H16R21573   2.942   0.738   8.028  0.9434  0.8996  2.5526
  187SLPC  H16S21574   2.847   0.791   8.159 -0.6220 -0.4035 -0.0440
  187SLPC  C21721575   2.855   0.930   7.985  0.6269 -0.3659 -0.4004
  187SLPC  H17R21576   2.758   0.982   8.001 -1.6179 -4.8344  2.5156
  187SLPC  H17S21577   2.881   0.915   7.878 -2.2509 -0.6097 -1.1418
  187SLPC  C21821578   2.979   0.997   8.039  0.2004  0.9978  0.8532
  187SLPC  H18R21579   2.992   1.086   7.973 -1.7545 -0.0546 -1.0773
  187SLPC  H18S21580   3.075   0.942   8.044 -0.5272 -0.3092  0.8581
  187SLPC  H18T21581   2.963   1.037   8.141 -0.6293 -0.2928  1.2541
  187SLPC   C3321582   2.748   0.520   6.938  0.1682  0.1273 -0.5304
  187SLPC   H3X21583   2.850   0.560   6.958  0.2659  0.0926 -0.9478
  187SLPC   H3Y21584   2.730   0.416   6.973  0.8650  0.3293  0.4752
  187SLPC   C3421585   2.657   0.607   7.037 -0.5622  0.0931  0.3810
  187SLPC   H4X21586   2.555   0.573   7.011  0.4295 -0.9138 -2.6180
  187SLPC   H4Y21587   2.680   0.715   7.022  1.2413 -0.2443  0.4532
  187SLPC   C3521588   2.677   0.579   7.182 -0.1919  0.4402  0.1202
  187SLPC   H5X21589   2.713   0.474   7.194  2.3386  1.2933  0.7002
  187SLPC   H5Y21590   2.591   0.600   7.250 -0.4782 -0.2036 -0.0338
  187SLPC   C3621591   2.792   0.653   7.245 -0.1221 -0.6751 -0.1562
  187SLPC   H6X21592   2.749   0.752   7.272  0.2485 -0.4001 -0.5474
  187SLPC   H6Y21593   2.878   0.669   7.176  1.3878 -1.1313  1.5249
  187SLPC   C3721594   2.852   0.574   7.370  0.0109 -0.1643  0.2403
  187SLPC   H7X21595   2.767   0.526   7.423 -1.2286  1.1918 -0.4542
  187SLPC   H7Y21596   2.921   0.505   7.316 -2.0331 -0.7958 -1.7167
  187SLPC   C3821597   2.944   0.667   7.454 -0.4381 -0.4786 -0.2866
  187SLPC   H8X21598   2.875   0.739   7.503 -1.1967 -0.8649 -0.7597
  187SLPC   H8Y21599   3.017   0.714   7.384  0.3275  1.1086  1.4989
  187SLPC   C3921600   2.999   0.586   7.571  0.0351 -0.8938  0.5214
  187SLPC   H9X21601   3.050   0.498   7.526 -1.4227 -1.8090  0.5710
  187SLPC   H9Y21602   2.912   0.548   7.629 -0.1449  0.9937  1.5610
  187SLPC  C31021603   3.094   0.687   7.644  0.8203 -0.5232 -0.0030
  187SLPC  H10X21604   3.033   0.779   7.659  0.8304 -0.6815  1.0927
  187SLPC  H10Y21605   3.175   0.699   7.568  0.9953 -0.3987  0.1998
  187SLPC  C31121606   3.142   0.640   7.784  0.1874 -0.3986  0.7016
  187SLPC  H11X21607   3.215   0.558   7.766 -0.0590 -0.4609 -0.0422
  187SLPC  H11Y21608   3.055   0.609   7.845  0.0255  1.4381  1.4687
  187SLPC  C31221609   3.218   0.751   7.865  0.0400 -0.0763 -0.5370
  187SLPC  H12X21610   3.143   0.830   7.886  0.4900  0.1819  0.1503
  187SLPC  H12Y21611   3.297   0.802   7.805 -0.4854 -0.4622 -1.5835
  187SLPC  C31321612   3.280   0.702   7.993  0.3962  0.2520 -0.5844
  187SLPC  H13X21613   3.344   0.611   7.986  0.7709  0.1707  2.4485
  187SLPC  H13Y21614   3.203   0.657   8.060  0.3919 -0.4372 -1.0394
  187SLPC  C31421615   3.374   0.812   8.054  0.2275  0.2264  0.4196
  187SLPC  H14X21616   3.319   0.896   8.102 -2.3620 -2.8898  3.5023
  187SLPC  H14Y21617   3.434   0.848   7.968 -0.4137 -0.6009 -0.3892
  187SLPC  C31521618   3.476   0.753   8.158  0.6753  0.2228  0.1830
  187SLPC  H15X21619   3.546   0.687   8.103 -0.6943 -0.9798 -0.1551
  187SLPC  H15Y21620   3.422   0.686   8.228 -0.4849 -0.2121 -1.0865
  187SLPC  C31621621   3.556   0.857   8.238  0.2085 -0.2779 -0.3490
  187SLPC  H16X21622   3.645   0.814   8.289  0.3711 -0.9986 -1.2263
  187SLPC  H16Y21623   3.501   0.887   8.330  1.8414  0.2432  0.5040
  187SLPC  C31721624   3.617   0.974   8.151 -0.3783  0.2925 -0.0499
  187SLPC  H17X21625   3.537   1.051   8.144  1.2343  1.9129 -1.6329
  187SLPC  H17Y21626   3.642   0.927   8.053  2.4163  0.4835  0.4816
  187SLPC  C31821627   3.747   1.018   8.222 -0.2310  0.2044  0.2197
  187SLPC  H18X21628   3.730   1.051   8.327 -0.4089  0.8925 -0.0176
  187SLPC  H18Y21629   3.794   1.104   8.169 -1.1557  0.2954 -0.4873
  187SLPC  H18Z21630   3.814   0.930   8.226 -0.1968  0.2745  1.4040
  188SLPC     N21631   4.049   4.896   5.677  0.0277 -0.4146 -0.7166
  188SLPC   C1321632   4.195   4.875   5.655 -0.6315  0.0036  0.7900
  188SLPC  H13A21633   4.232   4.797   5.719 -0.3377 -1.2258 -0.8280
  188SLPC  H13B21634   4.211   4.853   5.550  1.8641  0.3485  1.0305
  188SLPC  H13C21635   4.250   4.962   5.688 -0.7399 -1.0015  3.9002
  188SLPC   C1421636   4.019   5.006   5.591  0.1699 -0.4692 -0.5371
  188SLPC  H14A21637   4.064   5.098   5.624  0.6166 -1.1702  0.9341
  188SLPC  H14B21638   4.067   4.996   5.495  0.3230 -0.0927 -0.5022
  188SLPC  H14C21639   3.914   5.020   5.572 -0.6404 -1.7854  2.3432
  188SLPC   C1521640   4.037   4.933   5.817 -1.0712  0.1477  1.1520
  188SLPC  H15A21641   4.090   5.026   5.826  0.8768 -0.9196  1.2357
  188SLPC  H15B21642   3.933   4.941   5.846 -1.9966  0.8022 -1.9561
  188SLPC  H15C21643   4.070   4.854   5.882  0.8810 -1.7441 -1.8461
  188SLPC   C1221644   3.967   4.774   5.652 -0.0984  0.0144 -0.6158
  188SLPC  H12A21645   3.996   4.701   5.726 -2.1543 -1.2544 -0.9779
  188SLPC  H12B21646   3.999   4.726   5.560 -0.9424  1.2845 -1.6078
  188SLPC   C1121647   3.813   4.785   5.640 -0.4205  0.6514 -0.4330
  188SLPC  H11A21648   3.770   4.685   5.619  1.9165 -0.4297 -0.3691
  188SLPC  H11B21649   3.797   4.845   5.547  0.7680 -0.3383 -1.3090
  188SLPC     P21650   3.633   4.778   5.836  0.1307 -0.3913 -0.1430
  188SLPC   O1321651   3.615   4.851   5.962  0.1924 -0.4677  0.1113
  188SLPC   O1421652   3.521   4.776   5.744  0.3748 -0.0078  0.5073
  188SLPC   O1221653   3.757   4.842   5.760 -0.3336  0.5199 -0.8101
  188SLPC   O1121654   3.681   4.624   5.856  0.3831  0.1135 -0.1392
  188SLPC    C121655   3.645   4.538   5.961  0.1245 -0.0471 -0.4196
  188SLPC    HA21656   3.539   4.544   5.994  0.3097 -2.4590  0.7958
  188SLPC    HB21657   3.652   4.434   5.922  0.7346 -0.2466  0.1992
  188SLPC    C221658   3.729   4.549   6.095 -0.5352 -0.3547  0.1600
  188SLPC    HS21659   3.703   4.462   6.160 -2.1540 -0.2432 -0.3127
  188SLPC   O2121660   3.699   4.666   6.174  0.6281  0.2284 -1.5356
  188SLPC   C2121661   3.582   4.665   6.238  0.0811  0.0335  0.4447
  188SLPC   O2221662   3.501   4.575   6.240 -0.7673  0.0873 -0.0100
  188SLPC   C2221663   3.555   4.810   6.279 -0.3374  0.0156 -0.2088
  188SLPC   H2R21664   3.631   4.882   6.243 -1.1169  1.4540  0.8601
  188SLPC   H2S21665   3.454   4.839   6.242 -0.7200  0.9052  1.3987
  188SLPC    C321666   3.883   4.534   6.068  0.9086  0.5956 -0.7071
  188SLPC    HX21667   3.915   4.600   5.984 -0.6079  2.4782  0.1106
  188SLPC    HY21668   3.892   4.429   6.033 -1.1708  0.2941 -0.4568
  188SLPC   O3121669   3.965   4.555   6.190  0.3714  0.0855 -0.4675
  188SLPC   C3121670   4.020   4.678   6.200  0.0091 -0.6195 -0.5855
  188SLPC   O3221671   4.002   4.768   6.117 -0.8540  0.2304 -0.5574
  188SLPC   C3221672   4.086   4.692   6.339 -0.1881 -0.1797 -0.7228
  188SLPC   H2X21673   4.155   4.778   6.325  0.9909 -1.1638 -1.1685
  188SLPC   H2Y21674   4.150   4.603   6.353  2.0357  1.3042 -0.8652
  188SLPC   C2321675   3.565   4.817   6.438 -0.2877  0.2466 -0.3897
  188SLPC   H3R21676   3.658   4.762   6.463 -0.3037 -0.0845 -1.0311
  188SLPC   H3S21677   3.478   4.756   6.472  0.3884 -1.2697 -1.2962
  188SLPC   C2421678   3.551   4.965   6.484  0.0144  0.1873 -0.2470
  188SLPC   H4R21679   3.462   5.019   6.445 -1.3138 -2.3732 -0.9629
  188SLPC   H4S21680   3.637   5.028   6.452 -0.2904  0.1294 -1.1937
  188SLPC   C2521681   3.555   4.977   6.634 -0.0580 -0.8781  0.4129
  188SLPC   H5R21682   3.638   4.926   6.690 -1.3363 -1.6315  1.6941
  188SLPC   H5S21683   3.461   4.925   6.663 -1.3086 -0.1078 -2.0600
  188SLPC   C2621684   3.540   5.121   6.682  0.3410 -0.0117  0.0968
  188SLPC   H6R21685   3.450   5.152   6.624 -0.4745 -0.5603  1.0204
  188SLPC   H6S21686   3.627   5.183   6.653 -0.1148  0.0768 -1.1260
  188SLPC   C2721687   3.517   5.129   6.833  1.0633 -0.7576 -0.2517
  188SLPC   H7R21688   3.498   5.238   6.846  1.7832 -0.4234 -1.8668
  188SLPC   H7S21689   3.608   5.102   6.891  0.8262  1.2078  1.1259
  188SLPC   C2821690   3.387   5.059   6.885 -0.2365 -0.1253 -0.5124
  188SLPC   H8R21691   3.400   4.950   6.867  1.4484  0.1833 -1.3311
  188SLPC   H8S21692   3.305   5.098   6.821 -0.3616 -1.4615 -1.2203
  188SLPC   C2921693   3.361   5.091   7.030  0.0736  0.1989 -0.0994
  188SLPC   H9R21694   3.438   5.054   7.100  1.2038  2.7466  0.1371
  188SLPC  C21021695   3.248   5.140   7.085 -0.7554 -0.3401  0.3923
  188SLPC  H10R21696   3.243   5.142   7.194  2.8491  0.8940  0.6706
  188SLPC  C21121697   3.122   5.192   7.019  0.0994 -0.1710  0.1746
  188SLPC  H11R21698   3.140   5.231   6.916  1.6455 -1.1561  0.0334
  188SLPC  H11S21699   3.096   5.277   7.084  1.2609  0.9784 -0.7988
  188SLPC  C21221700   3.012   5.093   7.026 -0.4836 -0.3214 -0.1168
  188SLPC  H12R21701   2.996   5.038   6.932 -0.1066 -0.9768  0.1964
  188SLPC  C21321702   2.918   5.090   7.117  0.3860 -0.9255  0.1596
  188SLPC  H13R21703   2.849   5.005   7.124  0.7959 -1.2041  1.0425
  188SLPC  C21421704   2.902   5.172   7.246  0.5910 -0.3520  0.1239
  188SLPC  H14R21705   2.980   5.251   7.260  0.4950 -0.4410  1.2128
  188SLPC  H14S21706   2.905   5.110   7.338  1.1129 -0.3715  0.1003
  188SLPC  C21521707   2.761   5.237   7.242  0.5198  0.1124  0.2553
  188SLPC  H15R21708   2.695   5.148   7.251 -2.3035  1.9771 -0.8146
  188SLPC  H15S21709   2.728   5.281   7.145 -1.4578 -2.5073 -0.3970
  188SLPC  C21621710   2.713   5.328   7.354  0.2944 -0.0660 -0.4116
  188SLPC  H16R21711   2.741   5.281   7.451 -1.6243 -3.0986 -1.1984
  188SLPC  H16S21712   2.604   5.330   7.335  0.2782 -1.4994 -0.6134
  188SLPC  C21721713   2.784   5.464   7.332  0.1386 -0.6393  0.4016
  188SLPC  H17R21714   2.755   5.491   7.228  0.4810  1.5177  0.8342
  188SLPC  H17S21715   2.892   5.438   7.334 -0.1038 -1.7570  0.0139
  188SLPC  C21821716   2.731   5.576   7.419 -0.2341  0.3491  0.3707
  188SLPC  H18R21717   2.757   5.548   7.523 -0.0406  0.6877  0.4148
  188SLPC  H18S21718   2.621   5.580   7.407 -0.4531 -1.7314  1.2546
  188SLPC  H18T21719   2.764   5.676   7.382  0.6078  0.1130  0.4525
  188SLPC   C3321720   3.979   4.716   6.445 -0.2959 -0.5545 -0.8262
  188SLPC   H3X21721   3.920   4.624   6.467 -1.5769  0.5170  0.4370
  188SLPC   H3Y21722   3.912   4.794   6.402  1.2365  0.3825 -1.5995
  188SLPC   C3421723   4.035   4.769   6.577 -0.4930 -0.7195 -0.1149
  188SLPC   H4X21724   4.109   4.848   6.549  0.7747 -1.8546 -0.0606
  188SLPC   H4Y21725   4.095   4.691   6.629  0.9636 -0.2652 -1.0338
  188SLPC   C3521726   3.916   4.814   6.666  0.5134 -0.0414 -0.1070
  188SLPC   H5X21727   3.832   4.741   6.665  0.0097  0.4963  0.8259
  188SLPC   H5Y21728   3.874   4.909   6.624 -0.3398  0.1807  1.2010
  188SLPC   C3621729   3.956   4.825   6.811  0.4337  0.2933 -0.9028
  188SLPC   H6X21730   4.041   4.897   6.823 -1.3521  2.0693  3.2446
  188SLPC   H6Y21731   3.988   4.726   6.852 -0.9141 -0.1571 -0.9121
  188SLPC   C3721732   3.834   4.877   6.891  0.6131  0.3466 -0.0668
  188SLPC   H7X21733   3.745   4.818   6.862 -0.0504  1.4287 -0.3136
  188SLPC   H7Y21734   3.806   4.980   6.860 -2.0463 -0.3523 -0.2452
  188SLPC   C3821735   3.845   4.893   7.043 -0.7473  0.1055 -0.6389
  188SLPC   H8X21736   3.919   4.974   7.060  0.6810 -1.0254 -1.3150
  188SLPC   H8Y21737   3.879   4.799   7.091 -1.7887 -0.3441 -0.7358
  188SLPC   C3921738   3.720   4.936   7.113  0.0892  0.2798 -0.1731
  188SLPC   H9X21739   3.638   4.862   7.101  1.2209 -0.8717 -1.0974
  188SLPC   H9Y21740   3.689   5.039   7.084  1.1362  1.0757  1.3886
  188SLPC  C31021741   3.751   4.956   7.263  0.8262  0.2536  0.5061
  188SLPC  H10X21742   3.808   5.051   7.276 -0.4133  1.5223 -2.3194
  188SLPC  H10Y21743   3.813   4.871   7.298  0.9770  0.9706  2.0345
  188SLPC  C31121744   3.620   4.962   7.346  0.2485  0.0780  0.8039
  188SLPC  H11X21745   3.639   4.916   7.445  3.4690 -2.1366 -0.6669
  188SLPC  H11Y21746   3.550   4.887   7.303  3.0304 -2.2265 -0.0389
  188SLPC  C31221747   3.568   5.105   7.357  0.1048 -0.1388 -0.1285
  188SLPC  H12X21748   3.529   5.136   7.258  0.7102  1.3534  0.0763
  188SLPC  H12Y21749   3.654   5.167   7.389  1.8423 -1.4095 -2.0713
  188SLPC  C31321750   3.460   5.109   7.466 -0.0941  0.3716  0.6201
  188SLPC  H13X21751   3.400   5.203   7.460 -1.2307 -0.2915  1.2294
  188SLPC  H13Y21752   3.507   5.088   7.564 -0.4174 -1.0082  0.4928
  188SLPC  C31421753   3.350   5.000   7.455 -0.0451  0.0428  0.3327
  188SLPC  H14X21754   3.397   4.900   7.466  0.2229  0.3671  2.6564
  188SLPC  H14Y21755   3.301   5.002   7.355 -1.5107  1.1498  1.0293
  188SLPC  C31521756   3.237   5.012   7.564 -0.2718 -0.9044 -0.2247
  188SLPC  H15X21757   3.170   4.924   7.567 -1.2690 -0.1287  1.6045
  188SLPC  H15Y21758   3.173   5.096   7.530  0.9536  0.0688 -0.2116
  188SLPC  C31621759   3.277   5.034   7.711 -0.3116 -0.1546 -0.3989
  188SLPC  H16X21760   3.184   5.036   7.772  0.1871 -1.0973  0.4118
  188SLPC  H16Y21761   3.316   5.136   7.729 -0.6804  0.0621 -0.7937
  188SLPC  C31721762   3.361   4.920   7.776  0.1714  0.2794  0.0616
  188SLPC  H17X21763   3.334   4.946   7.880  2.7877 -2.8512  1.6957
  188SLPC  H17Y21764   3.469   4.940   7.758 -0.2722  1.0383 -2.1109
  188SLPC  C31821765   3.325   4.777   7.745  0.5293  0.0561  0.0116
  188SLPC  H18X21766   3.396   4.709   7.797  0.6978  0.6970  0.6532
  188SLPC  H18Y21767   3.325   4.751   7.637  0.0524  0.2649 -0.0395
  188SLPC  H18Z21768   3.217   4.766   7.771 -0.1158  1.4406 -1.8956
  189SLPC     N21769   5.563   6.448   5.758 -0.3059 -0.0901 -0.7315
  189SLPC   C1321770   5.472   6.411   5.647 -0.3108  0.6746  0.4849
  189SLPC  H13A21771   5.387   6.476   5.629 -0.5739  0.3386  0.5012
  189SLPC  H13B21772   5.536   6.399   5.562  3.0785 -0.9139  3.0351
  189SLPC  H13C21773   5.427   6.318   5.678  2.2677 -0.2241  1.7780
  189SLPC   C1421774   5.597   6.596   5.758 -0.1401 -0.0726  0.8106
  189SLPC  H14A21775   5.661   6.629   5.839  1.6060 -1.9178  0.2891
  189SLPC  H14B21776   5.666   6.605   5.675 -1.1990 -0.5786 -0.1523
  189SLPC  H14C21777   5.513   6.657   5.728  1.5477  1.5682 -0.8594
  189SLPC   C1521778   5.691   6.372   5.753 -0.3534 -0.0016  0.1403
  189SLPC  H15A21779   5.780   6.421   5.714  0.2958 -1.3505 -0.1355
  189SLPC  H15B21780   5.712   6.313   5.841 -0.9262  1.2573  1.1614
  189SLPC  H15C21781   5.671   6.297   5.678 -2.1145  0.9599 -0.3999
  189SLPC   C1221782   5.487   6.407   5.884  0.2371 -0.1268  0.0698
  189SLPC  H12A21783   5.546   6.438   5.969 -2.1420  2.0600  1.0399
  189SLPC  H12B21784   5.477   6.300   5.882  0.8608 -0.1925 -1.7726
  189SLPC   C1121785   5.344   6.458   5.908  0.0550 -0.4347  0.1150
  189SLPC  H11A21786   5.309   6.418   6.005 -1.4545  0.3300 -0.0822
  189SLPC  H11B21787   5.280   6.417   5.826  1.4393 -1.1464 -0.6506
  189SLPC     P21788   5.386   6.700   6.021 -0.2565  0.2034 -0.0726
  189SLPC   O1321789   5.482   6.632   6.105 -0.0006 -0.4612  0.3549
  189SLPC   O1421790   5.433   6.828   5.958 -0.1203  0.0454  0.2326
  189SLPC   O1221791   5.335   6.600   5.909  0.6921 -0.0088 -0.0678
  189SLPC   O1121792   5.259   6.724   6.105  0.4627  0.0788 -0.3317
  189SLPC    C121793   5.228   6.861   6.152 -0.9035 -0.0461  0.1539
  189SLPC    HA21794   5.313   6.930   6.136 -2.1629  1.2873 -1.1149
  189SLPC    HB21795   5.138   6.900   6.099 -0.8905  0.3275  0.4042
  189SLPC    C221796   5.191   6.863   6.308  0.2815  0.3678  0.6363
  189SLPC    HS21797   5.178   6.970   6.334 -0.5392  0.0707  1.5148
  189SLPC   O2121798   5.299   6.799   6.380  0.2798 -0.0859 -0.4732
  189SLPC   C2121799   5.406   6.866   6.399 -0.1086  0.3019 -0.2492
  189SLPC   O2221800   5.426   6.984   6.373  0.0446  0.8679 -0.1684
  189SLPC   C2221801   5.511   6.767   6.455 -0.2759 -0.5582 -0.0938
  189SLPC   H2R21802   5.476   6.724   6.551 -0.0754  0.1904  0.3239
  189SLPC   H2S21803   5.500   6.680   6.387 -1.3776 -0.2452 -0.3329
  189SLPC    C321804   5.068   6.780   6.337  0.1205  0.7343  0.4793
  189SLPC    HX21805   5.093   6.671   6.339  0.8773  0.8855 -0.4410
  189SLPC    HY21806   4.983   6.791   6.266 -0.4635  1.6195  1.2930
  189SLPC   O3121807   5.017   6.816   6.467 -0.4030 -0.4096 -0.0170
  189SLPC   C3121808   4.941   6.927   6.466  0.7537 -0.0891  0.1187
  189SLPC   O3221809   4.913   6.986   6.361 -0.1896 -0.3957 -0.5009
  189SLPC   C3221810   4.912   6.982   6.605  0.3363  0.8693  0.0635
  189SLPC   H2X21811   4.812   6.944   6.633  0.5595  0.7920  0.7990
  189SLPC   H2Y21812   4.913   7.093   6.593  1.5704  1.1330  2.0286
  189SLPC   C2321813   5.654   6.824   6.458  0.0839 -0.2377 -0.1540
  189SLPC   H3R21814   5.662   6.922   6.510 -2.4071  0.1872 -0.4223
  189SLPC   H3S21815   5.691   6.847   6.355 -0.1966  0.8292 -0.0286
  189SLPC   C2421816   5.759   6.725   6.521  0.8920 -0.4404  0.3684
  189SLPC   H4R21817   5.852   6.785   6.512  0.9799 -0.6000  0.1932
  189SLPC   H4S21818   5.768   6.638   6.452  0.3390  1.1327 -1.8070
  189SLPC   C2521819   5.731   6.676   6.661  0.3509  0.5360 -0.6337
  189SLPC   H5R21820   5.801   6.599   6.700 -1.9814 -0.9708  0.8537
  189SLPC   H5S21821   5.632   6.629   6.675  0.9744 -0.3354  1.2474
  189SLPC   C2621822   5.736   6.807   6.748 -0.4222 -0.2168 -0.0288
  189SLPC   H6R21823   5.640   6.859   6.728 -0.2249  1.3598  2.5948
  189SLPC   H6S21824   5.815   6.879   6.720 -0.2537 -0.1611  0.5644
  189SLPC   C2721825   5.721   6.786   6.900 -0.0361  0.7040  0.2928
  189SLPC   H7R21826   5.806   6.723   6.936  0.2712  0.7807 -0.2881
  189SLPC   H7S21827   5.625   6.732   6.917  0.8883 -1.0045  0.2878
  189SLPC   C2821828   5.707   6.915   6.985 -0.2284  0.5121 -0.8386
  189SLPC   H8R21829   5.672   6.893   7.088  1.6379  0.6880 -0.1192
  189SLPC   H8S21830   5.623   6.968   6.936 -0.0579  1.3803 -0.2225
  189SLPC   C2921831   5.838   6.994   6.994 -0.4264 -0.8426 -0.5244
  189SLPC   H9R21832   5.872   7.034   6.897 -0.6493  2.6116  0.6679
  189SLPC  C21021833   5.908   7.031   7.107 -0.2049  0.9268  0.0075
  189SLPC  H10R21834   5.999   7.092   7.096  0.9405 -0.6032  0.7722
  189SLPC  C21121835   5.876   6.997   7.250 -0.2941 -0.6553 -0.7730
  189SLPC  H11R21836   5.772   6.958   7.260 -0.3096 -0.7108 -1.1244
  189SLPC  H11S21837   5.871   7.089   7.313 -0.3328 -1.3662  0.2934
  189SLPC  C21221838   5.977   6.916   7.329  0.4274  0.5201  0.1158
  189SLPC  H12R21839   6.046   6.981   7.385  0.6052  0.3737  0.0661
  189SLPC  C21321840   6.009   6.777   7.320 -0.3446  0.4359 -0.2552
  189SLPC  H13R21841   6.094   6.738   7.378 -0.5478 -2.1453 -1.5229
  189SLPC  C21421842   5.928   6.683   7.238 -0.0288  0.2355 -0.3930
  189SLPC  H14R21843   5.987   6.640   7.155  1.4169  1.0260  0.1827
  189SLPC  H14S21844   5.835   6.728   7.198 -1.0389 -0.0683  1.4730
  189SLPC  C21521845   5.879   6.567   7.332  0.0432 -0.5181  0.6597
  189SLPC  H15R21846   5.971   6.516   7.368 -0.7756 -1.8247  0.9976
  189SLPC  H15S21847   5.830   6.498   7.258  1.9968 -1.4833  0.2063
  189SLPC  C21621848   5.792   6.606   7.454  0.2707  0.1207 -0.1878
  189SLPC  H16R21849   5.738   6.515   7.486 -1.2842  1.6786  1.9937
  189SLPC  H16S21850   5.710   6.675   7.424 -1.5802 -2.0222 -0.2572
  189SLPC  C21721851   5.861   6.657   7.583  0.2328  1.0655  0.2279
  189SLPC  H17R21852   5.784   6.672   7.662  0.7854  2.7372  0.4950
  189SLPC  H17S21853   5.902   6.758   7.563  3.9176 -0.2299  0.4897
  189SLPC  C21821854   5.972   6.559   7.636  0.3258  0.6387 -0.9508
  189SLPC  H18R21855   5.948   6.452   7.653  1.6831  0.2258 -1.4901
  189SLPC  H18S21856   6.008   6.584   7.738  2.0562 -1.7013 -0.9135
  189SLPC  H18T21857   6.062   6.572   7.573  2.2412 -1.6062  1.1057
  189SLPC   C3321858   5.017   6.934   6.709  0.7194  0.1927 -0.1287
  189SLPC   H3X21859   5.121   6.964   6.683  0.7045  1.1127  0.8490
  189SLPC   H3Y21860   5.016   6.823   6.703 -0.1925  0.2538 -1.6935
  189SLPC   C3421861   4.983   6.994   6.848  0.8857  0.8330  0.4052
  189SLPC   H4X21862   5.071   6.958   6.905  0.9130 -0.8130 -0.6187
  189SLPC   H4Y21863   4.887   6.958   6.891  1.5001 -1.2775  0.1090
  189SLPC   C3521864   4.991   7.145   6.843  0.2561 -0.0216  0.2457
  189SLPC   H5X21865   4.910   7.195   6.785 -0.2863 -1.1604 -0.0072
  189SLPC   H5Y21866   5.075   7.170   6.775  2.4537 -1.6470  2.2344
  189SLPC   C3621867   5.016   7.199   6.982  0.5228 -0.1876  0.2179
  189SLPC   H6X21868   5.077   7.122   7.035 -0.9876 -0.3176  1.8592
  189SLPC   H6Y21869   4.924   7.200   7.043  0.5780  0.4123  0.2930
  189SLPC   C3721870   5.095   7.331   6.986  0.6273  0.6483  0.3495
  189SLPC   H7X21871   5.174   7.334   6.908  0.2549  2.8018 -0.0012
  189SLPC   H7Y21872   5.144   7.349   7.084  0.5062 -0.8188  0.7064
  189SLPC   C3821873   4.993   7.446   6.971 -0.2622 -0.8010  0.2510
  189SLPC   H8X21874   4.922   7.421   7.053 -0.6282 -1.7100 -0.3263
  189SLPC   H8Y21875   4.938   7.443   6.875  0.2211 -2.1426 -0.0093
  189SLPC   C3921876   5.070   7.578   6.991 -0.1113 -0.3272 -0.0667
  189SLPC   H9X21877   5.132   7.600   6.901 -0.4541 -5.4076 -1.8394
  189SLPC   H9Y21878   5.145   7.566   7.073 -1.0805 -1.1136  0.7257
  189SLPC  C31021879   4.984   7.702   7.018  0.1627 -0.3866  0.4459
  189SLPC  H10X21880   4.929   7.720   6.924  0.7339  1.5119  0.4283
  189SLPC  H10Y21881   5.050   7.791   7.029 -0.1425 -0.0064 -0.6680
  189SLPC  C31121882   4.881   7.701   7.131 -0.9528 -0.0183  0.0900
  189SLPC  H11X21883   4.933   7.695   7.229  0.5222 -3.2401 -0.7423
  189SLPC  H11Y21884   4.821   7.607   7.127 -2.0370  0.6606 -3.0230
  189SLPC  C31221885   4.789   7.817   7.145  0.4641 -0.5486 -0.2973
  189SLPC  H12X21886   4.714   7.814   7.062 -1.0492  1.0104  0.9289
  189SLPC  H12Y21887   4.856   7.906   7.142  1.9671 -1.6587 -0.6991
  189SLPC  C31321888   4.707   7.818   7.278  0.2754 -0.1408  0.0370
  189SLPC  H13X21889   4.702   7.926   7.307 -1.1531  0.2453 -1.5011
  189SLPC  H13Y21890   4.760   7.762   7.358  1.7662  1.0513 -0.0636
  189SLPC  C31421891   4.568   7.762   7.253 -0.1565 -0.0027 -0.2062
  189SLPC  H14X21892   4.577   7.661   7.208 -1.7889 -0.6015  0.7259
  189SLPC  H14Y21893   4.495   7.820   7.193  0.8797  1.0036 -0.5325
  189SLPC  C31521894   4.498   7.748   7.398  0.3441  0.2391 -0.4832
  189SLPC  H15X21895   4.475   7.850   7.437 -2.7731  0.0669 -1.6307
  189SLPC  H15Y21896   4.575   7.698   7.461 -0.9792 -2.6715 -1.0235
  189SLPC  C31621897   4.369   7.660   7.392 -0.2315 -0.0040  0.0570
  189SLPC  H16X21898   4.409   7.559   7.372  2.1032  1.0998 -1.3842
  189SLPC  H16Y21899   4.313   7.686   7.299  0.9395  0.5285 -0.5256
  189SLPC  C31721900   4.280   7.653   7.510 -0.2572  0.8775  0.3146
  189SLPC  H17X21901   4.338   7.626   7.600  1.1418  1.9290 -0.2409
  189SLPC  H17Y21902   4.208   7.572   7.485 -2.3168  3.0806 -1.3772
  189SLPC  C31821903   4.210   7.786   7.540 -0.5084  0.2804 -0.2503
  189SLPC  H18X21904   4.144   7.824   7.459 -0.4100 -1.6183 -1.2509
  189SLPC  H18Y21905   4.291   7.857   7.567 -1.4504  1.1074  0.5059
  189SLPC  H18Z21906   4.150   7.784   7.634 -0.5843 -0.7325 -0.3156
  190SLPC     N21907   5.121   5.697   5.972  0.2837 -0.0383  0.2224
  190SLPC   C1321908   5.078   5.617   6.098 -0.0851  0.1458  0.2383
  190SLPC  H13A21909   5.150   5.551   6.143 -0.3156 -0.8635 -0.7909
  190SLPC  H13B21910   5.074   5.692   6.175 -1.3241 -0.0318  0.3707
  190SLPC  H13C21911   4.983   5.568   6.081 -0.2823  0.3666  0.6982
  190SLPC   C1421912   5.028   5.818   5.969  0.2647  0.0509 -0.9163
  190SLPC  H14A21913   5.050   5.878   6.055 -0.5382 -0.3284 -0.4395
  190SLPC  H14B21914   5.041   5.879   5.880 -1.6784  0.2241 -1.1320
  190SLPC  H14C21915   4.926   5.783   5.960  0.2371 -0.1927  0.2351
  190SLPC   C1521916   5.096   5.605   5.861 -0.2550 -0.1821 -0.5835
  190SLPC  H15A21917   5.109   5.655   5.767 -0.0437  1.7627  0.4261
  190SLPC  H15B21918   5.144   5.508   5.867 -2.0985 -1.1141 -0.2650
  190SLPC  H15C21919   4.990   5.582   5.856 -0.4152  0.8689 -2.9277
  190SLPC   C1221920   5.265   5.737   5.972  0.5013 -0.5649 -0.3555
  190SLPC  H12A21921   5.327   5.648   5.981 -1.2527 -1.6487  2.0104
  190SLPC  H12B21922   5.291   5.801   6.055  0.8326 -0.3980 -0.5872
  190SLPC   C1121923   5.333   5.793   5.845 -0.0311 -0.4164  0.1803
  190SLPC  H11A21924   5.336   5.712   5.770  0.5518 -2.2866  2.1157
  190SLPC  H11B21925   5.439   5.815   5.869  0.3630 -1.9101 -0.1023
  190SLPC     P21926   5.293   6.055   5.867 -0.0254 -0.3162 -0.1112
  190SLPC   O1321927   5.391   6.135   5.790  0.4716  0.8266  0.7114
  190SLPC   O1421928   5.170   6.129   5.910  0.4532 -0.0989  0.2181
  190SLPC   O1221929   5.264   5.915   5.806 -0.3962  0.0531  0.0747
  190SLPC   O1121930   5.362   6.014   6.004 -0.6723 -0.1120 -0.3663
  190SLPC    C121931   5.489   6.053   6.034 -0.3508 -0.3063 -0.1574
  190SLPC    HA21932   5.564   6.037   5.953 -0.9972  1.2302 -1.1148
  190SLPC    HB21933   5.497   6.161   6.058  0.7471 -0.6776  1.2954
  190SLPC    C221934   5.539   5.996   6.167 -0.4849 -0.2010  0.0310
  190SLPC    HS21935   5.641   6.030   6.195 -0.5783 -0.6177  0.8893
  190SLPC   O2121936   5.539   5.854   6.151  0.0202  0.7830 -0.8322
  190SLPC   C2121937   5.656   5.799   6.110 -0.2583 -0.8133  0.1719
  190SLPC   O2221938   5.750   5.867   6.070 -0.2052 -0.4206 -0.7533
  190SLPC   C2221939   5.654   5.646   6.109 -0.3063  0.2683  0.0792
  190SLPC   H2R21940   5.548   5.623   6.129 -0.6752  1.0758 -0.8532
  190SLPC   H2S21941   5.673   5.614   6.004  0.3808 -0.4492  0.4080
  190SLPC    C321942   5.450   6.037   6.291 -0.0230  0.1638  0.2395
  190SLPC    HX21943   5.347   6.000   6.273 -0.3735 -1.0996  4.0256
  190SLPC    HY21944   5.450   6.148   6.299  0.7736  0.0840  1.6717
  190SLPC   O3121945   5.509   5.989   6.414  0.5552 -0.4452  0.2922
  190SLPC   C3121946   5.436   5.896   6.488 -0.1857 -0.4146 -0.1605
  190SLPC   O3221947   5.348   5.823   6.449  0.7709  0.1920  0.0935
  190SLPC   C3221948   5.492   5.906   6.634 -0.2045 -0.6491  0.0681
  190SLPC   H2X21949   5.537   6.008   6.642 -0.3348 -0.3157 -2.6757
  190SLPC   H2Y21950   5.583   5.845   6.646  0.6664  0.7256  0.8436
  190SLPC   C2321951   5.750   5.579   6.209  0.6715  0.0670  0.1439
  190SLPC   H3R21952   5.837   5.648   6.204  0.4817  0.2397 -1.1357
  190SLPC   H3S21953   5.787   5.477   6.186  1.3284  0.6375 -1.4836
  190SLPC   C2421954   5.710   5.582   6.360 -0.7531 -0.0037 -0.1168
  190SLPC   H4R21955   5.623   5.513   6.352 -0.1114 -0.6317 -2.8405
  190SLPC   H4S21956   5.668   5.677   6.400 -3.8132 -1.8171  1.3738
  190SLPC   C2521957   5.819   5.538   6.451  0.4728  1.2211  0.2651
  190SLPC   H5R21958   5.862   5.448   6.404 -0.7201  1.6785 -1.8654
  190SLPC   H5S21959   5.774   5.496   6.544  0.7579 -1.2212 -0.6388
  190SLPC   C2621960   5.918   5.648   6.488  0.3761 -0.0556  0.5620
  190SLPC   H6R21961   5.854   5.732   6.524 -0.4647 -0.3806 -0.1270
  190SLPC   H6S21962   5.958   5.677   6.388 -1.1319  0.7141  0.1521
  190SLPC   C2721963   6.013   5.595   6.592  0.7131  0.7668 -0.0536
  190SLPC   H7R21964   6.097   5.665   6.613 -0.3885  2.0239  0.3007
  190SLPC   H7S21965   6.054   5.499   6.553  1.2972  0.7082  0.6677
  190SLPC   C2821966   5.959   5.550   6.733  0.0864  0.2349  0.6640
  190SLPC   H8R21967   6.047   5.517   6.792 -0.4507 -2.3607  0.1213
  190SLPC   H8S21968   5.900   5.456   6.729  0.8448 -0.2470  0.7450
  190SLPC   C2921969   5.878   5.657   6.800 -0.5573  0.0822  0.5009
  190SLPC   H9R21970   5.844   5.743   6.739  0.5210 -0.5401 -1.0387
  190SLPC  C21021971   5.865   5.675   6.933  0.7105  0.2130  0.0745
  190SLPC  H10R21972   5.807   5.759   6.973  0.0248 -0.1091 -0.2333
  190SLPC  C21121973   5.914   5.579   7.040 -0.4028 -0.0755 -0.6032
  190SLPC  H11R21974   5.953   5.631   7.130  2.8489  0.6438 -2.2982
  190SLPC  H11S21975   6.000   5.524   6.997  0.8343  1.7046 -0.5056
  190SLPC  C21221976   5.804   5.482   7.083 -0.1276 -0.1020 -0.5691
  190SLPC  H12R21977   5.812   5.387   7.029  2.5254  1.1580 -2.6274
  190SLPC  C21321978   5.696   5.515   7.160  0.3597 -0.0172  0.0375
  190SLPC  H13R21979   5.630   5.436   7.199 -1.5542  2.4303  1.9913
  190SLPC  C21421980   5.668   5.650   7.227  0.2521 -0.7185  0.6957
  190SLPC  H14R21981   5.584   5.692   7.167  0.0255 -2.0249  0.0568
  190SLPC  H14S21982   5.753   5.723   7.223 -0.8977  0.6690  0.7570
  190SLPC  C21521983   5.622   5.646   7.372 -0.3886  0.0738  0.0640
  190SLPC  H15R21984   5.528   5.589   7.384  0.5389 -1.3164  1.0622
  190SLPC  H15S21985   5.592   5.752   7.388 -0.5672 -0.0103  0.2905
  190SLPC  C21621986   5.717   5.597   7.478 -0.7471 -0.4792  0.2176
  190SLPC  H16R21987   5.679   5.653   7.566  0.3913 -1.1815  1.1862
  190SLPC  H16S21988   5.822   5.624   7.453 -0.3017 -1.5467  0.8303
  190SLPC  C21721989   5.706   5.446   7.502 -0.2916 -0.1242 -0.7169
  190SLPC  H17R21990   5.792   5.398   7.554 -1.3189  1.2088  2.4758
  190SLPC  H17S21991   5.695   5.406   7.399  0.7676  2.5918 -1.9826
  190SLPC  C21821992   5.590   5.401   7.591  0.1055  0.2639 -0.5433
  190SLPC  H18R21993   5.494   5.431   7.543 -0.0650  0.5941 -0.0008
  190SLPC  H18S21994   5.586   5.458   7.686 -1.5050  1.2783 -1.1668
  190SLPC  H18T21995   5.597   5.290   7.594 -2.8060  0.0236  1.2591
  190SLPC   C3321996   5.396   5.861   6.745 -0.1016 -0.6650  0.2812
  190SLPC   H3X21997   5.358   5.757   6.730  1.4202 -1.2231  0.1652
  190SLPC   H3Y21998   5.308   5.930   6.748 -0.4967 -1.1795  2.5737
  190SLPC   C3421999   5.458   5.864   6.884  0.4361  0.1772 -0.0497
  190SLPC   H4X22000   5.540   5.789   6.884  2.1197  1.8982  1.1968
  190SLPC   H4Y22001   5.380   5.832   6.957  0.9633  0.4902  0.6652
  190SLPC   C3522002   5.485   6.006   6.924  0.4956 -0.3446  0.0713
  190SLPC   H5X22003   5.396   6.072   6.922  1.2542  0.6852 -1.8189
  190SLPC   H5Y22004   5.555   6.055   6.854 -0.2369  0.5756 -0.0359
  190SLPC   C3622005   5.547   6.002   7.068  0.3132  0.0967  0.6137
  190SLPC   H6X22006   5.637   6.067   7.066  0.0849  0.4094  0.3746
  190SLPC   H6Y22007   5.585   5.899   7.088 -0.0112  0.0009  0.7537
  190SLPC   C3722008   5.449   6.040   7.188 -0.3353 -0.1357  0.1177
  190SLPC   H7X22009   5.375   5.957   7.184  1.0195 -1.4374  0.7095
  190SLPC   H7Y22010   5.402   6.135   7.157  0.2515 -0.1774 -0.9396
  190SLPC   C3822011   5.519   6.056   7.325 -0.7580  0.5675  0.5665
  190SLPC   H8X22012   5.579   6.149   7.327  0.2299  0.0731 -2.1027
  190SLPC   H8Y22013   5.590   5.970   7.332 -1.1685  0.3098  1.8306
  190SLPC   C3922014   5.424   6.042   7.443  0.5043  0.3395  0.5637
  190SLPC   H9X22015   5.360   5.952   7.437  0.5951  0.2656  0.6970
  190SLPC   H9Y22016   5.356   6.126   7.420 -1.2529 -0.9492  0.8446
  190SLPC  C31022017   5.487   6.032   7.589  0.6446 -0.3067 -0.3948
  190SLPC  H10X22018   5.562   6.113   7.601  1.7292 -1.2388 -0.7035
  190SLPC  H10Y22019   5.547   5.939   7.603  1.9933  0.6517  0.4228
  190SLPC  C31122020   5.396   6.062   7.702  0.2626  0.5450 -0.3534
  190SLPC  H11X22021   5.318   6.132   7.666 -1.6626 -1.8431 -1.1409
  190SLPC  H11Y22022   5.454   6.107   7.786 -0.2039  1.0368 -0.2901
  190SLPC  C31222023   5.317   5.934   7.746 -0.3945 -0.0344  0.4345
  190SLPC  H12X22024   5.388   5.850   7.762 -0.5918 -0.3970 -0.5019
  190SLPC  H12Y22025   5.254   5.910   7.658 -1.2281  0.3432  0.9142
  190SLPC  C31322026   5.239   5.959   7.878  0.3961 -0.4489 -0.1946
  190SLPC  H13X22027   5.178   6.051   7.868 -0.3511 -0.7864  1.0757
  190SLPC  H13Y22028   5.297   5.972   7.972 -2.2973  0.7933  1.4043
  190SLPC  C31422029   5.153   5.842   7.915 -0.0055 -0.1629 -0.6308
  190SLPC  H14X22030   5.202   5.749   7.880  0.3763 -0.9934  1.9590
  190SLPC  H14Y22031   5.056   5.842   7.860 -1.1384  0.1627  1.2834
  190SLPC  C31522032   5.116   5.838   8.066  0.1071 -0.4512  0.1088
  190SLPC  H15X22033   5.201   5.828   8.137 -1.2822 -1.1771  1.7388
  190SLPC  H15Y22034   5.054   5.746   8.077 -0.8571  0.3437  1.7953
  190SLPC  C31622035   5.035   5.960   8.105  0.4862 -0.4017 -0.4745
  190SLPC  H16X22036   4.983   6.005   8.017 -3.2298 -2.3061  0.5315
  190SLPC  H16Y22037   5.101   6.039   8.147  0.6589  0.7860 -2.7966
  190SLPC  C31722038   4.922   5.935   8.204  0.1079 -0.0736 -0.1501
  190SLPC  H17X22039   4.965   5.892   8.297 -2.1279 -0.2547  0.8560
  190SLPC  H17Y22040   4.851   5.870   8.148 -0.4750  1.2175 -0.9499
  190SLPC  C31822041   4.853   6.065   8.243  0.4443  0.5615  0.4522
  190SLPC  H18X22042   4.922   6.120   8.311  0.7452  0.2394  0.4091
  190SLPC  H18Y22043   4.746   6.047   8.267 -0.1507 -0.3462 -2.5110
  190SLPC  H18Z22044   4.850   6.143   8.165  1.7604  0.9269  0.7445
  191SLPC     N22045   5.221   1.693   5.700  0.4913 -0.3918 -0.1347
  191SLPC   C1322046   5.126   1.617   5.615 -0.7294  0.3856 -0.2146
  191SLPC  H13A22047   5.160   1.632   5.514  1.6665 -0.7675  0.3554
  191SLPC  H13B22048   5.139   1.512   5.635 -0.8381  0.7067  1.7008
  191SLPC  H13C22049   5.025   1.647   5.640 -0.5779  0.4786  0.2961
  191SLPC   C1422050   5.222   1.837   5.660 -0.7400 -0.3431  0.5350
  191SLPC  H14A22051   5.292   1.905   5.708  0.0418  0.3403 -1.4733
  191SLPC  H14B22052   5.251   1.839   5.556 -0.0781 -0.1872  0.7190
  191SLPC  H14C22053   5.126   1.886   5.656 -0.0105  1.0567 -1.5315
  191SLPC   C1522054   5.360   1.640   5.679 -0.4566  0.7457 -0.8394
  191SLPC  H15A22055   5.391   1.651   5.576  1.1612 -1.3623 -0.6611
  191SLPC  H15B22056   5.429   1.695   5.741 -1.1375 -2.5389  3.2728
  191SLPC  H15C22057   5.366   1.539   5.716  0.3252  0.0738 -2.6790
  191SLPC   C1222058   5.175   1.680   5.842  0.0878 -0.4046  0.2240
  191SLPC  H12A22059   5.070   1.704   5.852  0.7603  3.1999 -0.0608
  191SLPC  H12B22060   5.242   1.742   5.901  0.9573 -1.1849  0.0762
  191SLPC   C1122061   5.173   1.537   5.909 -1.5043 -0.1120  0.9228
  191SLPC  H11A22062   5.121   1.468   5.839  2.5879 -2.2348 -0.3461
  191SLPC  H11B22063   5.127   1.538   6.010 -0.9583 -1.0740  1.1998
  191SLPC     P22064   5.412   1.547   6.031  0.1196  0.2160 -0.5597
  191SLPC   O1322065   5.519   1.616   5.960  0.0014  0.8494  0.0803
  191SLPC   O1422066   5.345   1.632   6.132 -0.1202  0.4298  1.1439
  191SLPC   O1222067   5.309   1.481   5.925 -0.3858 -0.7348 -0.4531
  191SLPC   O1122068   5.472   1.430   6.115 -0.5219  0.0869  0.2085
  191SLPC    C122069   5.385   1.333   6.184 -1.3376  0.1552  0.1776
  191SLPC    HA22070   5.290   1.322   6.127 -0.4873 -1.5145 -1.0114
  191SLPC    HB22071   5.429   1.231   6.191  0.0268  0.7691  1.1622
  191SLPC    C222072   5.346   1.378   6.329  0.2291 -0.2019 -0.7319
  191SLPC    HS22073   5.255   1.440   6.319 -0.8417 -1.9735 -2.7739
  191SLPC   O2122074   5.462   1.443   6.391 -0.0775 -0.0806  0.0635
  191SLPC   C2122075   5.430   1.544   6.465 -0.8027  0.2290  0.4960
  191SLPC   O2222076   5.328   1.601   6.471  1.0209  0.1955 -0.2806
  191SLPC   C2222077   5.556   1.593   6.526  0.6042  0.0947 -0.3093
  191SLPC   H2R22078   5.621   1.647   6.454  0.3750 -0.8165 -1.2360
  191SLPC   H2S22079   5.523   1.671   6.598 -0.1713  0.8382 -1.4382
  191SLPC    C322080   5.309   1.266   6.429  0.6025 -0.1287  0.0284
  191SLPC    HX22081   5.389   1.191   6.445  0.9306  0.3343  0.5934
  191SLPC    HY22082   5.226   1.212   6.378  1.2583 -0.8701 -0.2687
  191SLPC   O3122083   5.263   1.320   6.555 -0.2420  0.1486  0.8222
  191SLPC   C3122084   5.133   1.351   6.557 -0.1261 -0.4230  0.3092
  191SLPC   O3222085   5.051   1.335   6.469 -0.1952  0.4419  0.4449
  191SLPC   C3222086   5.086   1.402   6.696 -0.6557 -0.6541  0.2029
  191SLPC   H2X22087   4.977   1.418   6.689 -0.2242  2.7795 -0.1363
  191SLPC   H2Y22088   5.130   1.501   6.720  2.1558 -1.8119  0.2781
  191SLPC   C2322089   5.635   1.482   6.616 -0.4224  0.4405 -0.5994
  191SLPC   H3R22090   5.719   1.534   6.667  0.4338 -1.9373  0.5543
  191SLPC   H3S22091   5.669   1.407   6.542  3.4225 -0.5213  1.8936
  191SLPC   C2422092   5.546   1.406   6.720  0.0033 -0.1665 -0.6911
  191SLPC   H4R22093   5.613   1.331   6.768  0.6642  0.1930 -1.0343
  191SLPC   H4S22094   5.448   1.362   6.692 -1.7461  0.1467  3.9582
  191SLPC   C2522095   5.490   1.500   6.831 -0.3489  0.3418  0.5267
  191SLPC   H5R22096   5.432   1.447   6.910 -3.1494  0.2691 -1.4364
  191SLPC   H5S22097   5.422   1.577   6.788  0.8426  0.4474 -1.2563
  191SLPC   C2622098   5.598   1.581   6.913 -0.2142 -0.0779  0.5313
  191SLPC   H6R22099   5.658   1.641   6.841 -2.0483  0.7104 -0.4145
  191SLPC   H6S22100   5.659   1.514   6.976  1.2072  1.2959  0.7023
  191SLPC   C2722101   5.540   1.690   7.002 -0.2079  0.2245 -0.1075
  191SLPC   H7R22102   5.473   1.650   7.081  2.0623  1.3253  2.5143
  191SLPC   H7S22103   5.471   1.748   6.936 -1.4063 -0.5358  0.4235
  191SLPC   C2822104   5.632   1.784   7.074  0.1317  0.5425 -0.2492
  191SLPC   H8R22105   5.572   1.867   7.116 -1.3029 -0.6267  0.0891
  191SLPC   H8S22106   5.693   1.834   6.996  0.1650  1.3590  0.2898
  191SLPC   C2922107   5.704   1.715   7.185  0.2563 -0.4985 -0.5204
  191SLPC   H9R22108   5.814   1.720   7.177  0.1485  2.4466 -1.6064
  191SLPC  C21022109   5.653   1.659   7.298 -0.7797 -0.2076 -0.0188
  191SLPC  H10R22110   5.725   1.627   7.375  1.1781 -0.6361 -1.9267
  191SLPC  C21122111   5.514   1.655   7.352 -0.6802 -0.3380  0.1069
  191SLPC  H11R22112   5.480   1.550   7.358 -0.2203 -0.4680  0.4863
  191SLPC  H11S22113   5.456   1.707   7.273  1.5265  0.8328 -0.8599
  191SLPC  C21222114   5.504   1.726   7.482 -0.0435 -0.0969  0.1162
  191SLPC  H12R22115   5.461   1.828   7.483 -2.7218 -1.1574  0.4160
  191SLPC  C21322116   5.516   1.663   7.605  0.6714 -0.1239 -0.1685
  191SLPC  H13R22117   5.505   1.731   7.691  0.2396 -0.9355  0.4321
  191SLPC  C21422118   5.537   1.516   7.631  0.0455  0.4805  0.0503
  191SLPC  H14R22119   5.625   1.504   7.696 -0.5643  0.6562  0.9225
  191SLPC  H14S22120   5.539   1.465   7.532 -1.4985  0.5986 -0.0753
  191SLPC  C21522121   5.430   1.437   7.715 -0.3081 -0.2254 -0.2520
  191SLPC  H15R22122   5.450   1.330   7.694 -0.2387 -0.5763  1.4631
  191SLPC  H15S22123   5.329   1.463   7.677  0.0534 -0.4007 -1.3801
  191SLPC  C21622124   5.430   1.462   7.869 -0.3116  0.3272  0.2390
  191SLPC  H16R22125   5.409   1.569   7.888 -0.8060  0.3210 -0.2572
  191SLPC  H16S22126   5.535   1.441   7.898  0.4787  2.5272 -0.8478
  191SLPC  C21722127   5.341   1.359   7.950  0.2289  0.3517  0.2842
  191SLPC  H17R22128   5.373   1.262   7.908  0.5592  1.5990 -2.5399
  191SLPC  H17S22129   5.235   1.375   7.920  0.3778 -0.9834 -1.0694
  191SLPC  C21822130   5.373   1.362   8.103 -0.1988  0.4142  0.5490
  191SLPC  H18R22131   5.477   1.330   8.125 -0.2049  0.0687  0.1127
  191SLPC  H18S22132   5.306   1.295   8.162 -1.8604  1.0060 -0.5886
  191SLPC  H18T22133   5.356   1.465   8.139  1.0380  0.3320  1.3983
  191SLPC   C3322134   5.123   1.298   6.804 -0.7474 -0.2321  1.3673
  191SLPC   H3X22135   5.230   1.269   6.815 -1.0225 -2.3624 -0.6859
  191SLPC   H3Y22136   5.075   1.203   6.774 -1.7474  1.1805 -2.1303
  191SLPC   C3422137   5.073   1.332   6.944 -0.7767  0.1363 -0.6693
  191SLPC   H4X22138   4.963   1.317   6.939 -0.8689 -0.8887  2.2560
  191SLPC   H4Y22139   5.088   1.435   6.982 -0.1604 -0.1237 -0.1845
  191SLPC   C3522140   5.122   1.230   7.042  0.1114  0.4125 -0.3859
  191SLPC   H5X22141   5.232   1.228   7.054  0.3534 -2.5676 -2.0357
  191SLPC   H5Y22142   5.101   1.129   7.000  0.3249  0.2344 -0.0768
  191SLPC   C3622143   5.054   1.229   7.177  0.1322  0.1161 -0.6545
  191SLPC   H6X22144   4.946   1.218   7.156 -0.1572  0.5346  0.5280
  191SLPC   H6Y22145   5.067   1.330   7.222  1.6000 -0.4925  0.3605
  191SLPC   C3722146   5.108   1.113   7.271  0.3548  0.1180 -0.3172
  191SLPC   H7X22147   5.219   1.125   7.277  0.4136 -0.7817  0.5506
  191SLPC   H7Y22148   5.085   1.015   7.225  1.2470 -0.6680  0.8566
  191SLPC   C3822149   5.045   1.113   7.414  0.2480  0.8006  0.4921
  191SLPC   H8X22150   5.082   1.016   7.455 -0.3561  0.9758  1.4916
  191SLPC   H8Y22151   4.935   1.105   7.404  0.3240 -1.6210  0.9883
  191SLPC   C3922152   5.080   1.229   7.511  0.2878 -0.5120  1.1220
  191SLPC   H9X22153   5.015   1.317   7.491  2.6587  1.3259  1.0333
  191SLPC   H9Y22154   5.186   1.261   7.495  0.1303 -0.3933  0.2457
  191SLPC  C31022155   5.084   1.182   7.652 -0.6573 -0.1319  0.0580
  191SLPC  H10X22156   5.084   1.261   7.730 -3.8100 -1.4657  1.6105
  191SLPC  H10Y22157   5.181   1.132   7.668 -0.7980 -0.2960  0.4210
  191SLPC  C31122158   4.970   1.090   7.706  0.4706 -0.1674  0.0585
  191SLPC  H11X22159   4.939   1.014   7.632  2.2539  0.3222 -1.2666
  191SLPC  H11Y22160   4.878   1.149   7.725 -1.1398 -2.0912 -1.3686
  191SLPC  C31222161   4.996   1.000   7.831 -1.2201  0.2975  0.1295
  191SLPC  H12X22162   5.050   0.913   7.788  0.4243  1.8575 -1.1087
  191SLPC  H12Y22163   4.906   0.953   7.877 -0.6870 -2.3130 -1.3523
  191SLPC  C31322164   5.083   1.059   7.940 -0.4953 -0.3710  1.0316
  191SLPC  H13X22165   5.034   1.143   7.994 -0.3695 -0.4567  1.2796
  191SLPC  H13Y22166   5.172   1.109   7.894 -2.2644  2.1625  0.1459
  191SLPC  C31422167   5.122   0.959   8.042  0.3934  0.3258 -0.2405
  191SLPC  H14X22168   5.182   0.881   7.990 -0.6278 -0.3031 -0.4964
  191SLPC  H14Y22169   5.028   0.908   8.073  0.4982  1.3121  1.9227
  191SLPC  C31522170   5.189   1.022   8.172 -0.2577 -0.3634  0.0353
  191SLPC  H15X22171   5.280   1.079   8.143 -1.5296  1.0733 -1.3105
  191SLPC  H15Y22172   5.220   0.928   8.223  0.3074  1.0947  2.5826
  191SLPC  C31622173   5.088   1.103   8.240 -0.8205 -0.2455  0.2187
  191SLPC  H16X22174   4.993   1.048   8.258 -0.4227 -1.0965 -0.2244
  191SLPC  H16Y22175   5.067   1.193   8.179  1.8497 -0.0382 -0.5051
  191SLPC  C31722176   5.130   1.145   8.386  0.9770 -1.1097  0.7937
  191SLPC  H17X22177   5.041   1.186   8.438  0.7126  0.8664 -1.0734
  191SLPC  H17Y22178   5.181   1.242   8.366  0.6416 -1.0883  0.0120
  191SLPC  C31822179   5.205   1.050   8.480 -0.7318  0.5324 -0.2639
  191SLPC  H18X22180   5.313   1.045   8.454 -1.3014  3.6184 -4.2962
  191SLPC  H18Y22181   5.160   0.950   8.492  1.0812 -0.4289 -1.0582
  191SLPC  H18Z22182   5.212   1.096   8.581 -1.5571 -0.0757  0.0705
  192SLPC     N22183   6.041   1.201   5.693 -0.0769  0.1020  0.4726
  192SLPC   C1322184   6.085   1.061   5.669 -0.5043 -0.1292  0.3530
  192SLPC  H13A22185   6.127   1.057   5.570  2.0163  0.6090  1.2954
  192SLPC  H13B22186   6.161   1.029   5.739 -2.5879 -0.5288  2.5709
  192SLPC  H13C22187   6.010   0.984   5.668 -2.0768  1.3631 -1.3883
  192SLPC   C1422188   5.988   1.207   5.832  0.4340 -0.2549 -0.2086
  192SLPC  H14A22189   5.958   1.309   5.849 -1.1339 -0.6721 -0.3528
  192SLPC  H14B22190   5.896   1.153   5.848 -0.1798  0.2186 -1.8793
  192SLPC  H14C22191   6.060   1.187   5.910 -0.3978 -0.5676  0.4838
  192SLPC   C1522192   5.925   1.232   5.599  0.1656 -0.0435  0.5126
  192SLPC  H15A22193   5.842   1.169   5.628 -1.5309  1.9163  0.1017
  192SLPC  H15B22194   5.892   1.334   5.603 -1.0819 -0.3166 -1.5570
  192SLPC  H15C22195   5.946   1.213   5.495 -0.1563 -2.2777  0.8141
  192SLPC   C1222196   6.155   1.305   5.679 -0.4846 -0.8356 -0.7750
  192SLPC  H12A22197   6.116   1.400   5.713 -1.0334 -1.0434 -0.8170
  192SLPC  H12B22198   6.170   1.324   5.574  1.8490 -1.6303 -0.6440
  192SLPC   C1122199   6.296   1.276   5.726 -0.0094 -0.2930 -0.6755
  192SLPC  H11A22200   6.351   1.371   5.710 -0.6981  0.6909  2.1342
  192SLPC  H11B22201   6.349   1.204   5.660 -0.7591 -1.1162 -0.4142
  192SLPC     P22202   6.295   1.344   5.975 -0.0346 -0.1509  0.0372
  192SLPC   O1322203   6.405   1.446   5.954 -0.8647 -1.0645  1.2620
  192SLPC   O1422204   6.163   1.413   5.981 -0.6873  0.0061  0.3494
  192SLPC   O1222205   6.302   1.229   5.869  0.2232 -0.3054  0.0410
  192SLPC   O1122206   6.332   1.268   6.106  0.0002  0.1048  0.7092
  192SLPC    C122207   6.249   1.198   6.197  0.6941 -0.5944 -0.6692
  192SLPC    HA22208   6.182   1.124   6.149  1.8593 -0.8854 -1.9175
  192SLPC    HB22209   6.319   1.145   6.265 -0.2221 -0.2138  0.6020
  192SLPC    C222210   6.158   1.296   6.281 -0.2348 -0.6950 -0.1653
  192SLPC    HS22211   6.084   1.353   6.221 -0.0961  0.0962  0.3908
  192SLPC   O2122212   6.245   1.394   6.336  0.2979  0.4615 -0.1277
  192SLPC   C2122213   6.194   1.494   6.407 -0.7551  0.4545 -0.1480
  192SLPC   O2222214   6.076   1.529   6.408 -0.7488 -0.2849 -0.0824
  192SLPC   C2222215   6.301   1.556   6.499  0.0785  0.4939  0.9571
  192SLPC   H2R22216   6.384   1.592   6.435 -0.6106  1.1095  0.3766
  192SLPC   H2S22217   6.251   1.646   6.541 -0.6656  1.9354 -2.6004
  192SLPC    C322218   6.071   1.223   6.390  0.0254 -0.0690  0.3772
  192SLPC    HX22219   6.002   1.152   6.339 -0.9087 -0.8438  2.6056
  192SLPC    HY22220   6.011   1.301   6.441  0.2442 -1.2329  2.5171
  192SLPC   O3122221   6.148   1.147   6.489  0.1050  0.9676  0.3400
  192SLPC   C3122222   6.182   1.025   6.457  0.6292  0.5620 -0.2916
  192SLPC   O3222223   6.138   0.962   6.358  0.3332  0.8110  0.0252
  192SLPC   C3222224   6.283   0.972   6.565 -0.3785  0.2179  0.9351
  192SLPC   H2X22225   6.237   0.996   6.663 -2.0661 -0.8028  0.4421
  192SLPC   H2Y22226   6.382   1.022   6.571  0.3095 -1.2208  2.2686
  192SLPC   C2322227   6.364   1.448   6.596 -0.0011 -0.1554 -0.0954
  192SLPC   H3R22228   6.458   1.489   6.636 -1.2153 -0.2164  3.1068
  192SLPC   H3S22229   6.376   1.351   6.542  0.1374  0.4263 -1.1450
  192SLPC   C2422230   6.287   1.427   6.727 -0.3764  0.0201 -0.0753
  192SLPC   H4R22231   6.181   1.427   6.691 -0.8614 -2.7329  1.0699
  192SLPC   H4S22232   6.300   1.516   6.792  1.3200 -1.4075  1.6709
  192SLPC   C2522233   6.344   1.300   6.797  0.2738  0.2083 -0.1860
  192SLPC   H5R22234   6.341   1.215   6.726  0.1276  3.2826 -4.2385
  192SLPC   H5S22235   6.279   1.275   6.883  1.8659 -0.5194  0.8613
  192SLPC   C2622236   6.487   1.317   6.855  0.3310 -1.1335  0.5156
  192SLPC   H6R22237   6.481   1.404   6.924 -0.5008 -1.8464  1.3721
  192SLPC   H6S22238   6.559   1.333   6.772 -1.9584  1.9087 -1.1077
  192SLPC   C2722239   6.535   1.198   6.935  0.2241 -0.2214 -0.1881
  192SLPC   H7R22240   6.506   1.103   6.885  2.0744 -0.3720 -1.0545
  192SLPC   H7S22241   6.499   1.204   7.040  2.9916  1.2265  0.7649
  192SLPC   C2822242   6.691   1.196   6.944  0.4496  0.5033 -0.0867
  192SLPC   H8R22243   6.737   1.166   6.847  0.0326 -0.7278  0.0789
  192SLPC   H8S22244   6.720   1.120   7.020  0.4917 -0.2753 -0.8573
  192SLPC   C2922245   6.755   1.331   6.974  0.8123  0.2466  0.4585
  192SLPC   H9R22246   6.753   1.399   6.888  1.7287  0.0451  0.2635
  192SLPC  C21022247   6.809   1.376   7.091  0.0109 -0.1958  0.1824
  192SLPC  H10R22248   6.839   1.482   7.090 -2.5587  0.6029 -1.2518
  192SLPC  C21122249   6.812   1.309   7.230 -0.0279 -0.0654 -0.0540
  192SLPC  H11R22250   6.885   1.367   7.290 -1.1875  0.3290  1.0218
  192SLPC  H11S22251   6.842   1.202   7.225 -1.0408 -0.4546  1.2306
  192SLPC  C21222252   6.668   1.324   7.277  0.4362 -0.1707  0.1470
  192SLPC  H12R22253   6.585   1.310   7.206  0.4021  2.9343 -0.5820
  192SLPC  C21322254   6.635   1.345   7.407  0.3232 -0.4096  0.1094
  192SLPC  H13R22255   6.534   1.385   7.420  0.7386  1.4293 -1.7757
  192SLPC  C21422256   6.740   1.363   7.523  0.0857 -0.1025  0.3622
  192SLPC  H14R22257   6.685   1.427   7.596 -0.3565  0.8969 -0.8244
  192SLPC  H14S22258   6.827   1.428   7.497 -0.9851  1.0508 -0.4413
  192SLPC  C21522259   6.789   1.231   7.591  0.2980  0.2489  0.2450
  192SLPC  H15R22260   6.856   1.177   7.522  0.2240  0.8906 -0.3364
  192SLPC  H15S22261   6.708   1.156   7.604  2.4660 -2.6860 -1.8096
  192SLPC  C21622262   6.848   1.250   7.726  0.5523  0.2480  0.6614
  192SLPC  H16R22263   6.953   1.283   7.709  0.5378  0.3299  0.7245
  192SLPC  H16S22264   6.851   1.160   7.791 -0.4440 -1.2865 -1.3461
  192SLPC  C21722265   6.790   1.361   7.817  0.1131  0.6861  0.1012
  192SLPC  H17R22266   6.796   1.463   7.774 -0.7539  0.6282 -0.1765
  192SLPC  H17S22267   6.681   1.343   7.831  0.3235 -0.8015 -0.0462
  192SLPC  C21822268   6.852   1.346   7.958 -0.3670 -0.0324  0.0106
  192SLPC  H18R22269   6.958   1.380   7.950 -0.6977  1.2187  0.7570
  192SLPC  H18S22270   6.860   1.237   7.979  0.3811  0.2547  1.3092
  192SLPC  H18T22271   6.800   1.413   8.028 -1.2821 -1.3932  0.6769
  192SLPC   C3322272   6.308   0.824   6.581 -0.5998  0.4973 -0.6694
  192SLPC   H3X22273   6.361   0.778   6.495  2.4782 -2.1503  2.3326
  192SLPC   H3Y22274   6.206   0.782   6.569 -1.2000  1.8937 -0.6342
  192SLPC   C3422275   6.379   0.787   6.712  0.6608 -0.2729 -0.2108
  192SLPC   H4X22276   6.465   0.856   6.720 -0.3417  1.1397 -1.1026
  192SLPC   H4Y22277   6.427   0.687   6.702  1.4213  0.2446 -2.1992
  192SLPC   C3522278   6.294   0.784   6.841  0.3146  0.0561  0.0447
  192SLPC   H5X22279   6.334   0.696   6.896  1.6297 -0.9391 -2.3373
  192SLPC   H5Y22280   6.187   0.758   6.830  0.3431 -0.0590  0.0292
  192SLPC   C3622281   6.312   0.906   6.929  0.0641  0.0526 -0.0356
  192SLPC   H6X22282   6.260   0.996   6.891  0.3322  1.6143  2.9670
  192SLPC   H6Y22283   6.421   0.928   6.934 -0.1588  1.0285  0.8497
  192SLPC   C3722284   6.260   0.887   7.073  0.4335  0.0486  0.4161
  192SLPC   H7X22285   6.289   0.787   7.112 -0.7610 -0.6070 -0.3293
  192SLPC   H7Y22286   6.149   0.888   7.065  0.4413  0.3595  0.3428
  192SLPC   C3822287   6.303   0.990   7.179 -0.3016  0.5878 -0.1411
  192SLPC   H8X22288   6.281   1.093   7.142 -1.9879  0.6748  0.9942
  192SLPC   H8Y22289   6.413   0.988   7.190 -0.2675  0.9769 -0.3826
  192SLPC   C3922290   6.251   0.955   7.317 -0.2479  0.0686 -0.5581
  192SLPC   H9X22291   6.281   0.852   7.347  1.5742 -0.0380 -2.5755
  192SLPC   H9Y22292   6.140   0.957   7.308 -0.0999 -1.0636 -3.7033
  192SLPC  C31022293   6.295   1.064   7.424  0.6501 -0.0024  0.0086
  192SLPC  H10X22294   6.245   1.158   7.392 -0.1332 -0.8816 -1.4365
  192SLPC  H10Y22295   6.403   1.089   7.425 -0.0825  3.9192  2.4653
  192SLPC  C31122296   6.250   1.009   7.560  0.8445 -0.1312  0.4385
  192SLPC  H11X22297   6.281   0.903   7.574 -0.1152 -0.3754  0.8278
  192SLPC  H11Y22298   6.139   1.004   7.567  0.3496  1.7188 -3.5712
  192SLPC  C31222299   6.284   1.089   7.685 -0.3709 -0.4953  0.6138
  192SLPC  H12X22300   6.391   1.117   7.688 -0.7865  1.1484  0.9732
  192SLPC  H12Y22301   6.273   1.028   7.778  1.0721 -0.0047  1.1368
  192SLPC  C31322302   6.217   1.230   7.690  0.4617  0.6121  0.1923
  192SLPC  H13X22303   6.106   1.223   7.677  0.1703  1.4410  1.9547
  192SLPC  H13Y22304   6.254   1.296   7.609 -0.9514  0.0881 -0.9317
  192SLPC  C31422305   6.234   1.297   7.825 -0.5910  0.5130 -0.1555
  192SLPC  H14X22306   6.225   1.213   7.897  0.3126  0.8689  0.3816
  192SLPC  H14Y22307   6.148   1.363   7.850  0.7240  1.4037  2.3782
  192SLPC  C31522308   6.364   1.380   7.836  0.5014  0.1486 -0.7649
  192SLPC  H15X22309   6.363   1.446   7.746 -2.3505  0.0307 -0.9265
  192SLPC  H15Y22310   6.443   1.306   7.812  0.3383  0.5537 -2.7680
  192SLPC  C31622311   6.385   1.447   7.969 -0.5245 -0.5644 -0.3734
  192SLPC  H16X22312   6.304   1.520   7.988 -1.0000 -0.9772 -0.7855
  192SLPC  H16Y22313   6.476   1.509   7.950 -0.6116 -0.9522 -2.2987
  192SLPC  C31722314   6.438   1.352   8.078  0.2930 -0.2660 -0.0543
  192SLPC  H17X22315   6.534   1.318   8.034  1.0429 -2.7910  3.1693
  192SLPC  H17Y22316   6.381   1.257   8.084 -0.8045  0.2228 -2.0066
  192SLPC  C31822317   6.468   1.419   8.215  0.2503  0.0820  0.8054
  192SLPC  H18X22318   6.384   1.483   8.248 -1.6125 -0.5432 -2.2683
  192SLPC  H18Y22319   6.551   1.492   8.199 -0.1746  0.5466  0.7032
  192SLPC  H18Z22320   6.503   1.341   8.286  0.5583  0.1157  0.6927
  193SOD    SOD22321   2.021   3.666   3.870  0.2040  0.0186  0.5095
  194SOD    SOD22322   3.908   5.855   1.655 -0.0961 -0.4005  0.1238
  195SOD    SOD22323   3.061   3.818   1.427 -0.4058  0.5017  0.0276
  196SOD    SOD22324   1.713   6.461  16.810  0.3648 -0.0543 -0.0420
  197SOD    SOD22325   4.096   3.001  12.128  0.1759 -0.0013  0.6700
  198SOD    SOD22326   0.218   3.519  14.159 -0.4457 -0.1027  0.1453
  199SOD    SOD22327   5.197   6.463  11.793  0.2290 -0.0645 -0.0171
  200SOD    SOD22328   1.564   1.546   4.037  0.1343 -0.5667  0.4926
  201SOD    SOD22329   2.611   4.862   3.895 -0.1321  0.4340  0.3714
  202SOD    SOD22330   1.116   5.802  11.822 -0.2069  0.2149 -0.4524
  203SOD    SOD22331   5.321   2.938  14.410 -0.2012  0.1446 -0.1207
  204SOD    SOD22332   2.344   3.965   1.962 -0.0046  0.3438  0.0460
  205SOD    SOD22333   6.337   1.587  16.196  0.2385 -0.0165  0.0314
  206SOD    SOD22334   6.809   0.729   2.179  0.1255 -0.5433  0.4042
  207SOD    SOD22335   3.926   6.432   4.721 -0.0146  0.0588  0.2703
  208SOD    SOD22336   1.177   2.536  14.128 -0.4446  0.0014 -0.1750
  209SOD    SOD22337   1.555   6.146  10.138  0.7017  0.2262  0.3604
  210SOD    SOD22338   0.260   2.201   5.878 -0.1599 -0.0268  0.1310
  211SOD    SOD22339   4.284   4.151   0.656  0.5458  0.5780  0.0071
  212SOD    SOD22340   0.832   0.628  10.317  0.1068 -0.1842 -0.0253
  213SOD    SOD22341   5.178   5.790  16.529  0.0558 -0.2704 -0.5098
  214SOD    SOD22342   4.736   0.143   6.221 -0.3963 -0.3093  0.1849
  215SOD    SOD22343   4.717   2.410   5.645 -0.2132 -0.3932  0.2417
  216SOD    SOD22344   2.582   6.445  10.392  0.4380  0.3857  0.4992
  217SOD    SOD22345   2.819   5.247  16.231 -0.2451  0.0734 -0.3080
  218SOD    SOD22346   5.171   2.939  15.727  0.0487  0.0537  0.3958
  219SOD    SOD22347   1.216   0.800   2.192 -0.1672 -0.2206  0.0546
  220SOD    SOD22348   4.151   5.190  10.788  0.5387 -0.1294 -0.3542
  221SOD    SOD22349   3.414   2.787   1.298  0.3297 -0.5909 -0.1692
  222SOD    SOD22350   5.382   6.138   4.745  0.0521  0.2440  0.1356
  223SOD    SOD22351   0.790   4.458   3.329 -0.1483 -0.4596 -0.3136
  224SOD    SOD22352   0.923   6.119  10.635  0.7534  0.1037  0.3826
  225SOD    SOD22353   0.768   4.118  11.462 -0.0486 -0.0116 -0.3585
  226SOD    SOD22354   5.426   6.624   2.618 -0.6268 -0.8253  0.3907
  227SOD    SOD22355   2.076   3.096  11.018  0.1570  0.3450 -0.4021
  228SOD    SOD22356   2.441   5.153   1.013  0.1629  0.4333  0.0724
  229SOD    SOD22357   5.365   0.568   4.374 -0.1980  0.3371 -0.2055
  230SOD    SOD22358   5.515   4.403  10.882 -0.2232  0.4747  0.1175
  231SOD    SOD22359   5.542   2.143  10.488 -0.2969  0.0578  0.2580
  232SOD    SOD22360   1.320   0.173   4.474 -0.3247  0.1276  0.1038
  233SOD    SOD22361   5.746   5.533  13.867 -0.0290  0.2688  0.0722
  234SOD    SOD22362   5.379   2.525   3.413  0.2252 -0.0452  0.3227
  235SOD    SOD22363   0.182   3.930  13.723 -0.4139  0.1984 -0.1349
  236SOD    SOD22364   4.587   4.620   3.528 -0.4803  0.1562  0.0737
  237SOD    SOD22365   0.884   6.299   1.188 -0.1235 -0.1358  0.2511
  238SOD    SOD22366   6.394   3.647  11.062  0.7739 -0.7094  0.1972
  239SOD    SOD22367   1.287   4.126   6.002 -0.0316  0.4835  0.2469
  240SOD    SOD22368   5.699   1.888   5.752 -0.0166  0.1692 -0.0831
  241SOD    SOD22369   3.251   5.419  13.575  0.1148  0.1654  0.1163
  242SOD    SOD22370   1.049   2.855   0.334 -0.2357 -0.6152  0.1220
  243SOD    SOD22371   0.410   3.865   4.081 -0.1593  0.0387 -0.0755
  244SOD    SOD22372   6.366   5.677  11.036  0.7440 -0.0798 -0.1237
  245SOD    SOD22373   6.564   1.460  15.421 -0.2846  0.1398  0.1765
  246SOD    SOD22374   2.313   1.551   2.896  0.2480 -0.4097  0.2309
  247SOD    SOD22375   0.739   4.288  13.398  0.3570  0.0958  0.0455
  248SOD    SOD22376   0.213   6.253   1.207 -0.1110  0.0336  0.4722
  249SOD    SOD22377   3.839   2.102  15.403 -0.3130  0.2507 -0.4187
  250SOD    SOD22378   0.479   1.004  11.957 -0.3485  0.1923  0.4231
  251SOD    SOD22379   5.865   4.032   4.920  0.5979  0.2506 -0.6057
  252SOD    SOD22380   0.164   3.901  15.714 -0.2287 -0.1069 -0.1137
  253SOD    SOD22381   2.546   1.976  15.658 -0.0923 -0.0308 -0.1086
  254SOD    SOD22382   4.109   2.420   3.390 -0.3432  0.0381  0.4167
  255SOD    SOD22383   0.196   3.018  11.978 -0.1073 -0.5114  0.7367
  256SOD    SOD22384   3.899   1.026   5.390 -0.2288 -0.4027 -0.0675
  257SOD    SOD22385   2.869   2.119  12.488  0.5369  0.0855  0.3273
  258SOD    SOD22386   4.760   5.575   0.771  0.0262  0.1800  0.0050
  259SOD    SOD22387   6.901   6.476  13.048  1.0266 -0.1603  0.1405
  260SOD    SOD22388   0.707   0.517  11.611  0.6863  0.4245  0.4331
  261SOD    SOD22389   0.169   5.726   3.900 -0.3841  0.5236  0.2325
  262SOD    SOD22390   3.352   2.882   5.699  0.3502 -0.4473 -0.3675
  263SOD    SOD22391   2.717   5.612   2.217 -0.0158  0.2468 -0.3645
  264SOD    SOD22392   2.307   2.917   3.976  0.7131  0.1321  0.0086
  265SOD    SOD22393   4.012   0.873  11.137  0.3146  0.2805  0.0149
  266CLA    CLA22394   2.462   4.709   1.511  0.2950  0.1874  0.2420
  267CLA    CLA22395   2.945   6.654  15.203  0.1299  0.2038  0.2048
  268CLA    CLA22396   1.072   1.250  13.029  0.5499  0.1443  0.0513
  269CLA    CLA22397   3.692   1.231  16.050 -0.1915 -0.2755 -0.0145
  270CLA    CLA22398   0.738   0.722   5.296 -0.0674  0.3060  0.0194
  271CLA    CLA22399   5.722   0.299   3.413  0.1238 -0.0537 -0.0130
  272CLA    CLA22400   1.736   3.858   3.493 -0.2664 -0.0264  0.0298
  273CLA    CLA22401   0.491   1.945  15.084 -0.1428 -0.1079  0.2693
  274CLA    CLA22402   4.896   5.927   4.246  0.2203 -0.5015 -0.4034
  275CLA    CLA22403   6.492   1.470   2.855 -0.1272 -0.0455  0.3782
  276CLA    CLA22404   2.950   5.917   4.374 -0.2971 -0.0522 -0.0774
  277CLA    CLA22405   3.621   6.364  16.113  0.3968 -0.2443 -0.1073
  278CLA    CLA22406   0.117   4.822   0.596 -0.0333  0.1889 -0.0208
  279CLA    CLA22407   5.708   4.801   2.770 -0.1183  0.4994 -0.3754
  280CLA    CLA22408   0.677   1.029   3.365  0.0872 -0.2402  0.0833
  281CLA    CLA22409   1.407   3.940  16.045  0.0911  0.1658 -0.0558
  282CLA    CLA22410   3.224   4.810   0.626  0.0410 -0.1413 -0.3206
  283CLA    CLA22411   0.815   4.580   1.387 -0.1570 -0.3482  0.1189
  284CLA    CLA22412   0.231   3.046   2.293  0.1784  0.8047 -0.3849
  285CLA    CLA22413   1.548   0.713   3.253  0.2023 -0.0044 -0.4630
  286CLA    CLA22414   3.956   2.125  13.339  0.3145 -0.1786 -0.0577
  287CLA    CLA22415   4.969   6.400  15.102 -0.5674  0.1192 -0.3405
  288CLA    CLA22416   3.513   6.673  13.831  0.0822 -0.5447 -0.2762
  289CLA    CLA22417   1.525   6.685  10.923  0.3852  0.3282  0.0779
  290CLA    CLA22418   6.856   3.739  15.616  0.1866  0.1608 -0.1251
  291CLA    CLA22419   4.408   5.640  12.336  0.1074 -0.0099 -0.0630
  292CLA    CLA22420   0.251   1.530  11.632  0.1173 -0.4322 -0.2526
  293CLA    CLA22421   1.193   3.271  16.167 -0.3400  0.4575 -0.6285
  294CLA    CLA22422   0.947   5.742  16.022 -0.1595 -0.1194  0.1229
  295CLA    CLA22423   5.048   1.521  15.217 -0.0213  0.5601  0.2717
  296CLA    CLA22424   6.764   4.201  14.108  0.4253  0.0554  0.3272
  297CLA    CLA22425   5.003   6.701   0.230 -0.3871  0.1128  0.0797
  298CLA    CLA22426   0.724   3.747  16.103  0.0783 -0.2170 -0.1415
  299CLA    CLA22427   2.193   0.581   2.477 -0.0342  0.4097 -0.1698
  300CLA    CLA22428   4.842   2.994  14.923  0.3742  0.0214 -0.0184
  301CLA    CLA22429   0.800   2.763  13.811 -0.2363 -0.2601 -0.4315
  302CLA    CLA22430   1.685   6.201  16.884 -0.6583  0.0178 -0.1749
  303CLA    CLA22431   3.891   0.540   1.020 -0.2902  0.1984  0.0741
  304CLA    CLA22432   3.307   4.747   4.053 -0.5503  0.2482  0.1110
  305CLA    CLA22433   4.666   0.806  11.666 -0.0361  0.1354  0.2104
  306CLA    CLA22434   0.659   0.651   1.070  0.0192 -0.0767  0.1152
  307CLA    CLA22435   5.335   6.530  12.261 -0.1158 -0.1581  0.1517
  308CLA    CLA22436   0.796   6.009   3.578 -0.1207  0.3068  0.3215
  309CLA    CLA22437   3.070   3.624   4.131  0.0812  0.4171  0.2214
  310CLA    CLA22438   3.222   3.316  11.213 -0.2507  0.2309 -0.0603
  311CLA    CLA22439   0.369   4.998  13.953  0.0276 -0.3233 -0.3091
  312CLA    CLA22440   5.395   3.544   4.610  0.1589 -0.1079  0.2403
  313CLA    CLA22441   5.973   6.592   0.485 -0.5838  0.3465  0.1593
  314CLA    CLA22442   6.145   0.823   1.358  0.2769 -0.2964 -0.0381
  315CLA    CLA22443   0.220   1.001  15.962  0.1822  0.1459  0.3050
  316CLA    CLA22444   2.877   3.205  11.895  0.4032 -0.0563  0.2778
  317CLA    CLA22445   3.343   4.701  11.974  0.2564 -0.3425 -0.2285
  318CLA    CLA22446   1.129   6.307   2.015 -0.1255  0.1552  0.3505
  319TIP3   OH222447   4.386   0.909  11.772 -0.1666  0.1986 -0.0548
  319TIP3    H122448   4.396   0.887  11.864 -2.2298 -1.2306 -0.1033
  319TIP3    H222449   4.453   0.857  11.727  0.4152  0.4124  0.5410
  320TIP3   OH222450   1.804   1.575  15.330 -0.3618 -0.0752  0.5720
  320TIP3    H122451   1.807   1.523  15.250  1.2889  0.1295  0.4727
  320TIP3    H222452   1.731   1.635  15.317 -0.0984 -0.0264 -0.7961
  321TIP3   OH222453   4.580   0.819  12.905 -0.2453 -0.2952  0.1909
  321TIP3    H122454   4.663   0.773  12.919 -0.7538 -1.3109  0.0175
  321TIP3    H222455   4.518   0.773  12.962 -1.1400 -0.9564 -1.2420
  322TIP3   OH222456   3.105   6.515  12.915 -0.2924 -0.2945 -0.4552
  322TIP3    H122457   3.142   6.537  12.829  0.7890 -1.6250 -0.3760
  322TIP3    H222458   3.181   6.504  12.972 -0.9934  0.4446  0.6576
  323TIP3   OH222459   1.268   1.763  12.505  0.3170 -0.0847 -0.2099
  323TIP3    H122460   1.193   1.805  12.463  0.2597  0.3284  0.2971
  323TIP3    H222461   1.238   1.744  12.594  0.9086  0.3525  0.0884
  324TIP3   OH222462   6.023   1.871  13.629 -0.4021 -0.5242  0.4716
  324TIP3    H122463   6.057   1.818  13.557  2.3986  0.6744  0.7612
  324TIP3    H222464   5.980   1.808  13.687  1.3873 -2.2690  0.0169
  325TIP3   OH222465   6.785   6.023   4.682 -0.1484  0.3259  0.0143
  325TIP3    H122466   6.877   6.002   4.693 -0.1689  0.2264 -0.0079
  325TIP3    H222467   6.764   5.998   4.592 -0.5540 -0.9938  0.4492
  326TIP3   OH222468   6.368   1.623  12.438 -0.1122 -0.2141  0.6675
  326TIP3    H122469   6.285   1.577  12.427 -0.2049  0.3064 -1.1638
  326TIP3    H222470   6.344   1.716  12.438  0.1709 -0.0680  3.3875
  327TIP3   OH222471   2.551   5.524   9.901 -0.3175 -0.7061 -0.0229
  327TIP3    H122472   2.623   5.494   9.957 -0.2282 -0.2938  0.0863
  327TIP3    H222473   2.503   5.587   9.955 -0.3606 -0.4699 -0.3307
  328TIP3   OH222474   2.268   0.992  11.764  0.5488 -0.0017 -0.2955
  328TIP3    H122475   2.256   0.991  11.859  1.9057  2.0703 -0.0284
  328TIP3    H222476   2.184   1.023  11.731  0.3715  0.2231  0.3325
  329TIP3   OH222477   4.217   1.506  11.146 -0.1979  0.3666  0.2083
  329TIP3    H122478   4.123   1.522  11.133 -0.3224 -0.4511  0.0722
  329TIP3    H222479   4.247   1.581  11.198 -0.8249  0.8782 -0.1538
  330TIP3   OH222480   6.000   1.230   4.622 -0.3804 -0.1376  0.2198
  330TIP3    H122481   5.985   1.218   4.716  0.6867 -1.3875  0.2505
  330TIP3    H222482   6.036   1.319   4.616 -3.5497  1.3157  0.5631
  331TIP3   OH222483   4.804   1.313   5.631  0.2065 -0.2360  0.3051
  331TIP3    H122484   4.848   1.266   5.701  0.4940  1.9038  1.6733
  331TIP3    H222485   4.713   1.286   5.636  0.2857 -0.3183  1.3408
  332TIP3   OH222486   2.791   1.712  12.055  0.0482 -0.5871  0.1480
  332TIP3    H122487   2.707   1.752  12.033  0.1068  0.2583  1.3543
  332TIP3    H222488   2.781   1.620  12.032 -1.3727 -0.5891  0.6902
  333TIP3   OH222489   0.979   5.982  13.136  0.5054  0.3506  0.0899
  333TIP3    H122490   0.939   6.040  13.072  2.1210  1.4566  0.0263
  333TIP3    H222491   0.971   5.895  13.098 -3.2306  0.1971  0.8169
  334TIP3   OH222492   1.566   4.462  14.278  0.2570  0.0195  0.5552
  334TIP3    H122493   1.476   4.448  14.308  0.0475  2.3995  1.2381
  334TIP3    H222494   1.574   4.406  14.201 -0.9913 -2.0654  1.8483
  335TIP3   OH222495   4.630   3.983  14.738  0.0674 -0.2446  0.5073
  335TIP3    H122496   4.618   4.063  14.788 -0.6048  0.8724 -1.3212
  335TIP3    H222497   4.701   4.004  14.677  0.0848 -1.1556  0.1979
  336TIP3   OH222498   0.771   6.119  11.469 -0.1119  0.4562 -0.2502
  336TIP3    H122499   0.748   6.159  11.385  1.3130  2.3366  0.1864
  336TIP3    H222500   0.734   6.179  11.535  0.0354 -0.2210  0.4629
  337TIP3   OH222501   0.906   5.558  12.414  0.1907  0.5147 -0.4983
  337TIP3    H122502   0.818   5.540  12.379  0.1569 -0.7947  0.1752
  337TIP3    H222503   0.890   5.589  12.503  0.4191 -0.6329 -0.0383
  338TIP3   OH222504   3.990   5.789  16.672 -0.1788  0.0507 -0.3595
  338TIP3    H122505   3.943   5.860  16.716 -0.5578 -1.6464  2.2248
  338TIP3    H222506   4.081   5.817  16.672 -0.4365  0.9208 -0.1674
  339TIP3   OH222507   4.500   0.239  16.819 -0.3918 -0.1520  0.0110
  339TIP3    H122508   4.468   0.313  16.872 -0.6125 -0.1833 -0.0758
  339TIP3    H222509   4.451   0.246  16.737 -1.0310 -0.8760  0.3155
  340TIP3   OH222510   0.905   5.065   2.597 -0.0040 -0.1366  0.2619
  340TIP3    H122511   0.964   5.063   2.522 -1.7117 -1.7739 -1.1509
  340TIP3    H222512   0.961   5.050   2.673  1.6261  0.5076 -0.7708
  341TIP3   OH222513   4.238   2.325  10.673  0.0240  0.0018  0.3515
  341TIP3    H122514   4.255   2.323  10.579  0.4696 -2.8002  0.4245
  341TIP3    H222515   4.313   2.282  10.712 -0.5399  0.4057  1.9503
  342TIP3   OH222516   0.992   5.184   1.145 -0.4107  0.0122  0.2567
  342TIP3    H122517   0.908   5.229   1.145 -0.2434  0.3278  0.7640
  342TIP3    H222518   0.970   5.093   1.123 -1.0404 -0.1919  1.6306
  343TIP3   OH222519   0.514   6.318  12.233  0.3134 -0.2109 -0.0652
  343TIP3    H122520   0.509   6.236  12.283 -0.7574  0.1027  0.3719
  343TIP3    H222521   0.600   6.354  12.255  1.6047 -2.0712 -1.6543
  344TIP3   OH222522   3.883   4.147  12.064  0.7994  0.1124  0.0085
  344TIP3    H122523   3.931   4.127  12.145 -0.4818 -2.4452  0.2513
  344TIP3    H222524   3.920   4.088  11.999 -0.3988 -0.2555 -0.3788
  345TIP3   OH222525   1.273   3.906  16.746 -0.0679 -0.2194  0.0985
  345TIP3    H122526   1.245   3.918  16.836  2.7552 -0.0593  1.0541
  345TIP3    H222527   1.306   3.991  16.719 -1.1820 -0.1796 -1.2460
  346TIP3   OH222528   1.422   2.833  13.239  0.5090 -0.5220 -0.8501
  346TIP3    H122529   1.408   2.926  13.218  0.3159 -0.4766 -0.5237
  346TIP3    H222530   1.374   2.786  13.171 -1.7085 -0.3688  0.5456
  347TIP3   OH222531   1.331   3.482  16.414  0.5279  0.0842  0.0734
  347TIP3    H122532   1.324   3.557  16.355 -1.1588 -0.6265 -0.6628
  347TIP3    H222533   1.287   3.411  16.369 -0.4689 -0.5869  2.0041
  348TIP3   OH222534   5.038   1.986   0.713  0.5566  0.5075  0.2465
  348TIP3    H122535   5.115   1.929   0.719  1.4214  1.2535 -2.3846
  348TIP3    H222536   5.069   2.071   0.746  0.7591  0.6931 -0.4035
  349TIP3   OH222537   0.597   6.520  12.479 -0.0173  0.9005  0.6144
  349TIP3    H122538   0.678   6.516  12.530  1.0139 -2.2375 -1.0684
  349TIP3    H222539   0.545   6.446  12.510 -0.1218 -0.0064 -1.5687
  350TIP3   OH222540   1.857   1.141  14.089 -0.3209  0.3202 -0.4838
  350TIP3    H122541   1.914   1.096  14.151  0.8201  2.8142  0.4306
  350TIP3    H222542   1.775   1.155  14.136 -0.2519  0.2453 -0.3434
  351TIP3   OH222543   6.517   4.448   5.365  0.3453  0.3773  0.1226
  351TIP3    H122544   6.436   4.404   5.390  0.1363  0.9318  0.4356
  351TIP3    H222545   6.545   4.403   5.285  0.2475 -0.4548  0.5449
  352TIP3   OH222546   2.841   1.458  14.853 -0.4690  0.1814  0.0949
  352TIP3    H122547   2.881   1.371  14.859 -0.8394  0.0394  0.5628
  352TIP3    H222548   2.751   1.441  14.824  0.4635  0.6604 -3.4991
  353TIP3   OH222549   3.654   6.062  15.122  0.5769  0.0289 -0.1367
  353TIP3    H122550   3.688   6.151  15.131  1.0401 -0.2283  0.7984
  353TIP3    H222551   3.559   6.072  15.124  0.6211  0.5406 -0.4311
  354TIP3   OH222552   1.278   2.164   3.076 -0.1885 -0.0754  0.9391
  354TIP3    H122553   1.238   2.142   3.161 -1.5091 -2.0184 -0.1072
  354TIP3    H222554   1.346   2.098   3.064 -1.2595 -1.0040 -0.3039
  355TIP3   OH222555   1.987   0.568  12.535 -0.2445  0.1263 -0.0733
  355TIP3    H122556   2.052   0.573  12.605 -0.2866 -0.3926  0.0047
  355TIP3    H222557   1.935   0.647  12.545  0.1603  0.3764  0.0764
  356TIP3   OH222558   5.111   5.306  16.685 -0.4066  0.0602 -0.3673
  356TIP3    H122559   5.092   5.233  16.744 -0.8677  0.0204 -0.5631
  356TIP3    H222560   5.156   5.266  16.611  3.7926  0.5370  1.5954
  357TIP3   OH222561   6.227   6.437   2.471 -0.1153  0.7770 -0.0902
  357TIP3    H122562   6.146   6.467   2.514 -0.7191  0.4553 -0.9773
  357TIP3    H222563   6.293   6.440   2.540 -1.4129 -1.3279  1.3787
  358TIP3   OH222564   0.359   1.353  16.289 -0.0776  0.5894  0.0369
  358TIP3    H122565   0.318   1.269  16.269  0.7819  0.1720 -0.0141
  358TIP3    H222566   0.375   1.350  16.384 -1.2302  1.2489  0.2765
  359TIP3   OH222567   0.017   3.392   0.844  0.4953  0.2590  0.2346
  359TIP3    H122568   0.038   3.480   0.874 -0.1216  0.5079 -0.0539
  359TIP3    H222569   0.091   3.338   0.874  2.3474  1.3436 -2.0468
  360TIP3   OH222570   0.333   1.071  10.526  0.4137  0.2235 -0.5873
  360TIP3    H122571   0.266   1.033  10.470  1.0472 -1.1513 -0.4469
  360TIP3    H222572   0.337   1.163  10.499 -1.8584  0.4955 -0.2475
  361TIP3   OH222573   0.426   6.133  13.287 -0.1174  0.6360  0.5257
  361TIP3    H122574   0.408   6.046  13.323 -3.2538  0.8307 -0.2876
  361TIP3    H222575   0.344   6.180  13.296  1.1849  3.2103 -0.0397
  362TIP3   OH222576   2.731   5.056  13.433  0.3427 -0.8831 -0.3023
  362TIP3    H122577   2.679   5.065  13.353 -0.3415  0.1623  0.2360
  362TIP3    H222578   2.685   5.109  13.497  1.5426 -0.7321  0.4667
  363TIP3   OH222579   2.932   0.912  11.394 -0.7798 -0.1499 -0.0205
  363TIP3    H122580   2.956   0.857  11.318  1.4858 -0.0157  0.5140
  363TIP3    H222581   2.973   0.996  11.375 -0.0380 -0.1711  1.4019
  364TIP3   OH222582   3.471   5.439  14.764  0.1619  0.1074  0.1148
  364TIP3    H122583   3.544   5.439  14.702  1.3820 -1.2413  1.4701
  364TIP3    H222584   3.455   5.532  14.782  1.7112  0.4367 -0.0621
  365TIP3   OH222585   5.351   6.569   4.097  0.2984  0.4074 -0.0906
  365TIP3    H122586   5.442   6.580   4.068  0.1601  2.1365  0.0593
  365TIP3    H222587   5.302   6.557   4.016  0.5401  0.4028 -0.2390
  366TIP3   OH222588   2.896   4.035  12.545 -0.6997 -0.1793  0.2477
  366TIP3    H122589   2.987   4.007  12.551 -0.7931 -0.5019  0.1636
  366TIP3    H222590   2.885   4.064  12.455 -0.8071 -0.5888  0.1268
  367TIP3   OH222591   4.405   2.025   3.987 -0.1876 -0.0180  0.4657
  367TIP3    H122592   4.492   2.040   4.023  0.1090  0.8671 -0.5767
  367TIP3    H222593   4.373   1.947   4.032  0.9101 -0.0150  1.2696
  368TIP3   OH222594   5.040   5.427  13.004 -0.2807  0.1005 -0.0767
  368TIP3    H122595   5.128   5.417  12.966  0.3246  2.7022  0.4583
  368TIP3    H222596   4.990   5.472  12.937 -1.1875 -1.1681 -0.2850
  369TIP3   OH222597   1.098   1.702   4.812 -0.1042  0.1077 -0.0578
  369TIP3    H122598   1.130   1.756   4.740 -0.3650  0.1552 -0.1404
  369TIP3    H222599   1.021   1.748   4.845 -1.3282 -1.0427 -1.2118
  370TIP3   OH222600   6.283   1.483   3.245 -0.6730 -0.0061 -0.3764
  370TIP3    H122601   6.246   1.550   3.302 -0.2918 -1.0305  1.1128
  370TIP3    H222602   6.343   1.531   3.187 -1.5579  1.1378 -0.3707
  371TIP3   OH222603   3.418   5.833   4.767 -0.3896 -0.1373  0.2620
  371TIP3    H122604   3.418   5.748   4.723 -0.0284 -1.1720  2.1269
  371TIP3    H222605   3.497   5.831   4.821 -1.3548  0.5832  1.7642
  372TIP3   OH222606   6.412   0.037   2.951  0.4183 -0.4620  0.2338
  372TIP3    H122607   6.462  -0.031   2.996  0.8024  0.1734  0.7859
  372TIP3    H222608   6.477   0.083   2.898  0.3639  0.1406  0.6765
  373TIP3   OH222609   3.641   2.399   3.273 -0.5618  0.2251  0.1068
  373TIP3    H122610   3.600   2.413   3.358 -0.1034 -1.4950  0.6640
  373TIP3    H222611   3.611   2.312   3.246 -0.4790  0.6323 -1.3706
  374TIP3   OH222612   2.361   1.439  15.727 -0.1377  0.0765 -0.3037
  374TIP3    H122613   2.382   1.356  15.770  0.6052 -0.4937 -1.7053
  374TIP3    H222614   2.418   1.503  15.769 -0.6482 -0.1187  0.7222
  375TIP3   OH222615   5.195   6.787  11.341  0.1291 -0.5963  0.2354
  375TIP3    H122616   5.104   6.759  11.333  0.0583 -1.1051  2.2329
  375TIP3    H222617   5.199   6.867  11.288 -1.9465  0.3904  1.4068
  376TIP3   OH222618   3.979   2.068  11.869  0.1744  0.3857 -0.6996
  376TIP3    H122619   4.031   2.068  11.949 -1.5351  0.5985  0.4618
  376TIP3    H222620   4.026   2.127  11.809  0.3771  1.9126  0.9023
  377TIP3   OH222621   2.646   3.305  11.716  0.1698  0.0426  0.0750
  377TIP3    H122622   2.583   3.239  11.745 -1.3293  1.6450  0.6203
  377TIP3    H222623   2.711   3.309  11.786 -1.3979  1.2542  1.5177
  378TIP3   OH222624   4.180   6.523   4.264 -0.8839 -0.1624  0.1150
  378TIP3    H122625   4.112   6.463   4.294 -0.0768 -1.4202 -0.4837
  378TIP3    H222626   4.245   6.523   4.334 -0.6062 -0.4609 -0.1369
  379TIP3   OH222627   5.883   6.141  14.602 -0.1056  0.7787  0.2103
  379TIP3    H122628   5.957   6.089  14.632 -0.5402 -0.7381 -1.1572
  379TIP3    H222629   5.922   6.215  14.557  0.5575  0.9234  1.0146
  380TIP3   OH222630   1.789   6.591   2.982  0.6207 -0.7502  0.2990
  380TIP3    H122631   1.858   6.635   2.932 -0.2828  1.3900  0.8313
  380TIP3    H222632   1.717   6.579   2.919 -0.2862  1.3960  0.8416
  381TIP3   OH222633   1.996   0.313   2.095 -0.5480  0.1986 -0.1526
  381TIP3    H122634   1.995   0.298   2.189  0.1382 -0.0519 -0.1799
  381TIP3    H222635   1.971   0.405   2.085 -1.6650 -0.0553  0.2027
  382TIP3   OH222636   5.151   3.654   1.131  0.2956  0.3593  0.5593
  382TIP3    H122637   5.082   3.665   1.066 -0.0745  1.2793  1.0779
  382TIP3    H222638   5.106   3.660   1.215  0.9812  0.9166  0.9062
  383TIP3   OH222639   3.143   5.963  16.206 -0.1727 -0.5530 -0.2873
  383TIP3    H122640   3.059   5.932  16.239  0.1097  0.5104  1.5122
  383TIP3    H222641   3.127   6.054  16.179  0.7114  0.2046  1.5674
  384TIP3   OH222642   4.492   1.404   3.415  0.3654  0.0331 -0.6368
  384TIP3    H122643   4.511   1.372   3.327  1.1465 -2.3081  0.3098
  384TIP3    H222644   4.565   1.463   3.436  0.1570  0.6274 -1.5318
  385TIP3   OH222645   4.405   5.657   4.096 -0.3606 -0.3005 -0.0151
  385TIP3    H122646   4.444   5.621   4.175 -1.4765  0.4212  0.8999
  385TIP3    H222647   4.444   5.743   4.086 -1.4758  0.3270  0.7705
  386TIP3   OH222648   2.528   4.021  12.536  0.3129 -0.4895 -0.6024
  386TIP3    H122649   2.437   4.009  12.511  0.4463 -1.2203 -0.7801
  386TIP3    H222650   2.577   4.013  12.454  0.4748  0.7480 -0.6359
  387TIP3   OH222651   4.858   0.480  14.166  0.0864 -0.0828 -0.2021
  387TIP3    H122652   4.797   0.488  14.240 -0.0785  0.5593 -0.4000
  387TIP3    H222653   4.802   0.471  14.090  0.2135  0.8127 -0.4214
  388TIP3   OH222654   6.087   4.069   0.428 -0.5494  0.0238 -0.0441
  388TIP3    H122655   6.154   4.101   0.488 -0.4057 -0.4841  0.0728
  388TIP3    H222656   6.093   3.973   0.434  0.6026 -0.0837 -2.1274
  389TIP3   OH222657   1.154   3.088  13.190 -0.4795  0.3328  0.4630
  389TIP3    H122658   1.206   3.166  13.210 -0.3776  1.2707 -2.8654
  389TIP3    H222659   1.077   3.121  13.144 -0.3861 -1.5101 -1.1482
  390TIP3   OH222660   2.420   4.991  12.385 -0.1369  0.0875 -0.2078
  390TIP3    H122661   2.514   4.972  12.393 -0.1762 -0.7088 -1.3981
  390TIP3    H222662   2.404   5.060  12.450  1.6362  1.4492 -1.1220
  391TIP3   OH222663   1.222   2.509  14.379  0.1870  0.5723  0.1574
  391TIP3    H122664   1.287   2.445  14.405 -0.5714 -0.6219 -0.7702
  391TIP3    H222665   1.142   2.481  14.424 -0.3676  0.3099 -0.9625
  392TIP3   OH222666   3.819   1.520   0.963 -0.1927 -0.5217 -0.2681
  392TIP3    H122667   3.891   1.518   0.900 -0.7481 -0.1185 -0.9311
  392TIP3    H222668   3.773   1.602   0.944  0.2913  0.1858  1.4127
  393TIP3   OH222669   3.177   6.047   2.845 -0.2163  0.1241  0.1442
  393TIP3    H122670   3.235   6.024   2.773  1.3805  0.4426  1.2560
  393TIP3    H222671   3.155   5.963   2.886  1.3280  0.1177  1.0458
  394TIP3   OH222672   6.616   1.594  10.462 -0.0244 -0.0425 -0.0948
  394TIP3    H122673   6.630   1.558  10.374 -2.6874 -0.3929 -0.4562
  394TIP3    H222674   6.564   1.528  10.507  1.5644 -0.0140  1.9148
  395TIP3   OH222675   6.710   2.901   1.721  0.0491 -0.1470 -0.1043
  395TIP3    H122676   6.692   2.974   1.663  0.4651  0.8303  0.9620
  395TIP3    H222677   6.641   2.838   1.703 -0.5448  0.6807 -0.7674
  396TIP3   OH222678   5.206   3.778   6.414  0.2994 -0.3694 -0.3668
  396TIP3    H122679   5.126   3.766   6.364 -0.3515  1.6987  0.0839
  396TIP3    H222680   5.182   3.758   6.504  0.4188 -0.2197 -0.3013
  397TIP3   OH222681   4.485   1.803   1.756  0.2508 -0.6033 -0.0469
  397TIP3    H122682   4.437   1.729   1.718 -1.3373  0.2903  0.1400
  397TIP3    H222683   4.467   1.798   1.850 -1.2094  0.9236 -0.2162
  398TIP3   OH222684   6.108   3.499   3.984  0.0947  0.0484  0.0576
  398TIP3    H122685   6.127   3.405   3.985 -1.6758 -0.3779 -1.3323
  398TIP3    H222686   6.107   3.522   3.891  2.6323  1.9773  0.3807
  399TIP3   OH222687   3.718   4.082  12.325  0.0985  0.3735  0.3109
  399TIP3    H122688   3.667   4.037  12.392  1.5859 -0.7406  0.7375
  399TIP3    H222689   3.809   4.070  12.351  1.2156 -4.0532 -4.0977
  400TIP3   OH222690   0.973   6.424  16.430  0.5803  0.2953 -0.7768
  400TIP3    H122691   0.953   6.345  16.380 -0.9182  0.0973  0.0642
  400TIP3    H222692   1.029   6.393  16.501  0.3550  0.0685 -0.6974
  401TIP3   OH222693   4.813   2.986  12.702  0.4986  0.1584 -0.1546
  401TIP3    H122694   4.876   2.988  12.629  1.7045  1.3998  0.8500
  401TIP3    H222695   4.795   3.079  12.720  1.3954 -0.0298  2.0572
  402TIP3   OH222696   2.079   4.162  12.134 -0.0625 -0.0371  0.2565
  402TIP3    H122697   2.047   4.101  12.200 -2.2199  1.6162  0.8520
  402TIP3    H222698   2.010   4.164  12.068  0.0726  1.5449  0.1332
  403TIP3   OH222699   1.417   1.707   2.713  0.4438  0.7663  0.2328
  403TIP3    H122700   1.324   1.713   2.735  0.1114  0.3405 -0.9931
  403TIP3    H222701   1.435   1.788   2.665  0.1935 -0.0145 -1.2502
  404TIP3   OH222702   1.987   0.829  11.146  0.3488  0.4162  0.2519
  404TIP3    H122703   2.057   0.817  11.210 -0.0365 -0.2216  0.5709
  404TIP3    H222704   1.916   0.869  11.196  0.2807  0.5312  0.0652
  405TIP3   OH222705   0.651   5.745  11.730 -0.0476  0.0541 -0.4372
  405TIP3    H122706   0.651   5.841  11.729  1.3669  0.1127  0.5666
  405TIP3    H222707   0.653   5.723  11.823 -1.0837 -0.9829 -0.6416
  406TIP3   OH222708   5.300   3.203   5.790  0.1882 -0.8424 -0.3064
  406TIP3    H122709   5.287   3.199   5.695  0.9632  1.9760 -0.6413
  406TIP3    H222710   5.257   3.285   5.816  0.7352 -1.1285  1.6337
  407TIP3   OH222711   6.740   6.366  15.362 -0.5710  0.3093 -0.3515
  407TIP3    H122712   6.777   6.454  15.369  0.9400 -0.2439 -0.9450
  407TIP3    H222713   6.751   6.328  15.449  0.6569  0.0161 -0.6227
  408TIP3   OH222714   2.529   1.162   4.561  0.0912  0.2078 -0.4531
  408TIP3    H122715   2.520   1.079   4.609 -3.4404  0.8736  0.2946
  408TIP3    H222716   2.610   1.200   4.596  1.1741 -2.3242  0.0645
  409TIP3   OH222717   6.369   3.296  13.466 -0.0166 -0.2177 -0.3643
  409TIP3    H122718   6.443   3.246  13.499 -0.7614 -0.2344  1.3845
  409TIP3    H222719   6.355   3.263  13.378  1.1948 -1.1589 -0.2313
  410TIP3   OH222720   1.486   5.822  14.866 -0.2875 -0.2157 -0.4312
  410TIP3    H122721   1.483   5.765  14.789 -1.3676 -1.1002  0.2514
  410TIP3    H222722   1.441   5.773  14.934  1.6787  0.0351  1.1381
  411TIP3   OH222723   3.514   4.389  14.130  0.2624  0.7056 -0.0982
  411TIP3    H122724   3.448   4.418  14.067 -0.2205 -1.5649 -0.7240
  411TIP3    H222725   3.560   4.318  14.086  1.6086  0.7204  1.1979
  412TIP3   OH222726   3.573   2.695   2.059 -0.0696  0.4047  0.0676
  412TIP3    H122727   3.578   2.670   2.151 -1.0033 -1.0269 -0.2414
  412TIP3    H222728   3.512   2.632   2.020  0.7250  0.6347 -1.6464
  413TIP3   OH222729   4.837   1.602   5.664  0.1675 -0.3302 -0.9731
  413TIP3    H122730   4.855   1.508   5.662 -2.1528 -0.8575 -0.0623
  413TIP3    H222731   4.759   1.611   5.719 -0.5399  1.9851 -2.2065
  414TIP3   OH222732   0.183   5.972  15.622 -0.3586 -0.3058 -0.4918
  414TIP3    H122733   0.264   5.953  15.668  0.4084 -1.9878 -2.4068
  414TIP3    H222734   0.200   6.056  15.578  0.8931 -1.2712 -1.9455
  415TIP3   OH222735   5.910   4.454   3.772  0.3922 -0.5071 -0.6749
  415TIP3    H122736   5.923   4.435   3.864  1.8788 -0.1849 -0.7871
  415TIP3    H222737   5.993   4.430   3.730  0.0956  0.2631 -1.7622
  416TIP3   OH222738   6.713   1.868  13.195 -0.3973  0.5622 -0.2273
  416TIP3    H122739   6.779   1.908  13.138 -1.5965  1.1373 -1.2683
  416TIP3    H222740   6.684   1.791  13.146  1.8291 -1.6486  1.7155
  417TIP3   OH222741   6.857   5.327  16.302 -0.3177 -0.0157  0.3477
  417TIP3    H122742   6.795   5.330  16.229  0.3404  0.5290 -0.1943
  417TIP3    H222743   6.935   5.371  16.270  0.8973 -1.9029  0.5343
  418TIP3   OH222744   0.951   0.672   1.441  0.1415  0.0573  0.1018
  418TIP3    H122745   0.866   0.629   1.439 -0.4016  1.1230 -0.6344
  418TIP3    H222746   0.958   0.709   1.529 -1.2034  1.9550 -0.5417
  419TIP3   OH222747   1.210   3.934  15.410 -0.7668  0.1087  0.5320
  419TIP3    H122748   1.251   3.921  15.496 -1.4368  0.7167  0.9528
  419TIP3    H222749   1.276   3.905  15.347  1.1273  2.8111  1.0915
  420TIP3   OH222750   1.035   3.788  16.402  0.0032  0.6553  0.0398
  420TIP3    H122751   1.040   3.745  16.317 -1.0912  0.2589  0.1701
  420TIP3    H222752   1.119   3.767  16.444 -0.6282 -1.7104  0.2563
  421TIP3   OH222753   2.180   3.082  12.434  0.2164 -0.0171 -0.2260
  421TIP3    H122754   2.243   3.151  12.412 -1.8334  1.6967 -1.0158
  421TIP3    H222755   2.207   3.052  12.521  1.6756  1.1697 -0.2296
  422TIP3   OH222756   6.030   3.031   4.538 -0.3896  0.5431 -0.2245
  422TIP3    H122757   6.051   2.952   4.588  1.1896  1.0575  0.0005
  422TIP3    H222758   5.940   3.052   4.562  0.0938  0.4056  1.9227
  423TIP3   OH222759   5.211   4.431  11.565 -0.0446 -0.1561 -0.2566
  423TIP3    H122760   5.240   4.354  11.614  1.3297  0.9305  0.7158
  423TIP3    H222761   5.157   4.480  11.627  0.4317  0.4724 -0.3415
  424TIP3   OH222762   6.113   0.611  11.956  0.2805 -0.8043  0.5091
  424TIP3    H122763   6.104   0.555  11.879 -0.2921  0.4699 -0.3824
  424TIP3    H222764   6.207   0.617  11.971  0.3864 -1.2533  0.0410
  425TIP3   OH222765   5.442   0.331   0.254  0.2232 -0.2042  0.6275
  425TIP3    H122766   5.505   0.367   0.317  0.3299  0.4520  0.1593
  425TIP3    H222767   5.483   0.348   0.168  0.4075 -1.7056  0.4018
  426TIP3   OH222768   1.956   2.455  10.618 -0.4465  0.2684 -0.3356
  426TIP3    H122769   1.875   2.499  10.592 -0.6085  0.5698  0.6574
  426TIP3    H222770   1.928   2.369  10.649 -0.2390 -0.1369 -1.2291
  427TIP3   OH222771   5.369   2.353  10.268 -0.3577  0.0156  0.0792
  427TIP3    H122772   5.418   2.325  10.191 -0.3590  0.0991  0.0482
  427TIP3    H222773   5.422   2.422  10.307  0.3727 -1.0223  0.9742
  428TIP3   OH222774   2.487   6.351  11.494  0.2760 -0.0343  0.4924
  428TIP3    H122775   2.535   6.298  11.431  0.3772 -1.3427  1.6380
  428TIP3    H222776   2.491   6.302  11.576 -1.7137  0.5612  1.0060
  429TIP3   OH222777   4.127   0.929   1.095 -0.2701  0.2804 -0.0747
  429TIP3    H122778   4.203   0.924   1.152 -0.2000 -2.2533 -0.2759
  429TIP3    H222779   4.062   0.978   1.145  0.3948 -0.3447  1.4499
  430TIP3   OH222780   1.130   5.093   2.953  0.0130  0.0230 -0.7000
  430TIP3    H122781   1.137   5.186   2.933 -1.2723  0.7238  1.6864
  430TIP3    H222782   1.201   5.052   2.905  0.1092  2.1131 -2.4555
  431TIP3   OH222783   5.598   6.584  16.420  0.1657  0.2987 -0.1964
  431TIP3    H122784   5.579   6.656  16.481 -1.0443  0.2418 -0.4736
  431TIP3    H222785   5.571   6.505  16.467 -1.3402  0.3038 -0.9971
  432TIP3   OH222786   4.351   4.198   2.608  0.2018 -0.0876  0.0581
  432TIP3    H122787   4.283   4.141   2.645 -0.8339  0.4777 -0.8920
  432TIP3    H222788   4.433   4.157   2.634 -0.5015 -1.6700 -0.0349
  433TIP3   OH222789   5.948   6.837   4.137  0.0885  0.1733 -0.1023
  433TIP3    H122790   6.015   6.900   4.164  0.7403 -1.1433  1.5248
  433TIP3    H222791   5.935   6.781   4.214 -1.0377 -1.1826 -1.2259
  434TIP3   OH222792   3.400   4.778  14.490 -0.0147 -0.3466  0.0789
  434TIP3    H122793   3.393   4.687  14.518  0.0653 -0.1451  0.7605
  434TIP3    H222794   3.403   4.829  14.571 -0.9780  0.3374 -0.2948
  435TIP3   OH222795   1.473   3.937  16.347  0.0469  0.0057  0.2118
  435TIP3    H122796   1.514   4.021  16.367  0.7385 -0.0874 -0.7519
  435TIP3    H222797   1.454   3.941  16.254 -1.9139 -0.0702  0.5573
  436TIP3   OH222798   0.289   2.365  12.733  0.2838  0.5407 -0.0836
  436TIP3    H122799   0.241   2.282  12.737  0.7537  0.2835  0.2222
  436TIP3    H222800   0.259   2.405  12.651 -0.7479  0.5652  0.2867
  437TIP3   OH222801   0.259   4.374  13.016  0.3302  0.0785  0.1984
  437TIP3    H122802   0.213   4.426  13.082  1.7286  0.2237  1.1151
  437TIP3    H222803   0.244   4.283  13.042  0.6219  0.1275  0.5407
  438TIP3   OH222804   1.724   6.838   1.730  0.0419  0.3639 -0.0316
  438TIP3    H122805   1.745   6.751   1.764  0.3984  0.8792  1.1384
  438TIP3    H222806   1.650   6.824   1.672  0.7764 -0.8738 -0.7286
  439TIP3   OH222807   1.289   5.482  12.888  0.2324  0.0320  0.5130
  439TIP3    H122808   1.237   5.423  12.832 -0.1654 -1.5313  2.4024
  439TIP3    H222809   1.250   5.568  12.875 -2.2808 -0.9174  1.1197
  440TIP3   OH222810   5.365   0.572   4.599 -0.5860  0.6402 -0.0187
  440TIP3    H122811   5.293   0.540   4.654  0.8137 -0.8370  1.0198
  440TIP3    H222812   5.430   0.605   4.660  0.5718 -0.0865 -0.8269
  441TIP3   OH222813   1.603   1.847  15.183  0.5073 -0.2020 -0.2066
  441TIP3    H122814   1.565   1.778  15.237 -0.4664  0.3746 -0.1211
  441TIP3    H222815   1.556   1.840  15.100  0.6705  0.1099 -0.3265
  442TIP3   OH222816   6.014   2.982   2.022  0.2301 -0.0985  0.1789
  442TIP3    H122817   5.992   3.033   2.100 -0.3951 -0.1914  0.0677
  442TIP3    H222818   6.104   3.008   2.001  1.0131 -1.2905  1.8822
  443TIP3   OH222819   3.213   6.493  14.559 -0.2891 -0.3615 -0.2267
  443TIP3    H122820   3.166   6.420  14.600  1.6744 -1.4161  0.2936
  443TIP3    H222821   3.183   6.571  14.607 -1.1042 -1.0598  0.4185
  444TIP3   OH222822   5.749   4.500  15.883  0.1088 -0.2939  0.0690
  444TIP3    H122823   5.783   4.411  15.874  1.0452  0.0037  0.5701
  444TIP3    H222824   5.679   4.491  15.948  1.4089 -0.3860  1.5139
  445TIP3   OH222825   0.396   6.821   2.583 -0.0653  0.7101 -0.3525
  445TIP3    H122826   0.330   6.809   2.652 -0.4189  0.2994 -0.7587
  445TIP3    H222827   0.472   6.770   2.613 -1.0423 -1.4804 -1.3747
  446TIP3   OH222828   0.382   2.323  15.372  0.0048 -0.1185  0.9829
  446TIP3    H122829   0.393   2.229  15.382  0.1094 -0.2319 -0.1087
  446TIP3    H222830   0.291   2.340  15.399  0.2848 -0.3747  2.1177
  447TIP3   OH222831   2.217   2.669   1.305 -0.3185 -0.3216  0.0974
  447TIP3    H122832   2.144   2.626   1.259  0.5746 -1.6606 -0.1248
  447TIP3    H222833   2.176   2.711   1.380 -1.3683 -0.8120 -0.1785
  448TIP3   OH222834   4.570   2.505  15.362  0.7003 -0.0123  0.1302
  448TIP3    H122835   4.657   2.466  15.354 -0.0549 -1.7768  0.0996
  448TIP3    H222836   4.522   2.446  15.420 -0.4449  0.9837  0.2327
  449TIP3   OH222837   6.877   3.692   0.537 -0.1613 -0.3714 -0.0436
  449TIP3    H122838   6.782   3.683   0.531 -0.3573 -0.3653  2.2106
  449TIP3    H222839   6.891   3.783   0.563  0.5590 -0.0904 -1.3105
  450TIP3   OH222840   1.088   1.207  10.050  0.1501 -0.6524 -0.1847
  450TIP3    H122841   1.062   1.159   9.971  1.2820  0.5487 -1.3524
  450TIP3    H222842   1.104   1.138  10.115 -1.6935 -1.6244 -0.6848
  451TIP3   OH222843   5.249   0.561   2.037 -0.7790 -0.5059 -0.4201
  451TIP3    H122844   5.246   0.644   2.085 -1.1953 -0.9864  0.4207
  451TIP3    H222845   5.160   0.548   2.006 -1.1280 -1.4104  0.8587
  452TIP3   OH222846   3.455   3.382  15.493  0.2704 -0.5366  0.3846
  452TIP3    H122847   3.514   3.453  15.468 -1.2638  0.2425 -1.1829
  452TIP3    H222848   3.434   3.400  15.585 -0.2175  1.1543 -0.0258
  453TIP3   OH222849   2.063   0.579  16.640 -0.1485  0.8176 -0.2421
  453TIP3    H122850   2.030   0.530  16.716  0.7605 -1.1412 -1.0337
  453TIP3    H222851   1.994   0.571  16.575  0.4892 -0.5382 -0.7934
  454TIP3   OH222852   1.913   5.375  15.653  0.1857  0.3603 -0.0712
  454TIP3    H122853   1.877   5.301  15.604  0.3574 -0.1897  0.6110
  454TIP3    H222854   1.933   5.440  15.587  1.4416 -0.7852 -0.8616
  455TIP3   OH222855   2.184   2.995   3.783  0.5439  0.1390  0.6094
  455TIP3    H122856   2.241   2.999   3.706  0.5859  0.1456  0.6408
  455TIP3    H222857   2.095   2.997   3.747  0.5577  1.3556  0.6208
  456TIP3   OH222858   4.386   1.989  13.967 -0.3654 -0.5636  0.4651
  456TIP3    H122859   4.472   2.014  13.936 -0.6177 -1.3850 -0.9496
  456TIP3    H222860   4.325   2.026  13.903 -0.9591 -1.4059  0.5253
  457TIP3   OH222861   1.126   1.287   6.187 -0.4518 -0.2492 -0.1158
  457TIP3    H122862   1.083   1.291   6.102  1.5341  0.0271 -1.1545
  457TIP3    H222863   1.114   1.374   6.225 -1.1134 -0.2943 -0.2140
  458TIP3   OH222864   2.097   3.822   7.909  0.0987 -0.5286 -0.0640
  458TIP3    H122865   2.102   3.876   7.987  2.4683 -1.9628  0.9044
  458TIP3    H222866   2.122   3.880   7.837  2.3969 -0.1805  0.9214
  459TIP3   OH222867   2.714   6.899   2.308  0.2896  0.3906 -0.0825
  459TIP3    H122868   2.658   6.930   2.237 -0.5223 -1.2999 -0.2309
  459TIP3    H222869   2.708   6.804   2.303  1.2744  0.2158  1.4306
  460TIP3   OH222870   4.867   1.507  14.963 -0.1491 -0.3284 -0.4736
  460TIP3    H122871   4.920   1.520  15.041 -2.0741 -1.2031  1.0681
  460TIP3    H222872   4.930   1.497  14.892  1.6460  0.9467  0.8728
  461TIP3   OH222873   6.294   6.605   2.779 -0.1614 -0.3852 -0.2724
  461TIP3    H122874   6.310   6.513   2.798  1.5834 -0.3498 -1.2870
  461TIP3    H222875   6.381   6.645   2.779 -0.7958  1.0872 -0.7305
  462TIP3   OH222876   6.791   2.629   3.750 -0.3283  0.0138 -0.4217
  462TIP3    H122877   6.755   2.546   3.782 -0.1514  0.2877  0.5252
  462TIP3    H222878   6.748   2.695   3.804 -0.6727  0.5647 -1.3576
  463TIP3   OH222879   3.691   0.178  14.055  0.2266 -0.2461 -0.3284
  463TIP3    H122880   3.766   0.169  13.997 -0.1519  0.8434 -1.0071
  463TIP3    H222881   3.619   0.136  14.008 -0.0110  0.3674 -0.5170
  464TIP3   OH222882   6.357   4.977  12.517  0.6694 -0.0252 -0.2936
  464TIP3    H122883   6.297   5.018  12.455  0.1145  1.1411  0.9750
  464TIP3    H222884   6.377   4.892  12.477 -1.6710 -0.3852 -0.8740
  465TIP3   OH222885   0.780   0.456   1.307  0.0286  0.0714 -0.5016
  465TIP3    H122886   0.760   0.521   1.240 -0.5279 -1.1671 -1.5919
  465TIP3    H222887   0.875   0.446   1.302  0.1222  0.8025 -0.3055
  466TIP3   OH222888   3.330   1.225   0.064  1.1222  0.1081 -0.2810
  466TIP3    H122889   3.364   1.269  -0.014  1.2937  1.9552  0.7767
  466TIP3    H222890   3.337   1.290   0.134  0.3378 -1.2539  1.1481
  467TIP3   OH222891   6.720   6.826   2.391  0.2366 -1.2945 -0.0978
  467TIP3    H122892   6.641   6.842   2.443  1.4911  0.7963  1.3257
  467TIP3    H222893   6.689   6.826   2.300 -1.5453 -1.8005  0.4578
  468TIP3   OH222894   1.373   6.273   5.273 -0.6320  0.5576  0.1338
  468TIP3    H122895   1.420   6.206   5.322 -0.1486  1.3547  0.7998
  468TIP3    H222896   1.281   6.262   5.299 -0.1603  2.4665  3.2431
  469TIP3   OH222897   0.150   6.173   4.872  0.1911  0.7249 -0.0376
  469TIP3    H122898   0.109   6.250   4.833  1.4929  2.5909  2.0519
  469TIP3    H222899   0.094   6.150   4.946  0.3111  0.2373 -0.0961
  470TIP3   OH222900   4.286   1.783   4.058  0.1589 -0.3794 -0.4016
  470TIP3    H122901   4.205   1.759   4.101  1.1617 -0.3828  1.5884
  470TIP3    H222902   4.283   1.737   3.974 -1.3185 -1.3811  0.1552
  471TIP3   OH222903   0.895   3.883   2.349  0.2895 -0.8024 -0.3072
  471TIP3    H122904   0.823   3.945   2.340  1.3494  0.2709 -1.7387
  471TIP3    H222905   0.919   3.887   2.441 -0.2515  0.2415 -0.1977
  472TIP3   OH222906   2.044   0.050  13.586 -0.1123 -0.7160  0.0741
  472TIP3    H122907   2.042   0.074  13.679  0.8481  0.0528 -0.0874
  472TIP3    H222908   2.040   0.134  13.540 -0.2411 -1.0756 -0.5722
  473TIP3   OH222909   0.943   5.187  16.885 -0.2913  0.0147 -0.1210
  473TIP3    H122910   0.859   5.225  16.911  0.2536  0.1763  1.4940
  473TIP3    H222911   0.944   5.195  16.790 -0.1004  4.2726  0.0551
  474TIP3   OH222912   2.990   4.434   4.529  0.5723 -0.0986  0.5946
  474TIP3    H122913   2.981   4.528   4.544 -0.9386 -0.1689  0.2784
  474TIP3    H222914   3.070   4.425   4.478 -0.0362  1.1647 -0.6329
  475TIP3   OH222915   5.750   5.205   5.417 -0.0633  0.1810  0.2307
  475TIP3    H122916   5.676   5.164   5.462 -0.8101  1.4504  0.2095
  475TIP3    H222917   5.819   5.139   5.420 -1.0948 -0.9274  0.5116
  476TIP3   OH222918   3.833   4.547   2.827  0.0822  0.0525  0.2204
  476TIP3    H122919   3.914   4.530   2.875  0.2042  3.3778  1.4870
  476TIP3    H222920   3.764   4.542   2.893 -0.3087  0.3634 -0.1517
  477TIP3   OH222921   0.512   3.425   4.020  0.1547  0.2550  0.0169
  477TIP3    H122922   0.498   3.334   3.994 -0.6960  0.2698  0.3977
  477TIP3    H222923   0.520   3.472   3.937 -0.9370  0.0589 -0.2220
  478TIP3   OH222924   0.475   2.546   5.996 -0.2581 -0.2447 -0.0616
  478TIP3    H122925   0.416   2.609   5.955 -2.1979 -3.0063 -1.8575
  478TIP3    H222926   0.452   2.548   6.089  1.4597  3.2830  0.4594
  479TIP3   OH222927   2.872   1.087  16.623  0.0847 -0.3102  0.7379
  479TIP3    H122928   2.849   1.151  16.691 -0.9783 -0.4222  0.5066
  479TIP3    H222929   2.967   1.097  16.612 -0.0365  1.1451  0.7809
  480TIP3   OH222930   1.426   5.000   4.155 -0.0985 -0.0123  0.0665
  480TIP3    H122931   1.479   5.019   4.077  0.1513  0.3192  0.3093
  480TIP3    H222932   1.464   5.056   4.223  0.4409 -1.1513  0.7299
  481TIP3   OH222933   5.033   0.799   2.338  0.3669  0.4402  0.5130
  481TIP3    H122934   5.086   0.780   2.261 -0.0298 -0.4040  0.4277
  481TIP3    H222935   4.959   0.849   2.304  0.6433  0.8360  0.4890
  482TIP3   OH222936   1.036   0.878  12.370  0.1013  0.4963  0.1729
  482TIP3    H122937   1.072   0.804  12.321 -0.8953 -0.4975  0.8689
  482TIP3    H222938   1.060   0.955  12.319  0.3814 -0.3844 -1.0770
  483TIP3   OH222939   0.357   0.738  11.265  0.4465  0.3736 -0.3221
  483TIP3    H122940   0.282   0.792  11.242 -0.6020 -0.5521  0.7715
  483TIP3    H222941   0.404   0.724  11.183  0.8380  3.0046 -0.6203
  484TIP3   OH222942   0.440   6.073  13.629 -0.1166  0.4731 -0.3189
  484TIP3    H122943   0.396   5.990  13.646 -1.1766  0.8080 -1.3378
  484TIP3    H222944   0.500   6.083  13.703 -0.9987 -0.5054  0.5705
  485TIP3   OH222945   6.172   1.706   4.688  0.1194  0.0504 -0.1934
  485TIP3    H122946   6.085   1.732   4.720 -0.2066 -1.1110 -0.0716
  485TIP3    H222947   6.231   1.723   4.761 -0.4592 -1.6339  0.7213
  486TIP3   OH222948   0.652   1.748  14.543 -0.0911 -0.0159  0.5330
  486TIP3    H122949   0.636   1.840  14.521  0.2809  0.3007  1.5310
  486TIP3    H222950   0.748   1.742  14.549 -0.1744 -0.0148  2.2808
  487TIP3   OH222951   0.667   1.673  11.861  0.3384 -0.1261 -0.2685
  487TIP3    H122952   0.613   1.716  11.795 -0.3343  2.5042  1.8328
  487TIP3    H222953   0.753   1.714  11.853  0.3934 -0.1465  0.1787
  488TIP3   OH222954   4.723   6.824  15.269 -0.2020  0.4593 -0.0900
  488TIP3    H122955   4.746   6.823  15.362  0.8811  0.3417 -0.3358
  488TIP3    H222956   4.740   6.735  15.239 -4.7441 -0.8213  0.4914
  489TIP3   OH222957   5.363   5.074   0.247 -0.2449  0.2896  0.4316
  489TIP3    H122958   5.309   5.020   0.305 -2.0379 -0.1573 -1.5410
  489TIP3    H222959   5.452   5.039   0.258 -0.7701 -0.6767  1.8560
  490TIP3   OH222960   4.778   6.632  16.858  0.1263 -0.5706  0.6389
  490TIP3    H122961   4.722   6.628  16.935 -0.7062 -1.7440 -0.0000
  490TIP3    H222962   4.853   6.684  16.886 -1.3213  1.1973  1.4752
  491TIP3   OH222963   3.851   5.796   1.255 -0.0397  0.1965  0.5627
  491TIP3    H122964   3.851   5.758   1.167 -0.5854  0.0606  0.6182
  491TIP3    H222965   3.821   5.886   1.243 -2.2692 -0.4547  0.8564
  492TIP3   OH222966   0.584   4.987   4.253  0.1901 -0.3708 -0.3100
  492TIP3    H122967   0.511   5.047   4.235 -0.1733 -0.9327 -0.7462
  492TIP3    H222968   0.655   5.019   4.196 -0.0245 -0.3956 -0.5957
  493TIP3   OH222969   6.402   1.137  12.416  0.7789 -0.0041 -0.3940
  493TIP3    H122970   6.356   1.211  12.457 -0.1646 -1.1524  0.6703
  493TIP3    H222971   6.452   1.097  12.486 -1.4966 -2.4946 -0.0352
  494TIP3   OH222972   4.974   0.833   1.727 -0.2481  0.1753  0.0303
  494TIP3    H122973   5.049   0.821   1.669 -0.9157 -0.3426 -0.7496
  494TIP3    H222974   4.961   0.747   1.767  1.1481  0.8709  2.1737
  495TIP3   OH222975   2.122   1.674   6.524 -0.0406  0.3057  0.8362
  495TIP3    H122976   2.134   1.725   6.444 -0.1612  1.3254  1.4452
  495TIP3    H222977   2.029   1.653   6.526 -0.5570  2.3676  1.8722
  496TIP3   OH222978   1.731   5.284   5.183  0.0453 -0.3422  0.3133
  496TIP3    H122979   1.636   5.294   5.192 -0.0944 -1.4116  0.1148
  496TIP3    H222980   1.745   5.262   5.091  0.4715 -0.3309  0.3720
  497TIP3   OH222981   3.612   0.098   5.745  0.4395 -0.1852  0.1722
  497TIP3    H122982   3.564   0.027   5.788 -0.0968 -0.0411 -0.1842
  497TIP3    H222983   3.695   0.057   5.718 -0.1506 -0.8726 -0.6544
  498TIP3   OH222984   3.114   2.143  16.063 -0.4564  0.3468 -0.1157
  498TIP3    H122985   3.143   2.091  16.138 -2.4688 -0.4610  0.1620
  498TIP3    H222986   3.177   2.121  15.994  0.4980 -0.1239  0.8692
  499TIP3   OH222987   0.678   4.323   1.019  0.6182 -0.3703  0.2276
  499TIP3    H122988   0.704   4.299   0.930  1.2938  0.0400  0.3052
  499TIP3    H222989   0.737   4.395   1.043  0.7081 -0.7302  1.1474
  500TIP3   OH222990   5.713   3.107   1.423 -0.5043  0.6938  0.1124
  500TIP3    H122991   5.650   3.175   1.399  0.2417  1.0435 -0.9085
  500TIP3    H222992   5.760   3.087   1.342  0.0015 -0.3009  0.6246
  501TIP3   OH222993   5.274   4.123   4.379  0.9769  0.0900 -0.1977
  501TIP3    H122994   5.186   4.147   4.353  1.3982 -0.5011 -2.3795
  501TIP3    H222995   5.264   4.038   4.422  0.4459  0.2343 -0.0281
  502TIP3   OH222996   1.705   5.549  12.922 -0.4653 -0.0193  0.4222
  502TIP3    H122997   1.642   5.527  12.853 -1.7921 -0.5586  1.7510
  502TIP3    H222998   1.723   5.642  12.910  1.2263 -0.5757 -2.1081
  503TIP3   OH222999   1.892   0.545   2.401 -0.7770  0.0516  0.1342
  503TIP3    H123000   1.980   0.543   2.438 -0.8452 -1.3842  0.2746
  503TIP3    H223001   1.904   0.580   2.312  0.4611 -2.8985 -1.0249
  504TIP3   OH223002   6.371   6.327   4.591  0.5762  0.9679 -0.3445
  504TIP3    H123003   6.411   6.281   4.517 -1.6981 -1.6693 -0.1025
  504TIP3    H223004   6.304   6.383   4.551 -0.6068 -0.4069 -0.3921
  505TIP3   OH223005   1.794   2.280  15.083 -0.0537  0.5736  0.3033
  505TIP3    H123006   1.793   2.329  15.001 -0.0887  1.4816  0.8264
  505TIP3    H223007   1.730   2.210  15.070  2.3642 -1.4348 -1.6628
  506TIP3   OH223008   0.881   0.506  12.615  0.4206  0.4258  0.0841
  506TIP3    H123009   0.813   0.572  12.627  0.9497  0.5634  3.1042
  506TIP3    H223010   0.847   0.448  12.547 -1.1192  2.4130 -0.9579
  507TIP3   OH223011   0.704   1.003   5.960  0.7171  0.2650 -0.0925
  507TIP3    H123012   0.660   1.020   5.876 -0.1341  2.0751  0.6894
  507TIP3    H223013   0.750   0.920   5.945  0.0718  0.2081 -2.1425
  508TIP3   OH223014   3.069   5.457  15.838 -0.4812 -0.2423  0.1158
  508TIP3    H123015   3.164   5.453  15.832 -0.5806 -3.0149 -1.2022
  508TIP3    H223016   3.052   5.524  15.904  2.3134  1.1633 -0.4446
  509TIP3   OH223017   3.934   3.934  10.555 -0.2271  0.0298  0.2288
  509TIP3    H123018   3.994   3.880  10.503 -0.8741 -1.8141  1.3147
  509TIP3    H223019   3.925   4.015  10.505  0.5765 -0.9633 -1.5993
  510TIP3   OH223020   6.696   0.579   0.962 -0.1876 -0.1827 -0.4242
  510TIP3    H123021   6.668   0.487   0.958  1.1043 -0.5783 -0.9389
  510TIP3    H223022   6.649   0.615   1.038 -1.6739 -0.9107 -0.9438
  511TIP3   OH223023   2.410   2.510   3.298 -0.2643  0.4802 -0.8235
  511TIP3    H123024   2.434   2.586   3.351 -2.0854  0.8199 -0.4203
  511TIP3    H223025   2.359   2.547   3.225 -2.3507 -0.4203  0.1060
  512TIP3   OH223026   6.471   0.124   3.723 -0.1193  0.3323 -0.3217
  512TIP3    H123027   6.535   0.176   3.674  0.5563 -1.0608 -0.9869
  512TIP3    H223028   6.417   0.083   3.655 -0.3618 -0.1643  0.1660
  513TIP3   OH223029   0.327   0.423   4.266 -0.3953  0.0502  0.5334
  513TIP3    H123030   0.400   0.472   4.303 -0.7634  0.2529  0.9977
  513TIP3    H223031   0.325   0.450   4.174 -0.4647  0.7547  0.7340
  514TIP3   OH223032   5.906   1.082  12.201 -0.3010  0.2873 -0.1263
  514TIP3    H123033   5.812   1.067  12.196 -0.0422 -1.0655 -2.3338
  514TIP3    H223034   5.933   1.038  12.282 -1.2538 -1.5487 -0.7414
  515TIP3   OH223035   2.282   5.600  15.908  0.5915 -0.0807 -0.5028
  515TIP3    H123036   2.240   5.582  15.992 -0.7677 -0.4713 -1.2441
  515TIP3    H223037   2.356   5.656  15.931  0.2817 -0.2119  0.9587
  516TIP3   OH223038   1.576   3.368  12.542 -0.2863  0.0487 -0.0754
  516TIP3    H123039   1.603   3.316  12.466  2.6333  2.0947 -0.6162
  516TIP3    H223040   1.566   3.457  12.508 -1.3657  0.5923  1.5225
  517TIP3   OH223041   0.486   2.133  13.842  0.0533 -0.0410  0.1024
  517TIP3    H123042   0.490   2.197  13.771 -0.8945 -0.7954 -0.6589
  517TIP3    H223043   0.514   2.051  13.802 -0.0934 -0.3917  0.7092
  518TIP3   OH223044   6.283   1.691   4.405  0.4189 -0.6043  0.1270
  518TIP3    H123045   6.348   1.652   4.346  1.3681  0.5227  0.3909
  518TIP3    H223046   6.293   1.785   4.393  0.2501 -0.3625  1.6828
  519TIP3   OH223047   0.788   6.633   2.555  0.0319 -0.1329  0.5020
  519TIP3    H123048   0.793   6.647   2.649 -0.6008 -0.3031  0.5662
  519TIP3    H223049   0.706   6.675   2.529 -0.7230 -1.6584  0.3303
  520TIP3   OH223050   4.547   0.096  15.537 -0.8770  0.3960  0.6101
  520TIP3    H123051   4.637   0.088  15.505  0.3164  1.2024  3.4276
  520TIP3    H223052   4.532   0.190  15.542 -1.0245  0.3136  2.2203
  521TIP3   OH223053   3.060   6.148   5.671  0.2371 -0.1208  0.4844
  521TIP3    H123054   3.061   6.236   5.710 -0.1201 -0.2686  0.8248
  521TIP3    H223055   3.030   6.091   5.741 -0.3101 -0.4052  0.0257
  522TIP3   OH223056   5.771   5.950  15.784 -0.6270  0.0109 -0.4999
  522TIP3    H123057   5.839   5.980  15.723 -1.0003 -0.0242 -0.9341
  522TIP3    H223058   5.697   5.927  15.729 -1.0080  0.0715 -0.0232
  523TIP3   OH223059   4.621   6.780   1.009  0.5606 -0.0710 -0.0865
  523TIP3    H123060   4.536   6.768   1.052  0.7844 -0.1289  0.3386
  523TIP3    H223061   4.673   6.704   1.035  0.4132 -0.5612 -1.1585
  524TIP3   OH223062   5.680   5.008  13.734 -0.0509  0.1618  0.0004
  524TIP3    H123063   5.640   5.093  13.712  1.7664  0.3852 -2.8382
  524TIP3    H223064   5.616   4.943  13.704 -0.5705  0.5141  0.3346
  525TIP3   OH223065   6.724   4.323   4.274 -0.1572 -0.2064  0.0357
  525TIP3    H123066   6.732   4.418   4.264 -1.2900  0.0051  0.9426
  525TIP3    H223067   6.636   4.303   4.244  0.0060 -0.9533  0.0374
  526TIP3   OH223068   5.836   5.115  16.082 -0.2481 -0.2346  0.0089
  526TIP3    H123069   5.748   5.086  16.055  0.8004 -2.6860 -1.0879
  526TIP3    H223070   5.888   5.111  16.002  0.9558  0.9854  0.6955
  527TIP3   OH223071   0.443   2.198  16.390  0.1317 -0.1927  0.2318
  527TIP3    H123072   0.529   2.159  16.405  0.0470  0.0733  1.6056
  527TIP3    H223073   0.460   2.276  16.338  0.2815 -2.0868 -2.7517
  528TIP3   OH223074   4.591   2.663  14.741 -0.0397  0.2893 -0.1899
  528TIP3    H123075   4.657   2.594  14.742  0.5377  0.8278 -0.8638
  528TIP3    H223076   4.640   2.743  14.725 -0.7093  0.8663  0.5526
  529TIP3   OH223077   4.156   2.718   1.244  0.1508  0.2115  0.3586
  529TIP3    H123078   4.152   2.646   1.181 -1.5284 -0.8548  1.5772
  529TIP3    H223079   4.088   2.697   1.308  1.9956  1.0258  2.7384
  530TIP3   OH223080   0.057   0.714  11.317  0.8519  0.7364  0.0672
  530TIP3    H123081   0.068   0.809  11.324  1.9961  0.5556  1.1648
  530TIP3    H223082  -0.031   0.697  11.350  1.3358  1.2621  1.7374
  531TIP3   OH223083   2.459   5.966   4.502  0.1867  0.6421  0.2370
  531TIP3    H123084   2.483   6.059   4.503  1.2828  0.3910 -0.5989
  531TIP3    H223085   2.425   5.951   4.413 -1.1096  0.4881  0.7298
  532TIP3   OH223086   0.648   1.581  11.126 -0.3445 -0.0129  0.2784
  532TIP3    H123087   0.568   1.628  11.150 -0.6404 -0.4183  0.0896
  532TIP3    H223088   0.718   1.630  11.169 -0.7703 -0.1460  1.1313
  533TIP3   OH223089   4.789   0.653  16.641  0.4130  0.1175  0.1224
  533TIP3    H123090   4.872   0.611  16.615  0.5725  1.1037 -1.0473
  533TIP3    H223091   4.728   0.580  16.650  0.1682 -0.3732 -3.7496
  534TIP3   OH223092   6.045   2.758   1.763 -0.5398 -0.1848  0.4332
  534TIP3    H123093   6.042   2.852   1.745  0.6128 -0.1091  0.5586
  534TIP3    H223094   5.957   2.727   1.741 -0.8010  0.8404 -0.0502
  535TIP3   OH223095   1.290   6.174   1.573 -0.1153  0.2325  0.0800
  535TIP3    H123096   1.224   6.242   1.589  0.2060  0.2040  1.6858
  535TIP3    H223097   1.321   6.191   1.484 -0.0621  2.1884  0.4316
  536TIP3   OH223098   2.231   4.860  15.154 -0.0622  0.2042  0.6253
  536TIP3    H123099   2.289   4.796  15.110 -1.7380 -1.6053  0.9070
  536TIP3    H223100   2.230   4.832  15.246 -1.0299  0.4567  0.7035
  537TIP3   OH223101   1.423   6.573  14.325  0.5792 -0.5682 -0.1097
  537TIP3    H123102   1.428   6.555  14.418 -0.6599 -2.2273 -0.3164
  537TIP3    H223103   1.447   6.490  14.283 -0.3024 -0.2819 -1.2308
  538TIP3   OH223104   3.341   4.815   4.436  0.1323 -0.3723 -0.0719
  538TIP3    H123105   3.272   4.877   4.459  0.0691  0.4767 -2.2515
  538TIP3    H223106   3.326   4.796   4.343  2.7721 -0.1859 -0.6262
  539TIP3   OH223107   3.649   4.255  15.887 -0.4410 -0.0915  0.4500
  539TIP3    H123108   3.627   4.194  15.816 -0.3735  0.1083  0.2569
  539TIP3    H223109   3.675   4.335  15.842  1.7521 -0.6422  0.5971
  540TIP3   OH223110   1.538   0.003  10.682  1.2346 -0.0126 -0.6345
  540TIP3    H123111   1.625  -0.028  10.658  1.1599 -0.1055 -0.7896
  540TIP3    H223112   1.501  -0.068  10.735  0.5791 -0.7689 -2.0461
  541TIP3   OH223113   3.791   6.421  12.372 -0.1885 -0.1329  0.4000
  541TIP3    H123114   3.730   6.349  12.357 -0.0558 -0.0456 -0.6557
  541TIP3    H223115   3.791   6.434  12.467 -1.9135 -0.0254  0.4037
  542TIP3   OH223116   2.210   5.696  15.205 -0.6763  0.0253 -0.5932
  542TIP3    H123117   2.246   5.617  15.244 -2.3045  0.0349  1.0669
  542TIP3    H223118   2.281   5.732  15.153  1.6865  0.0148  2.3797
  543TIP3   OH223119   3.646   1.885  11.000 -0.7062  0.6206  0.4434
  543TIP3    H123120   3.552   1.890  11.020 -0.9836  1.3294 -0.9454
  543TIP3    H223121   3.681   1.970  11.025 -0.8766  1.1699 -1.1261
  544TIP3   OH223122   4.717   5.811  14.862 -0.2211  0.4318 -0.1364
  544TIP3    H123123   4.645   5.749  14.843 -0.9108  0.8213  1.0623
  544TIP3    H223124   4.731   5.801  14.957  1.3666  0.3260 -0.3672
  545TIP3   OH223125   1.609   6.809  12.462 -0.6891 -0.6758  0.5272
  545TIP3    H123126   1.584   6.872  12.394  1.2524  0.4817  0.8217
  545TIP3    H223127   1.532   6.803  12.518 -1.1234  1.0427  0.1893
  546TIP3   OH223128   5.694   5.075   1.469  0.5121 -0.2469 -0.1199
  546TIP3    H123129   5.693   5.091   1.374  1.4317 -0.9716 -0.2596
  546TIP3    H223130   5.757   5.005   1.481  0.1510 -0.3936  1.0085
  547TIP3   OH223131   5.404   5.787  16.621 -0.2673 -0.1896 -0.8491
  547TIP3    H123132   5.439   5.728  16.688 -0.6216 -0.9296 -1.2960
  547TIP3    H223133   5.474   5.792  16.556  1.2456  2.7417  0.8099
  548TIP3   OH223134   5.384   4.268   4.132 -0.3565  0.2104  0.8866
  548TIP3    H123135   5.350   4.231   4.214  0.6773 -1.5064  0.6070
  548TIP3    H223136   5.474   4.292   4.152 -0.4176  0.7541  0.5249
  549TIP3   OH223137   4.901   6.326  14.438 -0.2045  0.5681  0.1847
  549TIP3    H123138   4.884   6.262  14.369  0.7688  3.0779 -2.6036
  549TIP3    H223139   4.819   6.374  14.448  0.1055  1.2475 -0.4434
  550TIP3   OH223140   1.603   4.629   0.056  0.4925  0.1426 -0.3962
  550TIP3    H123141   1.553   4.582   0.122  1.1324  0.3149  0.2250
  550TIP3    H223142   1.537   4.663  -0.005 -0.0850 -0.1839  0.0420
  551TIP3   OH223143   0.516   1.287  15.048 -0.3285  0.2849  0.0093
  551TIP3    H123144   0.506   1.240  15.131  0.0459  1.3390  0.6687
  551TIP3    H223145   0.427   1.300  15.016 -0.4929  0.2078  0.4345
  552TIP3   OH223146   4.009   3.384  12.873 -0.0532 -0.6653 -0.4514
  552TIP3    H123147   3.937   3.389  12.810  0.2927 -3.3260 -1.1777
  552TIP3    H223148   4.002   3.464  12.925 -2.9752 -0.4255 -1.0840
  553TIP3   OH223149   4.222   0.304  14.404  0.0926 -0.2012  0.5204
  553TIP3    H123150   4.192   0.217  14.431  1.8259 -0.6642  1.1025
  553TIP3    H223151   4.310   0.312  14.442  0.2422  1.5414 -0.0876
  554TIP3   OH223152   0.074   3.633   6.210  0.5082 -0.1565 -0.2055
  554TIP3    H123153   0.091   3.671   6.297 -0.8169 -1.6814  0.7835
  554TIP3    H223154   0.161   3.621   6.172  1.1336  0.3491  0.9989
  555TIP3   OH223155   0.905   1.914   2.339  0.1447 -0.3112 -0.0165
  555TIP3    H123156   0.940   1.994   2.379 -3.0839  1.1373  0.1749
  555TIP3    H223157   0.904   1.932   2.246 -2.0665  0.6204  0.1325
  556TIP3   OH223158   4.767   0.919  15.395 -0.0914  0.2493 -0.8555
  556TIP3    H123159   4.705   0.963  15.337 -0.9054 -1.4564 -1.3594
  556TIP3    H223160   4.726   0.924  15.482 -0.2062  0.4338 -0.9193
  557TIP3   OH223161   1.002   0.610  14.701 -0.2816  0.0069  0.5952
  557TIP3    H123162   1.080   0.572  14.660 -1.5809 -0.4324 -1.6681
  557TIP3    H223163   0.941   0.537  14.708 -0.3186  0.1931  2.9814
  558TIP3   OH223164   6.898   5.012  11.545 -0.1471  0.7425 -0.7200
  558TIP3    H123165   6.805   5.008  11.520 -0.2857  1.2833 -0.3152
  558TIP3    H223166   6.914   5.104  11.562  0.5752  0.7046 -1.1644
  559TIP3   OH223167   1.083   3.503  13.165  0.1057 -0.4576  0.0061
  559TIP3    H123168   0.988   3.497  13.167  0.0443 -1.3719  4.9398
  559TIP3    H223169   1.101   3.594  13.191  0.4785 -1.1009  2.1181
  560TIP3   OH223170   6.034   2.962   2.765  0.2109 -0.1592  0.2849
  560TIP3    H123171   5.972   2.889   2.771  0.9424 -0.8495 -0.3502
  560TIP3    H223172   6.071   2.969   2.853 -0.8351  0.3364  0.7021
  561TIP3   OH223173   2.760   1.281   3.972 -0.1170  0.1281 -0.2014
  561TIP3    H123174   2.829   1.258   3.910  0.8849  0.8997  0.5820
  561TIP3    H223175   2.678   1.265   3.925  0.6105  0.4484 -1.6222
  562TIP3   OH223176   6.030   0.092   5.096 -0.2963 -0.2843 -0.0041
  562TIP3    H123177   6.122   0.088   5.122  0.3119 -1.8024 -2.0816
  562TIP3    H223178   5.991   0.012   5.133 -0.2088 -0.7821 -0.9574
  563TIP3   OH223179   1.389   1.618  15.571  0.4235  0.1645 -0.8447
  563TIP3    H123180   1.312   1.562  15.581  0.4275  0.2572 -0.2663
  563TIP3    H223181   1.443   1.600  15.648  0.6384  0.6317 -0.8795
  564TIP3   OH223182   6.218   5.954  12.209 -0.2089 -0.0935 -0.0576
  564TIP3    H123183   6.131   5.995  12.215 -0.3411 -0.0225 -1.8873
  564TIP3    H223184   6.259   5.996  12.134  1.6180  0.1917  1.0450
  565TIP3   OH223185   1.422   4.682   0.349 -0.4264 -0.2704 -0.7711
  565TIP3    H123186   1.352   4.736   0.385 -0.3705 -1.2556  0.8960
  565TIP3    H223187   1.382   4.637   0.275 -0.9387  0.7584 -1.1413
  566TIP3   OH223188   2.274   1.895  10.580  0.1642  0.6459  0.1643
  566TIP3    H123189   2.247   1.831  10.645 -0.7094  0.2339 -0.5777
  566TIP3    H223190   2.309   1.842  10.508  1.9883  1.1280  0.6576
  567TIP3   OH223191   0.545   1.240  15.687  0.3955  0.6004 -0.2780
  567TIP3    H123192   0.478   1.171  15.684  1.6947 -0.6842 -0.9750
  567TIP3    H223193   0.549   1.272  15.597  0.7402  0.6324 -0.2506
  568TIP3   OH223194   0.710   2.836  15.943 -0.5020  0.2446 -0.0033
  568TIP3    H123195   0.656   2.890  15.999  0.0286  1.5283 -0.6990
  568TIP3    H223196   0.761   2.782  16.004 -0.3067  1.2466  0.7492
  569TIP3   OH223197   5.750   5.600   2.152 -0.6627  0.5152 -0.7426
  569TIP3    H123198   5.833   5.634   2.119 -0.0971 -0.5150 -0.4074
  569TIP3    H223199   5.699   5.580   2.073  0.0818 -0.4680 -0.9979
  570TIP3   OH223200   2.292   5.718  10.961 -0.2349  0.0738 -0.0634
  570TIP3    H123201   2.265   5.765  11.040  1.2316 -1.4107  1.4218
  570TIP3    H223202   2.228   5.648  10.952 -0.7333  0.5882 -0.5391
  571TIP3   OH223203   3.442   2.091  16.323  0.0758 -0.0419 -0.3665
  571TIP3    H123204   3.510   2.032  16.291 -0.2531 -0.2332 -0.7262
  571TIP3    H223205   3.362   2.062  16.278  0.0255  1.0891 -1.0296
  572TIP3   OH223206   1.998   6.124   1.783 -0.0546  0.0479 -0.3202
  572TIP3    H123207   1.916   6.174   1.785  0.1646  0.3910  0.3374
  572TIP3    H223208   2.027   6.122   1.874  0.6438 -0.1140 -0.5399
  573TIP3   OH223209   3.134   5.311   0.160  0.0445 -0.2038 -0.3059
  573TIP3    H123210   3.064   5.247   0.169 -0.1245  0.0578  0.2720
  573TIP3    H223211   3.132   5.361   0.241  1.4338 -0.7202  0.0842
  574TIP3   OH223212   3.051   2.731   2.775  0.4406  0.3257 -0.1430
  574TIP3    H123213   3.063   2.637   2.786 -0.9640  0.3147  1.6120
  574TIP3    H223214   3.013   2.740   2.688  1.7484 -0.5812 -0.8547
  575TIP3   OH223215   2.275   3.441  13.008 -0.0180 -0.1421 -0.3136
  575TIP3    H123216   2.252   3.508  13.072  1.1012  2.1862 -2.1920
  575TIP3    H223217   2.191   3.416  12.969 -0.2824  2.5936 -1.7608
  576TIP3   OH223218   5.419   3.955   6.325  0.0622 -0.3186  0.6725
  576TIP3    H123219   5.345   3.982   6.271 -0.3736  1.4113  2.0617
  576TIP3    H223220   5.391   3.871   6.363 -0.4403 -0.5518 -0.1801
  577TIP3   OH223221   4.521   3.326  13.045 -0.0216  0.6001  0.4958
  577TIP3    H123222   4.483   3.370  13.121 -0.7847  0.7398  0.0415
  577TIP3    H223223   4.546   3.239  13.077 -0.8369  0.4620  0.7816
  578TIP3   OH223224   6.842   1.340   3.954 -0.5471  0.3125 -0.4204
  578TIP3    H123225   6.896   1.389   4.017  1.2519  0.7158 -2.1714
  578TIP3    H223226   6.877   1.251   3.957  0.1415  0.5319 -1.4304
  579TIP3   OH223227   4.563   0.325   3.236 -0.0002 -0.1716 -0.0293
  579TIP3    H123228   4.570   0.413   3.275 -0.1355 -0.4330  0.6043
  579TIP3    H223229   4.536   0.341   3.146  2.1189  0.5554 -0.5968
  580TIP3   OH223230   0.603   4.848   3.643 -0.0701  0.3861 -0.1350
  580TIP3    H123231   0.583   4.878   3.554 -0.2185 -1.6823 -0.8386
  580TIP3    H223232   0.682   4.794   3.633  0.6634  1.1398  1.2147
  581TIP3   OH223233   2.972   1.650   1.843  0.5462 -0.2342 -0.3851
  581TIP3    H123234   2.959   1.734   1.887  1.4306  0.4787 -1.4456
  581TIP3    H223235   2.899   1.642   1.782 -0.1311 -0.7606  0.4662
  582TIP3   OH223236   6.757   4.149  14.422 -0.0046  0.7633 -0.5350
  582TIP3    H123237   6.773   4.174  14.331  3.0051 -0.2015 -0.3995
  582TIP3    H223238   6.759   4.232  14.470  0.1901  1.1341 -1.1721
  583TIP3   OH223239   0.274   4.750   5.456  0.4945  0.2712  0.0609
  583TIP3    H123240   0.215   4.708   5.519  1.4506  0.4311  1.0948
  583TIP3    H223241   0.223   4.755   5.376 -0.8235  0.2171  0.8614
  584TIP3   OH223242   5.018   3.042  12.510 -0.2135  0.3442  0.0565
  584TIP3    H123243   4.966   3.097  12.451  1.1412  0.3932 -1.1433
  584TIP3    H223244   5.097   3.021  12.460  0.1068 -1.2320  1.1546
  585TIP3   OH223245   2.442   2.755  12.029  0.5305 -0.2944 -1.1607
  585TIP3    H123246   2.360   2.794  11.997 -0.2175 -1.7345 -1.0627
  585TIP3    H223247   2.506   2.826  12.020 -0.1764  0.1462 -3.5334
  586TIP3   OH223248   1.097   1.643  10.695 -0.0501  0.3806 -0.2949
  586TIP3    H123249   1.064   1.729  10.668  1.5048  0.7596 -1.0606
  586TIP3    H223250   1.130   1.603  10.615  0.3045 -0.4575  0.2539
  587TIP3   OH223251   5.474   6.473  12.641  0.3091  0.5871  0.1567
  587TIP3    H123252   5.460   6.541  12.575  0.5899  0.0753 -0.4473
  587TIP3    H223253   5.400   6.414  12.630  0.4851  0.3697  0.1345
  588TIP3   OH223254   4.994   6.613   5.467 -0.2801 -0.6636  0.1519
  588TIP3    H123255   5.012   6.525   5.434 -0.2564 -0.2080 -1.0965
  588TIP3    H223256   5.051   6.622   5.544  0.0999 -1.5450 -0.0179
  589TIP3   OH223257   5.860   1.255   1.880  0.7517 -0.3296  0.2945
  589TIP3    H123258   5.827   1.169   1.853 -1.8475  0.7224 -0.2397
  589TIP3    H223259   5.952   1.241   1.899  0.3346 -3.3071  0.5785
  590TIP3   OH223260   3.641   3.551   3.610 -0.6500 -0.2095 -0.2059
  590TIP3    H123261   3.637   3.645   3.590 -2.0174 -0.1804  0.0831
  590TIP3    H223262   3.665   3.510   3.527 -0.6423  0.3499 -0.4862
  591TIP3   OH223263   6.306   1.167  15.979  0.2311  0.1253  0.1796
  591TIP3    H123264   6.292   1.256  16.009  0.9148  0.3311 -0.0954
  591TIP3    H223265   6.371   1.130  16.039 -0.7216 -0.5040  0.8584
  592TIP3   OH223266   0.274   6.590  11.602  0.5918  0.0615 -0.0066
  592TIP3    H123267   0.330   6.523  11.641  0.5453  0.5845  0.9751
  592TIP3    H223268   0.291   6.668  11.654 -1.3852  0.1220  0.5995
  593TIP3   OH223269   3.214   5.519  11.509  0.0275  0.0286  0.0995
  593TIP3    H123270   3.204   5.476  11.424  0.4302  1.0329 -0.4859
  593TIP3    H223271   3.236   5.449  11.570 -4.4939 -1.4690  0.3347
  594TIP3   OH223272   3.486   0.625  16.519  0.1935 -0.2857  0.6887
  594TIP3    H123273   3.561   0.639  16.576  0.0293 -0.9652  1.0712
  594TIP3    H223274   3.494   0.535  16.489 -0.0023 -0.0972  0.0360
  595TIP3   OH223275   0.524   5.691  15.816  0.1791  0.0476 -0.2635
  595TIP3    H123276   0.601   5.635  15.829 -0.3004 -0.6546 -0.3942
  595TIP3    H223277   0.469   5.642  15.756 -0.8448  0.0639  0.6353
  596TIP3   OH223278   1.386   1.925  15.638 -0.3708 -0.6480 -0.2654
  596TIP3    H123279   1.333   1.864  15.587 -0.5211 -0.1137 -0.7660
  596TIP3    H223280   1.345   2.011  15.622 -0.5017 -0.4819  0.8514
  597TIP3   OH223281   0.346   0.467  15.009  0.4326 -0.0430 -0.4587
  597TIP3    H123282   0.372   0.509  15.091  1.0424  0.0570 -0.6993
  597TIP3    H223283   0.345   0.539  14.946 -2.5200  0.4027 -0.0465
  598TIP3   OH223284   3.940   0.951   3.206 -0.6643 -0.1990 -0.2924
  598TIP3    H123285   3.940   0.879   3.270 -1.6722 -0.4267 -0.5283
  598TIP3    H223286   3.847   0.970   3.193 -0.4127  0.9984 -0.4091
  599TIP3   OH223287   0.343   5.789   4.063  0.1965  0.4168 -0.0116
  599TIP3    H123288   0.389   5.731   4.002 -1.5214  0.6743 -1.6661
  599TIP3    H223289   0.412   5.829   4.116  1.6333 -0.9954 -0.7378
  600TIP3   OH223290   5.948   3.942  14.206  0.4564  0.2736  0.3784
  600TIP3    H123291   5.952   4.014  14.269  2.4561  0.0240  0.5962
  600TIP3    H223292   6.025   3.954  14.150  0.6982 -1.5320  0.2548
  601TIP3   OH223293   5.516   1.383  13.953 -0.3692 -0.2792 -0.3408
  601TIP3    H123294   5.564   1.301  13.970  0.1194  0.4290  2.1760
  601TIP3    H223295   5.463   1.396  14.031 -1.3473  1.2287 -1.2054
  602TIP3   OH223296   5.177   5.207  13.689  0.2199 -0.7207  0.0209
  602TIP3    H123297   5.085   5.185  13.705 -0.1799  2.4763  3.1943
  602TIP3    H223298   5.176   5.253  13.605 -0.9890 -1.0513 -0.1692
  603TIP3   OH223299   5.687   4.214   1.283  0.0306  0.0713  0.0736
  603TIP3    H123300   5.683   4.250   1.195 -0.2262  0.2379  0.1508
  603TIP3    H223301   5.599   4.180   1.300  0.2921 -0.6490 -0.0187
  604TIP3   OH223302   5.320   1.042  13.072 -0.0030  0.5589  0.2867
  604TIP3    H123303   5.335   0.965  13.017 -1.1232  1.2823 -1.0886
  604TIP3    H223304   5.245   1.019  13.125 -1.5267  1.2931 -1.4267
  605TIP3   OH223305   3.526   4.495  11.783 -0.1669 -0.0741  0.5229
  605TIP3    H123306   3.526   4.545  11.701 -1.7349 -0.7112  0.0989
  605TIP3    H223307   3.461   4.540  11.838  1.3876  0.7862  1.7405
  606TIP3   OH223308   2.130   1.262   4.639  0.0861 -0.1135  0.0615
  606TIP3    H123309   2.201   1.326   4.645 -0.7278  0.8979 -0.5991
  606TIP3    H223310   2.051   1.313   4.657 -0.7215 -0.6283 -1.8188
  607TIP3   OH223311   4.279   6.842   2.498  0.6627 -0.3998  0.1017
  607TIP3    H123312   4.220   6.823   2.425 -0.1964  1.6581  0.1687
  607TIP3    H223313   4.236   6.805   2.575 -0.2207  0.4412  0.0374
  608TIP3   OH223314   4.849   4.239   3.050  0.0100 -0.1817  0.5012
  608TIP3    H123315   4.856   4.300   3.123  0.2527 -1.0742  1.2351
  608TIP3    H223316   4.825   4.155   3.090  1.5863 -1.0447 -0.2459
  609TIP3   OH223317   5.098   4.370   2.692 -0.1161 -0.0960 -0.6158
  609TIP3    H123318   5.042   4.297   2.663  1.7805 -0.9835 -2.3477
  609TIP3    H223319   5.089   4.435   2.623 -0.0048  0.3090 -0.2473
  610TIP3   OH223320   6.855   3.540   5.270  0.3797 -0.1532  0.4053
  610TIP3    H123321   6.833   3.483   5.344  1.2563  0.6982  1.3606
  610TIP3    H223322   6.948   3.561   5.283  0.1785  1.1545 -0.1497
  611TIP3   OH223323   4.081   2.313  12.510  0.4026  0.0836  0.3725
  611TIP3    H123324   4.095   2.369  12.586  3.0672 -0.0602  0.1098
  611TIP3    H223325   4.113   2.365  12.436  0.2747 -0.7380 -0.2742
  612TIP3   OH223326   3.690   4.832   1.383 -0.4916  0.3525 -0.4125
  612TIP3    H123327   3.678   4.898   1.316 -1.6238  0.5887 -0.0002
  612TIP3    H223328   3.633   4.760   1.357  1.0498 -0.6702 -1.0872
  613TIP3   OH223329   2.336   3.173  13.326  0.5902  0.5708 -0.2424
  613TIP3    H123330   2.398   3.195  13.396  1.4561 -0.8483 -0.5271
  613TIP3    H223331   2.373   3.212  13.247  0.7096  0.4045 -0.2700
  614TIP3   OH223332   1.917   3.709   0.589  0.1575  0.4030 -0.2667
  614TIP3    H123333   1.831   3.702   0.631 -1.0261  2.1801 -2.1638
  614TIP3    H223334   1.972   3.753   0.655 -0.6504  0.1147  0.6299
  615TIP3   OH223335   2.619   4.083   3.734  0.2160  0.0354 -0.4377
  615TIP3    H123336   2.619   3.995   3.697  2.3840  0.6729 -2.1380
  615TIP3    H223337   2.707   4.095   3.770 -0.3016  1.2363  0.5220
  616TIP3   OH223338   2.427   3.679   2.691  0.4071  0.1492 -0.3561
  616TIP3    H123339   2.491   3.718   2.632  1.4482 -0.4040  0.3582
  616TIP3    H223340   2.388   3.608   2.640  0.5987  0.2889 -0.7012
  617TIP3   OH223341   5.821   5.684   3.160  0.6867  0.2226 -0.0559
  617TIP3    H123342   5.802   5.680   3.254  1.2085  0.7907  0.0815
  617TIP3    H223343   5.857   5.598   3.139  0.4107  0.0335  0.2246
  618TIP3   OH223344   6.101   6.517  15.843  0.1470  0.7481  0.2116
  618TIP3    H123345   6.087   6.600  15.890 -0.2463  1.3146 -0.8744
  618TIP3    H223346   6.093   6.450  15.911  0.0066  1.5636  1.0293
  619TIP3   OH223347   2.671   3.074  12.583  0.4712  0.6023  0.6338
  619TIP3    H123348   2.685   2.979  12.581 -0.2924  0.4926 -0.6745
  619TIP3    H223349   2.739   3.109  12.525 -1.0876  0.5464 -1.3395
  620TIP3   OH223350   2.413   4.160   1.889 -0.6055  0.3521 -0.7317
  620TIP3    H123351   2.373   4.188   1.971 -2.0874  0.7589 -1.5370
  620TIP3    H223352   2.477   4.228   1.869 -0.4642  0.4183 -0.0802
  621TIP3   OH223353   6.657   4.977   0.163  0.3342  0.6889 -0.0612
  621TIP3    H123354   6.733   4.997   0.217  0.7012  4.1726 -1.5667
  621TIP3    H223355   6.691   4.923   0.092  0.8379  0.0843  0.6311
  622TIP3   OH223356   3.299   0.428  12.416  0.9050  0.5073  0.0667
  622TIP3    H123357   3.214   0.401  12.451  0.0938  1.7779 -0.8676
  622TIP3    H223358   3.319   0.509  12.463  1.9142 -0.0999  0.7181
  623TIP3   OH223359   6.458   0.737  13.292  0.0246 -0.2497  0.3442
  623TIP3    H123360   6.536   0.684  13.311 -0.1261 -0.1864  1.1839
  623TIP3    H223361   6.422   0.758  13.378 -0.3754  0.5474 -0.0114
  624TIP3   OH223362   1.712   0.420   4.398  0.2596  0.4222 -0.0391
  624TIP3    H123363   1.669   0.442   4.316  0.8274  0.9127 -0.2158
  624TIP3    H223364   1.665   0.344   4.431 -1.8429  1.9167  0.6384
  625TIP3   OH223365   0.849   2.239   1.275  0.0684  0.1203 -0.5881
  625TIP3    H123366   0.754   2.243   1.265  0.1741 -0.6594 -2.1047
  625TIP3    H223367   0.876   2.168   1.218  1.7151  1.2594 -1.2728
  626TIP3   OH223368   6.039   0.705   4.005  0.5418  0.0249 -0.0517
  626TIP3    H123369   6.027   0.617   3.971 -0.7447 -0.4693  1.5026
  626TIP3    H223370   6.012   0.763   3.933  2.4383 -0.7720 -1.4622
  627TIP3   OH223371   5.277   4.063  13.020  0.7560  1.0918  0.1367
  627TIP3    H123372   5.276   4.033  13.111  0.0034 -1.6680 -0.6827
  627TIP3    H223373   5.292   3.983  12.969 -1.1476  2.1460 -2.2632
  628TIP3   OH223374   2.225   4.614  16.621  0.0466 -0.4184  0.1171
  628TIP3    H123375   2.161   4.579  16.559  0.3491  0.8432 -0.9521
  628TIP3    H223376   2.188   4.698  16.648 -0.4042 -1.2158  2.2016
  629TIP3   OH223377   4.486   0.155   1.517 -0.0259  0.6228 -0.4512
  629TIP3    H123378   4.476   0.126   1.608  0.9130  1.0405 -0.1967
  629TIP3    H223379   4.424   0.102   1.468 -0.6909  0.5313  0.4640
  630TIP3   OH223380   1.672   6.452   4.900  0.2633  0.3236  0.0052
  630TIP3    H123381   1.582   6.464   4.930  0.4038  0.1985  0.4952
  630TIP3    H223382   1.688   6.358   4.910  0.6796  0.4516  0.6098
  631TIP3   OH223383   4.111   3.211  13.573 -0.0908 -0.1071  0.0654
  631TIP3    H123384   4.205   3.200  13.590  0.0589 -0.9429 -1.1453
  631TIP3    H223385   4.074   3.124  13.588 -0.2143 -0.4636 -2.0538
  632TIP3   OH223386   5.924   2.146  15.572 -0.1151  0.4192 -0.5481
  632TIP3    H123387   5.870   2.188  15.639 -0.6382 -0.0493 -0.6625
  632TIP3    H223388   5.862   2.125  15.502 -0.0245 -1.2524 -0.1595
  633TIP3   OH223389   0.098   1.110   1.700  0.2207 -0.6340  0.5546
  633TIP3    H123390   0.160   1.182   1.685  0.9954 -1.3033  0.4834
  633TIP3    H223391   0.147   1.031   1.677 -1.1491 -1.0893 -1.0016
  634TIP3   OH223392   6.018   0.180   0.910  0.7989 -0.1844  0.4868
  634TIP3    H123393   5.949   0.233   0.871  1.7917  1.6545  1.0815
  634TIP3    H223394   5.978   0.140   0.987  0.6520  1.8008  1.4981
  635TIP3   OH223395   5.522   1.656  11.371  0.4483  0.5692 -0.3490
  635TIP3    H123396   5.496   1.577  11.417 -0.7651  0.4333 -1.2350
  635TIP3    H223397   5.571   1.625  11.295  2.7350  0.8027  0.9439
  636TIP3   OH223398   4.887   0.563   2.641  0.8324 -0.2711  0.3467
  636TIP3    H123399   4.961   0.549   2.582  0.3169  0.8323 -0.6107
  636TIP3    H223400   4.810   0.555   2.585  0.3544  1.4664  0.6979
  637TIP3   OH223401   4.644   4.549  11.436 -0.4543 -0.0440  0.7746
  637TIP3    H123402   4.620   4.525  11.526  0.3238  1.2336  1.3533
  637TIP3    H223403   4.581   4.617  11.411  0.3709  0.8235  1.0052
  638TIP3   OH223404   4.494   3.415   0.671 -0.4303  0.3728  0.2698
  638TIP3    H123405   4.494   3.341   0.732  3.1714  0.5958  0.7327
  638TIP3    H223406   4.451   3.486   0.720  0.2657 -0.1247  1.6470
  639TIP3   OH223407   3.126   5.918  14.358  0.0617  0.3588 -0.0889
  639TIP3    H123408   3.137   5.853  14.287  0.7639  0.7907 -0.3860
  639TIP3    H223409   3.034   5.910  14.383 -0.1576  0.0792 -0.9390
  640TIP3   OH223410   5.696   1.236  12.629 -0.8064  0.0018 -0.3054
  640TIP3    H123411   5.755   1.295  12.583 -1.9045  0.7848 -0.7669
  640TIP3    H223412   5.748   1.158  12.645  1.2519  1.6607  1.8251
  641TIP3   OH223413   5.157   1.266  11.153 -0.8061 -1.0319 -0.1075
  641TIP3    H123414   5.160   1.172  11.167 -1.9408 -1.1506 -0.5266
  641TIP3    H223415   5.063   1.287  11.153 -0.6686 -0.2146 -1.9583
  642TIP3   OH223416   0.277   4.411  12.022  0.2712  0.0636  0.0630
  642TIP3    H123417   0.332   4.338  11.993  1.6174  0.2401  1.9743
  642TIP3    H223418   0.272   4.469  11.947  1.0634 -0.9079 -0.7661
  643TIP3   OH223419   5.338   4.559  13.564  0.5758  0.4190  0.7621
  643TIP3    H123420   5.287   4.596  13.636  1.4866 -1.0822  2.2482
  643TIP3    H223421   5.403   4.626  13.544  1.5306  0.1391  2.6816
  644TIP3   OH223422   1.125   5.119  14.652  0.1294  0.4037  0.1453
  644TIP3    H123423   1.173   5.158  14.579 -0.1896 -0.3640 -0.4816
  644TIP3    H223424   1.190   5.065  14.697  0.2175  0.5333  0.1757
  645TIP3   OH223425   6.288   2.236  11.838  0.0067  0.1442 -0.7217
  645TIP3    H123426   6.245   2.154  11.812  0.2342 -1.1252  2.4163
  645TIP3    H223427   6.220   2.283  11.887  0.6963  0.5050 -0.1054
  646TIP3   OH223428   2.900   1.409  16.691 -0.7226 -0.2791 -0.2438
  646TIP3    H123429   2.873   1.348  16.622  1.7799 -1.1191 -0.6078
  646TIP3    H223430   2.827   1.411  16.752 -1.0848 -3.4156 -0.3967
  647TIP3   OH223431   0.629   4.636   3.328 -0.3103  0.0660 -0.2543
  647TIP3    H123432   0.588   4.661   3.245  1.1886  1.1579 -0.7239
  647TIP3    H223433   0.706   4.694   3.334 -0.4704  0.1074  1.9703
  648TIP3   OH223434   6.726   0.597   4.563 -0.2149 -0.1519 -0.0179
  648TIP3    H123435   6.814   0.610   4.600  0.1017  3.3692 -1.5781
  648TIP3    H223436   6.739   0.534   4.492  0.4390 -1.8233  1.5268
  649TIP3   OH223437   5.658   5.636  15.965  0.4059  0.4510  0.2812
  649TIP3    H123438   5.632   5.630  15.873  0.5472 -0.9490  0.3101
  649TIP3    H223439   5.588   5.688  16.006 -0.0355  0.4719 -0.4775
  650TIP3   OH223440   4.228   3.498  13.119 -0.0895  0.0479 -0.3186
  650TIP3    H123441   4.173   3.421  13.135  1.0436 -1.1819 -1.9647
  650TIP3    H223442   4.167   3.572  13.120 -1.6488 -1.1557 -1.2204
  651TIP3   OH223443   6.535   5.856   4.609 -0.5415 -0.3279  0.1035
  651TIP3    H123444   6.543   5.858   4.514  1.2913  0.1811  0.2490
  651TIP3    H223445   6.624   5.848   4.641 -1.0382  0.5103  1.8191
  652TIP3   OH223446   1.295   5.425   2.656  0.1319 -0.3933  0.2864
  652TIP3    H123447   1.215   5.454   2.699 -0.2699 -0.2272 -0.5542
  652TIP3    H223448   1.301   5.332   2.677  0.1262 -0.2392  0.9820
  653TIP3   OH223449   2.503   3.855  16.637  0.4825 -0.3013  0.4605
  653TIP3    H123450   2.529   3.787  16.574 -0.7504 -0.3724  0.0123
  653TIP3    H223451   2.511   3.937  16.588  0.3190 -0.2802  0.4697
  654TIP3   OH223452   4.716   5.929  14.120  0.4443  0.0052 -0.4829
  654TIP3    H123453   4.793   5.973  14.155 -1.5120  2.6261  0.8997
  654TIP3    H223454   4.643   5.985  14.147 -1.8063 -1.4277 -3.1533
  655TIP3   OH223455   4.427   5.447  10.519 -0.2382 -0.3962 -0.3897
  655TIP3    H123456   4.444   5.353  10.519 -0.0782 -0.4107  1.9303
  655TIP3    H223457   4.507   5.486  10.554 -0.6091  0.5599 -0.5643
  656TIP3   OH223458   4.410   6.809  14.475 -0.1125 -0.8572 -0.5426
  656TIP3    H123459   4.423   6.868  14.550 -0.2723  0.1277 -1.2825
  656TIP3    H223460   4.461   6.848  14.405 -0.5203 -1.4039 -1.1480
  657TIP3   OH223461   4.386   2.880   3.924 -0.0719  0.1104  0.1740
  657TIP3    H123462   4.465   2.896   3.976 -1.1608 -0.9955  2.2867
  657TIP3    H223463   4.404   2.799   3.877  0.2630  0.1775  0.1819
  658TIP3   OH223464   1.970   6.189  14.420  0.5789  0.0668  0.0616
  658TIP3    H123465   2.051   6.138  14.417  0.7003  0.2805 -2.5787
  658TIP3    H223466   1.999   6.280  14.427  0.4982  0.0486  0.6786
  659TIP3   OH223467   0.390   0.978  13.653  0.3630 -0.0866  0.6156
  659TIP3    H123468   0.332   1.002  13.725  0.2439  1.5159  0.0376
  659TIP3    H223469   0.406   0.884  13.664 -3.1877 -0.8713  0.1726
  660TIP3   OH223470   3.847   3.113   1.814 -0.1156 -0.0474 -0.4541
  660TIP3    H123471   3.882   3.036   1.860  0.1638  1.2239  1.6073
  660TIP3    H223472   3.921   3.145   1.762 -0.0652 -0.8593 -0.8811
  661TIP3   OH223473   3.727   6.588   0.446 -0.3872  0.0949  0.3787
  661TIP3    H123474   3.799   6.564   0.504  0.0220 -0.0397 -0.1858
  661TIP3    H223475   3.767   6.601   0.360 -1.0932 -0.3655 -0.0294
  662TIP3   OH223476   6.668   6.858   4.592 -0.1183 -0.4111 -0.2635
  662TIP3    H123477   6.583   6.874   4.632  0.3078  1.2557  0.0210
  662TIP3    H223478   6.679   6.928   4.528  0.3658 -1.5264 -1.4447
  663TIP3   OH223479   5.379   4.759   0.096  0.1031  0.0934 -0.1112
  663TIP3    H123480   5.446   4.773   0.030 -1.9138 -0.3031 -2.4033
  663TIP3    H223481   5.382   4.665   0.114 -0.1327 -0.0007 -0.5598
  664TIP3   OH223482   2.926   4.057   1.855 -0.7054  0.0686 -0.6673
  664TIP3    H123483   2.931   4.019   1.768  0.9249 -2.5984  0.4837
  664TIP3    H223484   3.015   4.053   1.889 -1.7191 -1.7364  2.1718
  665TIP3   OH223485   0.605   2.168  12.497 -0.1223  0.2242  0.5113
  665TIP3    H123486   0.629   2.083  12.459 -0.3784 -0.0826  1.0225
  665TIP3    H223487   0.543   2.206  12.435 -0.2358 -0.0976  0.4264
  666TIP3   OH223488   3.122   5.212  14.605 -0.1516 -0.6901  0.0969
  666TIP3    H123489   3.099   5.305  14.613 -0.6487 -0.5725 -2.0444
  666TIP3    H223490   3.043   5.165  14.630  0.4861 -0.6296  2.4310
  667TIP3   OH223491   2.194   2.357  11.635 -0.5826  0.4013 -0.0620
  667TIP3    H123492   2.282   2.385  11.659 -0.9297  0.2240  1.5984
  667TIP3    H223493   2.206   2.297  11.562  0.7447 -0.0776  0.5246
  668TIP3   OH223494   4.474   2.404   2.412 -0.1997 -0.1138  0.2634
  668TIP3    H123495   4.482   2.395   2.317  0.5174 -1.9404  0.4437
  668TIP3    H223496   4.564   2.409   2.443 -0.4194  0.1856  0.8723
  669TIP3   OH223497   2.483   2.686   2.689  0.7997  0.1612 -0.5428
  669TIP3    H123498   2.472   2.617   2.754  0.2568  1.5969  0.9541
  669TIP3    H223499   2.577   2.699   2.682  0.9098 -0.8007 -0.9401
  670TIP3   OH223500   5.982   4.030   0.015  0.1313 -0.2789  0.0422
  670TIP3    H123501   5.918   4.091  -0.021 -0.5079 -1.9198 -1.7341
  670TIP3    H223502   5.930   3.963   0.059  0.6698 -0.9195 -0.2691
  671TIP3   OH223503   6.112   4.665   2.546 -0.3824  0.8026  0.0463
  671TIP3    H123504   6.020   4.647   2.566  0.1952 -1.0589  1.4046
  671TIP3    H223505   6.134   4.739   2.603 -0.4684 -0.2877  1.5725
  672TIP3   OH223506   0.224   4.415  13.630  0.3900 -0.2249  0.5208
  672TIP3    H123507   0.141   4.463  13.629  1.1364  1.0982 -0.1314
  672TIP3    H223508   0.219   4.356  13.555  0.2390  0.2169  0.1797
  673TIP3   OH223509   6.475   3.922  15.351 -0.3743 -0.4305 -0.0197
  673TIP3    H123510   6.554   3.942  15.402 -0.8658  0.5574  0.3916
  673TIP3    H223511   6.472   3.827  15.348 -0.6767 -0.5592  2.3987
  674TIP3   OH223512   1.236   6.696  15.901  0.4155 -0.4328  0.5780
  674TIP3    H123513   1.216   6.706  15.994 -0.6976  0.3187  0.2689
  674TIP3    H223514   1.190   6.768  15.858  1.6240 -0.2423 -0.4746
  675TIP3   OH223515   2.633   4.293  16.810 -0.1523  0.2385 -0.3907
  675TIP3    H123516   2.559   4.236  16.789  1.2530 -1.9443  0.1484
  675TIP3    H223517   2.619   4.317  16.902 -2.2297  3.2928 -1.3565
  676TIP3   OH223518   6.640   6.705  16.874  0.0417  0.0557 -0.3764
  676TIP3    H123519   6.621   6.698  16.780 -1.0585  1.1257 -0.2662
  676TIP3    H223520   6.555   6.724  16.914  0.4237 -0.7590  0.8994
  677TIP3   OH223521   5.954   2.350  13.287  0.4978 -0.0028 -0.0677
  677TIP3    H123522   5.942   2.401  13.368 -3.3530  0.8261 -0.9865
  677TIP3    H223523   5.949   2.259  13.316 -0.7513  0.2751  0.6926
  678TIP3   OH223524   1.740   3.882   3.060 -0.2052  0.2795  0.3235
  678TIP3    H123525   1.775   3.842   3.140  1.5865  1.6386  0.2749
  678TIP3    H223526   1.736   3.976   3.079  0.1652  0.6208 -1.1421
  679TIP3   OH223527   5.234   5.331  15.951 -0.1063 -0.1426  0.2574
  679TIP3    H123528   5.291   5.254  15.947  1.3359  0.8580  0.4372
  679TIP3    H223529   5.150   5.301  15.918 -0.0974 -2.2134  1.9179
  680TIP3   OH223530   0.792   4.071  14.552 -0.0093  0.0130  0.0408
  680TIP3    H123531   0.839   4.000  14.510  0.2080  1.1741 -1.7999
  680TIP3    H223532   0.741   4.111  14.482  0.3990  2.0777  0.8300
  681TIP3   OH223533   0.564   6.304   3.269  0.2174 -0.0056  0.2734
  681TIP3    H123534   0.522   6.294   3.183 -0.6045  1.1550  0.5078
  681TIP3    H223535   0.520   6.240   3.325  1.7164 -1.7466 -0.4726
  682TIP3   OH223536   4.407   1.103  12.594 -0.2392 -0.1391 -0.0025
  682TIP3    H123537   4.434   1.014  12.571  0.2566  0.6278 -2.7078
  682TIP3    H223538   4.321   1.092  12.635 -0.0698 -1.8722 -0.0258
  683TIP3   OH223539   0.576   0.890  10.809  0.3448  0.3933  0.5054
  683TIP3    H123540   0.572   0.932  10.895  1.2397  1.3768  0.0885
  683TIP3    H223541   0.489   0.852  10.797 -0.0875  1.0418  1.4450
  684TIP3   OH223542   6.167   1.118  12.946 -0.3861  0.2984 -0.0642
  684TIP3    H123543   6.240   1.079  12.994 -0.8147  0.0485  0.3955
  684TIP3    H223544   6.206   1.154  12.867  0.5354  1.7977  1.0372
  685TIP3   OH223545   3.798   1.511   2.650 -0.0273 -0.6258 -0.4099
  685TIP3    H123546   3.763   1.492   2.738  0.4751 -1.7442 -0.4443
  685TIP3    H223547   3.745   1.458   2.591  2.6818 -3.6969 -0.3256
  686TIP3   OH223548   0.895   3.086   1.807  0.5819 -0.8241  0.3784
  686TIP3    H123549   0.816   3.078   1.861 -0.0798  0.6605 -0.3329
  686TIP3    H223550   0.900   3.179   1.785  1.8216 -1.1175 -0.6671
  687TIP3   OH223551   0.314   0.593   5.087 -0.5380 -0.1363  0.6331
  687TIP3    H123552   0.222   0.597   5.059 -0.4140 -0.8125  0.1022
  687TIP3    H223553   0.354   0.530   5.027  0.6398  1.3204 -0.1758
  688TIP3   OH223554   1.525   4.879  15.641 -0.0030  0.0569 -0.2159
  688TIP3    H123555   1.453   4.864  15.702  0.8235 -1.0277  0.5470
  688TIP3    H223556   1.506   4.821  15.567  0.8289 -1.4261  0.6751
  689TIP3   OH223557   0.567   5.371   2.259 -0.2099 -0.1754 -0.3554
  689TIP3    H123558   0.486   5.372   2.310 -0.2492  1.1178 -0.4133
  689TIP3    H223559   0.570   5.283   2.221 -1.0970 -0.5537  0.4121
  690TIP3   OH223560   0.429   6.093   4.828  0.2247 -0.2568 -0.8980
  690TIP3    H123561   0.473   6.106   4.912  0.7907  1.6673 -1.4326
  690TIP3    H223562   0.341   6.128   4.842  0.8524  1.6882 -1.5417
  691TIP3   OH223563   0.507   6.555  15.783  0.1058 -0.7892 -0.5446
  691TIP3    H123564   0.534   6.605  15.706  0.3734  0.6698  0.4551
  691TIP3    H223565   0.414   6.539  15.769 -0.2039  0.8050 -0.4897
  692TIP3   OH223566   2.726   2.254   3.250 -0.0180  0.3608 -0.9556
  692TIP3    H123567   2.822   2.251   3.253 -0.0298 -0.5788  1.8608
  692TIP3    H223568   2.701   2.170   3.211  0.2454  1.1597 -2.9639
  693TIP3   OH223569   2.211   6.762  15.506 -0.0966  0.0638 -0.0520
  693TIP3    H123570   2.123   6.751  15.469 -0.4903  1.8678  0.2673
  693TIP3    H223571   2.270   6.730  15.437 -0.9931 -1.6416 -0.0721
  694TIP3   OH223572   2.567   6.134  12.722  0.1292  0.0291  0.0465
  694TIP3    H123573   2.653   6.159  12.689 -0.2120 -0.2428 -1.0874
  694TIP3    H223574   2.508   6.149  12.649 -1.0723  1.7054  1.2643
  695TIP3   OH223575   0.850   1.013  10.265  0.0991 -0.1765 -0.1055
  695TIP3    H123576   0.861   0.972  10.179 -0.5116 -1.0409  0.2088
  695TIP3    H223577   0.936   1.004  10.307  0.5883  0.8398 -0.8549
  696TIP3   OH223578   0.646   5.949   0.169 -0.0602  0.3244 -0.1595
  696TIP3    H123579   0.725   5.966   0.221 -0.6803 -2.3492  1.8046
  696TIP3    H223580   0.678   5.900   0.093  0.2764  0.0447  0.1586
  697TIP3   OH223581   4.927   2.752   5.834 -0.5027  0.4478 -0.2556
  697TIP3    H123582   4.962   2.803   5.908 -1.1147  0.0259  0.3400
  697TIP3    H223583   4.994   2.760   5.766 -0.1904  1.3309  0.1318
  698TIP3   OH223584   6.051   6.299  10.289  0.0872  0.3023 -0.2512
  698TIP3    H123585   6.115   6.283  10.359  0.8814  0.9717 -0.8017
  698TIP3    H223586   6.101   6.292  10.208 -0.7811 -0.2567 -0.7578
  699TIP3   OH223587   1.022   1.315   2.377  0.3796  0.7649 -0.4192
  699TIP3    H123588   1.103   1.322   2.427 -1.2080  0.6424  2.4135
  699TIP3    H223589   1.019   1.395   2.324  2.4921  0.5594 -0.9402
  700TIP3   OH223590   4.371   4.122  13.742  0.0427 -0.1899  0.8184
  700TIP3    H123591   4.415   4.038  13.759 -0.7946 -0.4278  1.9211
  700TIP3    H223592   4.297   4.122  13.802 -0.0111  1.3217  0.7746
  701TIP3   OH223593   3.306   6.383  15.193 -0.2357 -0.4854 -0.5069
  701TIP3    H123594   3.343   6.433  15.266 -0.1638  1.1800 -1.6365
  701TIP3    H223595   3.246   6.444  15.150 -1.9059 -2.1224 -0.6175
  702TIP3   OH223596   4.335   0.737   0.739 -0.1473 -0.5045 -0.0689
  702TIP3    H123597   4.281   0.660   0.719  0.1190 -0.1055 -2.5845
  702TIP3    H223598   4.333   0.790   0.659  1.2203  1.2059  0.9462
  703TIP3   OH223599   4.306   4.092   0.919  0.1755  0.2802 -0.3389
  703TIP3    H123600   4.350   4.010   0.940  0.6894  0.4145 -0.8538
  703TIP3    H223601   4.339   4.154   0.984  0.0274  0.1615 -0.1467
  704TIP3   OH223602   5.137   4.910  12.594 -0.1106 -0.0531  0.5895
  704TIP3    H123603   5.145   4.883  12.686  0.1641  0.7361  0.8108
  704TIP3    H223604   5.140   5.006  12.597 -0.1196 -0.0178 -0.2426
  705TIP3   OH223605   4.183   5.288   4.763  0.0088 -0.2687  0.4748
  705TIP3    H123606   4.089   5.274   4.752  0.0056 -0.4040  0.6750
  705TIP3    H223607   4.221   5.200   4.764  0.3536 -0.1923 -1.4431
  706TIP3   OH223608   5.994   1.608   1.450 -0.0340 -0.0120 -0.5203
  706TIP3    H123609   6.017   1.600   1.543  0.7832  0.0746 -0.7049
  706TIP3    H223610   6.031   1.529   1.410 -0.6826 -0.2196 -0.7203
  707TIP3   OH223611   5.023   0.814   5.165 -0.2336 -0.2642 -0.7866
  707TIP3    H123612   5.104   0.860   5.187 -0.1613 -0.1988 -1.1715
  707TIP3    H223613   5.041   0.775   5.079 -1.2777  1.4123 -1.8170
  708TIP3   OH223614   6.803   1.112   2.741  0.6051 -0.8579 -0.1080
  708TIP3    H123615   6.729   1.090   2.797  2.5281 -1.1516  2.4686
  708TIP3    H223616   6.846   1.029   2.723  0.6039 -0.6406 -1.2275
  709TIP3   OH223617   1.078   6.169   9.748 -0.0782 -0.2285  0.3292
  709TIP3    H123618   0.993   6.144   9.784 -0.2416  0.2807  0.3124
  709TIP3    H223619   1.088   6.262   9.772 -0.7681  0.5060 -1.9826
  710TIP3   OH223620   4.232   5.300  13.251 -0.1197 -0.6406 -0.6902
  710TIP3    H123621   4.304   5.308  13.189  0.9543 -0.7864  0.4993
  710TIP3    H223622   4.269   5.328  13.335 -1.4600 -0.6849 -0.0545
  711TIP3   OH223623   1.805   3.359  16.760  0.2279 -0.0818 -0.2317
  711TIP3    H123624   1.842   3.394  16.679  0.2359 -0.0995 -0.2358
  711TIP3    H223625   1.852   3.405  16.830  2.4327 -2.2227 -0.1793
  712TIP3   OH223626   4.545   2.769  15.344  0.0266  0.6235 -0.2147
  712TIP3    H123627   4.557   2.677  15.323 -0.5433 -0.2223  2.7733
  712TIP3    H223628   4.531   2.811  15.259  2.3976 -1.6439 -1.8905
  713TIP3   OH223629   2.393   6.525  10.505  0.1176  0.3026  0.5266
  713TIP3    H123630   2.452   6.601  10.509 -0.3247  0.5962  2.0748
  713TIP3    H223631   2.406   6.480  10.589  0.4890 -1.4505 -0.4259
  714TIP3   OH223632   3.937   2.336  13.097  0.6564 -0.0741  0.4010
  714TIP3    H123633   3.953   2.258  13.150 -0.5096  1.3590  3.0563
  714TIP3    H223634   3.880   2.390  13.151  1.7125  2.8000 -1.1506
  715TIP3   OH223635   3.520   2.799  13.636 -0.7740  0.0569 -0.2528
  715TIP3    H123636   3.553   2.750  13.561 -0.1627 -1.0735  0.7330
  715TIP3    H223637   3.450   2.744  13.671 -0.1501 -0.0790  0.8085
  716TIP3   OH223638   2.790   6.520  10.808 -0.0512 -0.0130 -0.2349
  716TIP3    H123639   2.881   6.546  10.820  0.2436 -1.1597  0.1494
  716TIP3    H223640   2.746   6.600  10.778  0.9964  0.6502 -0.0638
  717TIP3   OH223641   6.859   2.769   2.753  0.0282 -0.5337  0.2545
  717TIP3    H123642   6.896   2.684   2.775 -0.6968 -1.2142 -1.0570
  717TIP3    H223643   6.932   2.817   2.713  0.7217 -0.1255  1.9509
  718TIP3   OH223644   5.711   4.461  12.597  0.3752  0.1613 -0.3773
  718TIP3    H123645   5.706   4.461  12.693 -0.0443 -0.4907 -0.3942
  718TIP3    H223646   5.631   4.417  12.569 -0.0688  1.3578 -1.0674
  719TIP3   OH223647   3.550   4.959   2.784 -0.3993 -0.2520 -0.0882
  719TIP3    H123648   3.507   5.024   2.728 -2.2572 -1.0261  0.3394
  719TIP3    H223649   3.597   4.902   2.724 -0.9139 -0.0374 -0.7003
  720TIP3   OH223650   5.063   1.953   6.175  0.4038 -0.6656 -0.0177
  720TIP3    H123651   5.082   1.877   6.230 -0.9177  1.3005  3.4457
  720TIP3    H223652   4.970   1.946   6.156  0.4288 -0.2718 -0.2851
  721TIP3   OH223653   6.859   4.742  15.319  0.2118  0.6006  0.1000
  721TIP3    H123654   6.933   4.691  15.286 -0.2152 -0.0681  0.1333
  721TIP3    H223655   6.898   4.818  15.361  0.7587  1.7819 -2.4108
  722TIP3   OH223656   5.730   5.163   5.727 -0.2401 -0.0120  0.2073
  722TIP3    H123657   5.694   5.129   5.809 -0.6335  1.3030  0.6116
  722TIP3    H223658   5.824   5.154   5.736 -0.3369 -2.3467 -0.3407
  723TIP3   OH223659   3.853   0.419  16.473  0.4219  0.0276  0.6821
  723TIP3    H123660   3.802   0.347  16.509 -0.4829  0.0379 -0.5071
  723TIP3    H223661   3.794   0.461  16.410  1.7029  0.4058 -0.3117
  724TIP3   OH223662   2.614   1.196  16.379 -0.0778 -0.6320  0.3035
  724TIP3    H123663   2.609   1.101  16.380 -1.9582 -0.5850 -0.0381
  724TIP3    H223664   2.626   1.220  16.471 -1.1807 -1.1695  0.6053
  725TIP3   OH223665   4.342   4.785   5.905 -0.0661 -0.0770 -0.3510
  725TIP3    H123666   4.317   4.878   5.905  0.1685 -0.0087  0.4639
  725TIP3    H223667   4.437   4.786   5.910  0.1603 -0.3434 -2.9728
  726TIP3   OH223668   3.149   6.376   1.048  0.5528 -0.0405 -0.4688
  726TIP3    H123669   3.110   6.318   1.114 -0.8854  1.8349  0.4342
  726TIP3    H223670   3.192   6.445   1.100  0.5841  0.7293 -1.4912
  727TIP3   OH223671   3.401   5.346  16.249 -0.5300  0.7095 -0.4654
  727TIP3    H123672   3.318   5.308  16.222 -0.0027  0.2093 -1.4447
  727TIP3    H223673   3.436   5.387  16.170 -0.0291  1.2758  0.0305
  728TIP3   OH223674   2.955   4.483  14.582  0.1594  0.4314 -0.1199
  728TIP3    H123675   2.962   4.436  14.666  2.3986  2.2172  0.7945
  728TIP3    H223676   2.862   4.504  14.575 -0.6162 -2.3916  0.3453
  729TIP3   OH223677   2.262   3.377  15.419 -0.1412  0.0596  0.2913
  729TIP3    H123678   2.251   3.433  15.342  0.1183  0.8277  0.8008
  729TIP3    H223679   2.246   3.435  15.493  2.5093  0.0744  0.9252
  730TIP3   OH223680   4.756   0.018   2.758  0.6997  0.0164  0.3474
  730TIP3    H123681   4.810   0.097   2.756  2.0122 -0.8793 -0.5528
  730TIP3    H223682   4.712   0.017   2.673  1.4720 -0.7315 -0.0575
  731TIP3   OH223683   0.062   2.268   4.093 -0.3998  0.1558  0.1528
  731TIP3    H123684   0.016   2.351   4.102 -0.6973  0.0922 -0.7132
  731TIP3    H223685   0.151   2.293   4.066 -0.6700  0.1765 -0.7472
  732TIP3   OH223686   6.369   1.631   9.917  0.0664  0.2578  0.1465
  732TIP3    H123687   6.333   1.542   9.915 -1.2605  0.7674 -0.0636
  732TIP3    H223688   6.447   1.627   9.862  1.9392 -1.5044  2.6795
  733TIP3   OH223689   0.154   0.167   2.083 -0.3165 -0.2799  0.6288
  733TIP3    H123690   0.127   0.159   2.175  0.0298 -1.2188  0.6631
  733TIP3    H223691   0.152   0.077   2.050  0.1644 -0.0275 -0.1120
  734TIP3   OH223692   6.901   3.958   2.178 -0.1634 -0.2147  0.2469
  734TIP3    H123693   6.898   4.020   2.105  0.6592 -2.2909 -1.6627
  734TIP3    H223694   6.818   3.971   2.224 -0.0425  2.2071 -0.1025
  735TIP3   OH223695   4.986   5.890  15.051 -0.0506 -0.5797 -0.5878
  735TIP3    H123696   5.038   5.939  14.987  1.6957  0.3175  1.3955
  735TIP3    H223697   5.030   5.805  15.057  0.5177 -0.2413  0.2333
  736TIP3   OH223698   3.914   4.470   5.457 -0.2641 -0.3715  0.2376
  736TIP3    H123699   3.923   4.434   5.545  1.1581 -0.7983 -0.0558
  736TIP3    H223700   3.900   4.394   5.401  0.5126 -0.2736 -0.1035
  737TIP3   OH223701   2.511   4.556  16.644  0.4710 -0.7500  0.0782
  737TIP3    H123702   2.525   4.559  16.739 -0.7665  0.8394  0.2661
  737TIP3    H223703   2.417   4.570  16.634  0.6716 -0.3123 -1.4145
  738TIP3   OH223704   1.387   5.319  16.412  0.0835  0.0597 -0.1476
  738TIP3    H123705   1.455   5.282  16.357  1.2096 -0.4813  1.5358
  738TIP3    H223706   1.434   5.364  16.482 -1.2396 -1.1037  1.5698
  739TIP3   OH223707   6.697   1.629  14.406 -0.0327  0.4340 -0.4519
  739TIP3    H123708   6.673   1.694  14.472  0.6146  1.0301 -0.8001
  739TIP3    H223709   6.792   1.633  14.400 -0.1070  0.7165 -1.7547
  740TIP3   OH223710   4.090   3.798  16.102  0.4497 -0.6417  0.5069
  740TIP3    H123711   4.109   3.732  16.169  0.5338 -1.8624 -0.6814
  740TIP3    H223712   4.105   3.753  16.019 -1.3529  0.2825 -0.3851
  741TIP3   OH223713   3.614   3.741   4.656  0.4367  0.4404  0.4139
  741TIP3    H123714   3.673   3.760   4.728  0.6969  1.0720  0.0493
  741TIP3    H223715   3.531   3.718   4.697  1.0926 -1.0570  0.9463
  742TIP3   OH223716   5.585   6.421   1.687 -0.3942 -0.7543  0.1780
  742TIP3    H123717   5.605   6.489   1.751  0.0584 -0.1882 -0.5590
  742TIP3    H223718   5.670   6.392   1.655 -0.6439  0.1334 -1.3646
  743TIP3   OH223719   1.721   5.850  10.665  0.5729 -0.8356 -0.3111
  743TIP3    H123720   1.758   5.762  10.662 -1.0179 -1.7202  2.3066
  743TIP3    H223721   1.630   5.839  10.636  0.4834  0.0342 -0.3835
  744TIP3   OH223722   1.513   4.271  15.065 -0.5367  0.0832  0.4676
  744TIP3    H123723   1.549   4.184  15.079 -0.9467 -0.0553  0.6642
  744TIP3    H223724   1.518   4.314  15.151  0.4991  0.5750  0.1808
  745TIP3   OH223725   4.093   0.440  11.561 -0.1145 -0.2136 -0.3435
  745TIP3    H123726   4.067   0.530  11.582  0.6753  0.4301 -1.9350
  745TIP3    H223727   4.029   0.412  11.496 -0.2653 -0.7673  0.0377
  746TIP3   OH223728   6.504   0.027  10.504  0.5744  0.2423  0.1460
  746TIP3    H123729   6.542   0.019  10.417  1.2372 -0.7829  0.5169
  746TIP3    H223730   6.478  -0.062  10.528 -0.1768  0.6059  0.7454
  747TIP3   OH223731   3.873   5.838  15.777 -0.2747 -0.3232  0.2788
  747TIP3    H123732   3.937   5.771  15.800 -0.9114 -0.5701  1.3867
  747TIP3    H223733   3.888   5.909  15.839  1.6116  1.4445 -1.9963
  748TIP3   OH223734   1.988   1.946   3.198  0.3621  0.1865 -0.6038
  748TIP3    H123735   1.897   1.927   3.222  0.0627  1.3116 -0.8208
  748TIP3    H223736   2.040   1.907   3.269 -0.3223  0.0945 -0.1486
  749TIP3   OH223737   0.436   4.309   0.534  0.1136 -0.0618 -0.3154
  749TIP3    H123738   0.522   4.341   0.507  1.0687 -1.1905  1.2012
  749TIP3    H223739   0.398   4.271   0.455  0.7979  0.8633 -1.1079
  750TIP3   OH223740   3.996   4.429   3.862 -0.1524 -0.0418  0.0396
  750TIP3    H123741   3.904   4.448   3.881  0.2642  1.6895  0.5470
  750TIP3    H223742   4.008   4.338   3.889 -1.9942 -0.7317 -1.2159
  751TIP3   OH223743   4.959   0.590   4.609 -0.7593  0.8853 -0.6129
  751TIP3    H123744   5.009   0.586   4.527  1.6525  0.3279  0.7641
  751TIP3    H223745   4.937   0.683   4.618  0.9459  1.3625 -0.8437
  752TIP3   OH223746   5.869   5.643  10.705  0.0713 -0.5043  0.0765
  752TIP3    H123747   5.947   5.699  10.699 -0.8417  0.7327 -0.7040
  752TIP3    H223748   5.879   5.581  10.633  0.0970 -0.0286 -0.3382
  753TIP3   OH223749   4.831   3.829  11.295 -0.2549  0.5840  0.2901
  753TIP3    H123750   4.811   3.805  11.385  1.8089 -2.1901  0.1466
  753TIP3    H223751   4.926   3.843  11.294 -0.0487 -0.5541 -1.6217
  754TIP3   OH223752   0.766   5.010  13.211 -0.2695 -0.7471 -0.1578
  754TIP3    H123753   0.835   5.037  13.151  0.6098 -1.2270  0.6103
  754TIP3    H223754   0.806   5.015  13.298 -1.1787 -1.1038  0.2987
  755TIP3   OH223755   6.090   4.063  10.704 -0.0416 -0.4158 -0.3609
  755TIP3    H123756   6.034   4.000  10.748 -0.1576 -0.3487 -0.4130
  755TIP3    H223757   6.147   4.010  10.648  1.0341 -0.6176  0.8789
  756TIP3   OH223758   1.788   1.342  15.042  0.2078  0.0620 -0.1709
  756TIP3    H123759   1.811   1.255  15.074 -2.3389 -0.2602  1.0869
  756TIP3    H223760   1.861   1.398  15.068  1.3728 -1.4838  0.0040
  757TIP3   OH223761   0.767   0.382  13.011  0.4642 -0.5550 -0.5099
  757TIP3    H123762   0.841   0.424  13.056  0.5291 -0.1657 -0.9735
  757TIP3    H223763   0.798   0.369  12.922  0.0808 -0.6824 -0.6259
  758TIP3   OH223764   5.985   3.064   1.551 -0.9539 -0.2447  0.5396
  758TIP3    H123765   5.912   3.104   1.504 -0.6748 -0.1345  0.2012
  758TIP3    H223766   6.063   3.087   1.500 -0.5236  0.7409  1.5821
  759TIP3   OH223767   3.751   5.680  14.916 -0.5242 -0.2151 -0.0279
  759TIP3    H123768   3.668   5.637  14.934 -0.7733 -0.2171 -1.1168
  759TIP3    H223769   3.760   5.746  14.984 -1.5489 -0.0345 -0.0625
  760TIP3   OH223770   3.437   6.270   5.957  0.2778 -0.0568 -0.2646
  760TIP3    H123771   3.436   6.288   6.051 -0.4755  0.3341 -0.3392
  760TIP3    H223772   3.519   6.223   5.942  0.3401 -0.2380  0.6076
  761TIP3   OH223773   5.806   6.228   4.533 -0.8723 -0.5711  0.0177
  761TIP3    H123774   5.761   6.312   4.521  1.3548  0.5104 -1.3473
  761TIP3    H223775   5.772   6.173   4.463  0.3996  0.4912 -1.5019
  762TIP3   OH223776   4.446   1.850   3.692  0.5246  0.0108 -0.2119
  762TIP3    H123777   4.488   1.816   3.613 -0.5471 -1.8582 -0.0489
  762TIP3    H223778   4.445   1.945   3.680  1.0578 -0.1753 -2.0835
  763TIP3   OH223779   1.048   5.343  13.076 -0.6974  0.1774 -0.1791
  763TIP3    H123780   1.002   5.323  12.995  1.4992 -1.0531 -1.2092
  763TIP3    H223781   1.125   5.392  13.049 -0.9148  1.4912  1.4062
  764TIP3   OH223782   6.116   1.283   3.354  0.4762 -0.1096  0.1020
  764TIP3    H123783   6.094   1.327   3.436 -0.4898  2.1854 -1.3059
  764TIP3    H223784   6.191   1.333   3.320  1.0402 -1.2051 -0.3136
  765TIP3   OH223785   1.251   4.157   0.840  0.5507 -0.4115 -0.0131
  765TIP3    H123786   1.259   4.208   0.920  0.3162  1.9593 -1.3829
  765TIP3    H223787   1.329   4.182   0.789 -0.1404 -0.5626 -1.1702
  766TIP3   OH223788   1.790   1.242   6.116  0.2833 -0.2444  0.5699
  766TIP3    H123789   1.757   1.262   6.203  0.0806 -2.0122  0.9361
  766TIP3    H223790   1.823   1.326   6.083 -2.1380  1.0784  1.2158
  767TIP3   OH223791   3.569   2.064   5.279 -0.1573  0.2685  0.3861
  767TIP3    H123792   3.585   2.157   5.297 -0.2715  0.5112 -0.7144
  767TIP3    H223793   3.526   2.063   5.193 -0.4793 -0.7810  0.5427
  768TIP3   OH223794   4.465   6.700   3.865  0.2298 -0.3280  0.3140
  768TIP3    H123795   4.549   6.668   3.900  0.1498 -2.0190 -0.9253
  768TIP3    H223796   4.399   6.659   3.921  0.1478  2.1140  2.2067
  769TIP3   OH223797   3.862   4.346   1.371  0.4756  0.5678  0.6443
  769TIP3    H123798   3.956   4.353   1.385  0.8424 -1.4026 -0.4150
  769TIP3    H223799   3.840   4.257   1.400 -0.7544  0.4496 -0.5234
  770TIP3   OH223800   0.090   2.576  12.256  0.0339  0.4024  0.0565
  770TIP3    H123801   0.122   2.514  12.321  0.4764 -0.5239 -1.0118
  770TIP3    H223802   0.043   2.523  12.192 -0.6554  1.3259 -0.2250
  771TIP3   OH223803   2.983   4.448  11.127 -0.2992  0.2225  0.4518
  771TIP3    H123804   2.985   4.469  11.033  0.3359  2.1056  0.8477
  771TIP3    H223805   3.045   4.376  11.136 -1.1398 -0.7157 -0.6936
  772TIP3   OH223806   5.536   5.544  12.059  0.2280 -0.6970 -0.3999
  772TIP3    H123807   5.489   5.532  11.976 -1.0917 -0.5243  0.2919
  772TIP3    H223808   5.471   5.586  12.117  2.2510  2.9025 -0.4419
  773TIP3   OH223809   3.627   6.122  10.732  0.2232 -0.7486 -0.5743
  773TIP3    H123810   3.560   6.109  10.664 -0.9309  0.2991  0.3140
  773TIP3    H223811   3.623   6.042  10.784 -0.0589 -0.8591 -0.7601
  774TIP3   OH223812   1.740   3.826  16.582  0.1767 -0.0328 -0.4449
  774TIP3    H123813   1.816   3.870  16.621  0.2310 -0.4770 -0.0381
  774TIP3    H223814   1.752   3.836  16.488 -0.9935  2.8663 -0.4060
  775TIP3   OH223815   1.441   6.159   3.092 -0.3552  0.6988 -0.1648
  775TIP3    H123816   1.448   6.127   3.182  0.6147 -1.8547 -1.0553
  775TIP3    H223817   1.513   6.221   3.082  0.1907  0.1854  0.5309
  776TIP3   OH223818   1.312   4.405   0.053 -0.7419 -0.3601 -0.3730
  776TIP3    H123819   1.305   4.492   0.013 -0.7436  0.3828  1.1800
  776TIP3    H223820   1.371   4.417   0.127  0.9606 -2.1618 -1.3359
  777TIP3   OH223821   5.953   0.541  11.651  0.4137 -0.0836 -0.0726
  777TIP3    H123822   5.884   0.484  11.618 -0.1060  0.1170  0.6402
  777TIP3    H223823   6.012   0.482  11.698  0.9089 -0.3015 -0.9569
  778TIP3   OH223824   6.176   2.399  16.031  0.1096  0.1548  0.3351
  778TIP3    H123825   6.264   2.391  16.068 -0.1284  1.5920  1.2730
  778TIP3    H223826   6.118   2.360  16.096  0.0982 -2.1472 -0.9102
  779TIP3   OH223827   4.362   1.504  14.756 -0.5759  0.1365 -0.4852
  779TIP3    H123828   4.379   1.588  14.799  0.7665 -0.4996  0.2894
  779TIP3    H223829   4.449   1.474  14.729 -0.8889 -1.5599  0.3081
  780TIP3   OH223830   6.258   3.705  12.594  0.7495  0.0417  0.1245
  780TIP3    H123831   6.207   3.628  12.620  1.0356  0.1251  0.9543
  780TIP3    H223832   6.238   3.717  12.501  0.1115 -0.5779  0.1780
  781TIP3   OH223833   1.833   0.305  16.675  0.4010  0.0721 -0.6777
  781TIP3    H123834   1.876   0.358  16.743 -0.8723  0.1819  0.0682
  781TIP3    H223835   1.806   0.369  16.609 -1.4265  0.4503  0.3771
  782TIP3   OH223836   2.141   1.146   0.603 -0.3913 -0.1583 -0.0565
  782TIP3    H123837   2.080   1.136   0.676  0.4636 -0.7944  0.6019
  782TIP3    H223838   2.117   1.228   0.562 -3.0750 -1.3903 -1.1669
  783TIP3   OH223839   0.147   6.891   3.773  0.1458  0.1512 -0.2418
  783TIP3    H123840   0.107   6.894   3.686 -1.5885 -0.3737  0.4962
  783TIP3    H223841   0.220   6.830   3.763 -0.6685 -0.7201 -1.1022
  784TIP3   OH223842   4.227   6.757  15.321  0.2139 -0.0640 -0.6310
  784TIP3    H123843   4.166   6.764  15.248 -2.1608 -1.1328  1.1277
  784TIP3    H223844   4.274   6.676  15.305 -0.8142 -0.6808 -0.6380
  785TIP3   OH223845   1.493   2.699   1.498  0.3794  0.3520 -0.0040
  785TIP3    H123846   1.412   2.730   1.458 -0.6457 -1.1464  0.8212
  785TIP3    H223847   1.515   2.619   1.450  0.3493 -0.2407  0.9317
  786TIP3   OH223848   2.574   1.598  13.061 -0.2291 -0.0884  0.4255
  786TIP3    H123849   2.582   1.611  12.967  0.1017 -0.7378  0.3563
  786TIP3    H223850   2.618   1.673  13.101  1.9128 -1.0915  0.0560
  787TIP3   OH223851   5.272   0.041   5.510 -0.1327  0.2632 -0.5199
  787TIP3    H123852   5.299   0.055   5.600  1.0042  0.4660 -0.8825
  787TIP3    H223853   5.279   0.127   5.468 -1.2478  0.3007 -0.6610
  788TIP3   OH223854   2.441   1.662  14.606 -0.4584 -0.5763  0.0845
  788TIP3    H123855   2.484   1.687  14.524 -0.2544  0.5817  0.5345
  788TIP3    H223856   2.508   1.615  14.655 -0.7524 -1.7908 -0.6343
  789TIP3   OH223857   5.946   6.293  12.338  0.1591 -0.9831  0.5300
  789TIP3    H123858   5.899   6.354  12.281  0.6729 -0.4581  0.6658
  789TIP3    H223859   5.973   6.346  12.413  0.3769 -1.4419  0.7790
  790TIP3   OH223860   4.833   1.094  12.576 -0.6654  0.0291 -0.0292
  790TIP3    H123861   4.779   1.076  12.499 -1.5890 -2.0067  1.0408
  790TIP3    H223862   4.771   1.106  12.648  0.1790  1.9305  0.4537
  791TIP3   OH223863   3.934   5.199  11.903 -0.1417  0.0216 -0.7649
  791TIP3    H123864   3.939   5.288  11.937  0.9658 -0.0654 -0.6480
  791TIP3    H223865   3.927   5.144  11.982  1.5548 -0.1249 -0.6766
  792TIP3   OH223866   1.573   5.697   4.597  0.1497  0.7445  0.2456
  792TIP3    H123867   1.570   5.717   4.503 -0.1628  2.5794  0.6045
  792TIP3    H223868   1.535   5.774   4.639 -0.9305 -0.5912  1.8356
  793TIP3   OH223869   3.911   3.481  15.967 -0.3470 -0.3000  0.3069
  793TIP3    H123870   3.825   3.463  15.931  0.3115 -2.4260 -0.3801
  793TIP3    H223871   3.949   3.547  15.909 -0.9941 -0.3714 -0.2065
  794TIP3   OH223872   1.464   3.821   5.508  0.0264  0.1433  0.5362
  794TIP3    H123873   1.500   3.888   5.565  0.3889  1.1269 -0.7900
  794TIP3    H223874   1.371   3.845   5.499 -0.1377 -0.2871  1.0917
  795TIP3   OH223875   5.604   4.261   3.940 -0.7349  0.2799  0.0554
  795TIP3    H123876   5.621   4.167   3.939  2.2278  0.6612 -2.7676
  795TIP3    H223877   5.641   4.292   4.022  1.2731 -0.6838 -0.4368
  796TIP3   OH223878   4.023   5.157  10.988 -0.1348 -0.3890 -0.1643
  796TIP3    H123879   4.066   5.143  11.072 -0.0929 -0.4301 -0.1917
  796TIP3    H223880   3.963   5.082  10.980 -0.9617  0.2078  0.3445
  797TIP3   OH223881   1.400   4.338  13.280  0.4927 -0.0673 -0.0033
  797TIP3    H123882   1.488   4.302  13.265  0.3616 -0.1573 -0.5811
  797TIP3    H223883   1.355   4.326  13.197 -0.7112 -1.8197  0.8358
  798TIP3   OH223884   0.683   5.809  14.572  0.5057 -0.8572 -0.4742
  798TIP3    H123885   0.625   5.739  14.602  0.1133 -0.4686 -0.3123
  798TIP3    H223886   0.647   5.835  14.487  2.3014 -2.7607 -1.9100
  799TIP3   OH223887   1.566   6.068  12.305  0.2510  0.0089  0.5157
  799TIP3    H123888   1.645   6.111  12.272  0.7293 -0.5725  0.8900
  799TIP3    H223889   1.533   6.127  12.372 -0.8644  1.3278 -1.1023
  800TIP3   OH223890   5.351   4.967  10.887  0.2126 -0.0889  0.4031
  800TIP3    H123891   5.313   5.010  10.963  1.5751  1.0226  0.4801
  800TIP3    H223892   5.445   4.969  10.902  0.3964 -2.1655 -0.1107
  801TIP3   OH223893   2.838   4.921   3.881 -0.6690  0.3965 -0.2854
  801TIP3    H123894   2.898   4.865   3.931 -1.0155  0.6037  0.3776
  801TIP3    H223895   2.872   5.009   3.894 -0.6887  0.4388 -0.5223
  802TIP3   OH223896   3.037   1.359   4.957  0.0610  0.7272  0.5575
  802TIP3    H123897   3.048   1.296   5.028  0.1797 -0.1497 -0.2264
  802TIP3    H223898   2.948   1.343   4.925  1.8258 -3.0120 -3.3075
  803TIP3   OH223899   0.967   4.993   4.042  0.5402 -0.4491 -0.1476
  803TIP3    H123900   0.903   4.935   4.002  1.2831 -2.2434  1.1510
  803TIP3    H223901   1.042   4.937   4.061  0.8479  0.6699  2.2423
  804TIP3   OH223902   5.871   2.499  13.499  0.2003 -0.2396  0.2015
  804TIP3    H123903   5.804   2.446  13.542 -0.9043  1.2947  0.4748
  804TIP3    H223904   5.908   2.552  13.570  0.6183  0.0286 -0.2083
  805TIP3   OH223905   3.320   3.586   2.418 -0.1984 -0.0058 -0.0449
  805TIP3    H123906   3.252   3.631   2.367 -0.6179 -0.6173 -0.0363
  805TIP3    H223907   3.401   3.630   2.394 -0.8764  2.7137  2.0797
  806TIP3   OH223908   5.115   0.291   2.567 -0.4738 -0.2950 -1.1370
  806TIP3    H123909   5.109   0.382   2.540  1.3917  0.8841  1.8269
  806TIP3    H223910   5.208   0.268   2.555 -0.6951 -1.4242 -0.8676
  807TIP3   OH223911   2.879   6.148   0.599  0.6426 -0.3296 -0.4654
  807TIP3    H123912   2.861   6.192   0.516  2.5829  1.0433 -0.2197
  807TIP3    H223913   2.884   6.219   0.663 -1.1117 -1.3861  0.9256
  808TIP3   OH223914   2.271   2.277   2.248 -0.0750  0.5217 -0.1728
  808TIP3    H123915   2.345   2.299   2.191 -0.9453  1.1347 -1.0875
  808TIP3    H223916   2.250   2.359   2.293 -0.1109  0.3085  0.2066
  809TIP3   OH223917   1.579   4.938   0.600 -0.3283  0.3757 -0.6225
  809TIP3    H123918   1.592   4.875   0.670 -2.5304  0.5035 -0.0237
  809TIP3    H223919   1.611   4.895   0.522 -0.1797 -0.7813  0.0604
  810TIP3   OH223920   6.521   2.071   2.403 -0.3883  0.3649 -0.3178
  810TIP3    H123921   6.535   2.117   2.486 -1.2541 -1.9516  1.2286
  810TIP3    H223922   6.460   2.127   2.355 -0.4465  1.4213  0.9074
  811TIP3   OH223923   0.967   2.756  12.984  0.1279  0.2017  0.0178
  811TIP3    H123924   0.923   2.786  12.905  1.2941  1.1889 -0.2993
  811TIP3    H223925   0.923   2.802  13.055 -0.5557 -0.2571 -0.0999
  812TIP3   OH223926   0.119   4.381  15.862  0.2933 -0.0652  0.9841
  812TIP3    H123927   0.056   4.350  15.927 -2.7475 -0.4195 -1.8512
  812TIP3    H223928   0.077   4.458  15.823  0.9268 -1.0501 -1.8888
  813TIP3   OH223929   1.675   3.005   2.967  0.5923  0.2683 -0.2323
  813TIP3    H123930   1.636   3.034   2.885  0.8713 -1.0680 -0.8680
  813TIP3    H223931   1.606   2.955   3.010  0.8496 -0.1312 -0.2748
  814TIP3   OH223932   2.000   1.445   5.378  0.1386 -0.0242 -0.1310
  814TIP3    H123933   2.094   1.459   5.366  0.2766 -0.7764  0.0157
  814TIP3    H223934   1.961   1.472   5.295  0.6860 -1.4026 -0.8760
  815TIP3   OH223935   0.433   0.699  15.257  0.1885  0.0618 -0.5462
  815TIP3    H123936   0.445   0.778  15.203 -0.0094  1.0849  0.8623
  815TIP3    H223937   0.343   0.705  15.288  0.4738 -0.2263  0.3468
  816TIP3   OH223938   5.997   6.729  10.705  0.1713 -0.1091  0.4386
  816TIP3    H123939   6.046   6.666  10.652 -0.7112 -1.4965  1.2246
  816TIP3    H223940   5.935   6.676  10.754  0.9886  1.1030  2.9368
  817TIP3   OH223941   0.902   4.904  14.941  0.5016  0.1413  0.1103
  817TIP3    H123942   0.906   4.828  14.882 -0.9888 -1.8451  2.3904
  817TIP3    H223943   0.971   4.888  15.005 -1.9638 -1.2140  2.6113
  818TIP3   OH223944   5.293   3.900   6.738 -0.5944  0.0445 -0.1560
  818TIP3    H123945   5.359   3.830   6.748  0.9639  1.5365  0.5646
  818TIP3    H223946   5.241   3.895   6.818  0.7851  0.9082  0.8500
  819TIP3   OH223947   0.383   4.086  11.212 -0.5904 -0.2232 -0.0438
  819TIP3    H123948   0.322   4.083  11.286 -1.6985  0.0722 -0.9345
  819TIP3    H223949   0.329   4.101  11.135  0.7563  2.3466 -0.6351
  820TIP3   OH223950   1.764   6.534  14.423 -0.2163  0.2311  0.2967
  820TIP3    H123951   1.815   6.611  14.399 -0.9355 -0.1337 -2.9311
  820TIP3    H223952   1.822   6.460  14.403  1.2464 -0.3200  5.1994
  821TIP3   OH223953   2.099   2.680  15.648 -0.2331 -0.7208 -0.0036
  821TIP3    H123954   2.084   2.683  15.553  1.3817  1.3701 -0.2664
  821TIP3    H223955   2.023   2.725  15.685 -0.1739 -0.2496 -0.4362
  822TIP3   OH223956   1.205   4.768   0.532  0.2375  0.4421 -0.0624
  822TIP3    H123957   1.223   4.839   0.594  0.5909  0.1514  0.1715
  822TIP3    H223958   1.159   4.811   0.459 -0.2799  0.7716  0.4439
  823TIP3   OH223959   0.796   0.959   9.951 -0.2154  0.1892 -0.1244
  823TIP3    H123960   0.889   0.972   9.933 -0.4646  0.8014 -1.0236
  823TIP3    H223961   0.766   1.044   9.984 -0.1670 -0.4045  1.5470
  824TIP3   OH223962   3.482   4.808  15.538 -0.0179  0.2142  0.1127
  824TIP3    H123963   3.453   4.740  15.599 -1.6683  0.5319 -0.2662
  824TIP3    H223964   3.431   4.885  15.561 -0.3966  0.4561 -1.3906
  825TIP3   OH223965   2.648   1.743   0.239  0.2006 -1.0723  0.9523
  825TIP3    H123966   2.652   1.839   0.240 -1.1682 -0.9871  1.2751
  825TIP3    H223967   2.734   1.714   0.268  0.4417  0.0712  1.4235
  826TIP3   OH223968   5.976   6.578  11.641 -1.0583 -0.7681  0.2667
  826TIP3    H123969   5.910   6.645  11.659 -1.4504 -1.2086  0.4645
  826TIP3    H223970   6.056   6.613  11.681 -1.4209 -0.7265  0.9764
  827TIP3   OH223971   3.860   3.131   2.752  0.3423  0.1544  0.2701
  827TIP3    H123972   3.891   3.114   2.663  1.4749  0.1249  0.6564
  827TIP3    H223973   3.890   3.220   2.772 -0.4050  0.3831  0.4259
  828TIP3   OH223974   2.598   5.082  15.272 -0.0384  0.7904  0.1113
  828TIP3    H123975   2.534   5.016  15.244 -0.1427  0.7959  0.3367
  828TIP3    H223976   2.545   5.157  15.298 -0.3588 -0.6924  4.7306
  829TIP3   OH223977   2.706   3.374  12.739  0.2478  0.1799  0.5227
  829TIP3    H123978   2.699   3.353  12.645 -0.6213  2.2976  0.0690
  829TIP3    H223979   2.733   3.291  12.779 -2.4671 -1.6985 -1.1600
  830TIP3   OH223980   0.650   1.040   0.551 -0.0069 -0.3029 -0.5401
  830TIP3    H123981   0.681   0.949   0.554  0.4578 -0.1587  3.0475
  830TIP3    H223982   0.730   1.092   0.549 -0.1176  0.0092  1.5443
  831TIP3   OH223983   4.329   1.045  14.575 -0.8170  0.1681  0.5751
  831TIP3    H123984   4.265   1.007  14.636 -1.3742  0.9107  0.4576
  831TIP3    H223985   4.408   0.994  14.589 -1.3727 -0.6343  0.8724
  832TIP3   OH223986   4.606   2.038   1.620  0.1083 -1.1242  1.0881
  832TIP3    H123987   4.588   1.947   1.643  0.0248 -0.8247  2.2440
  832TIP3    H223988   4.567   2.089   1.691 -3.1676  0.0603 -1.3110
  833TIP3   OH223989   4.153   0.164   5.626  0.2643 -0.0397  0.2296
  833TIP3    H123990   4.197   0.243   5.657 -0.5862 -0.5435  3.0575
  833TIP3    H223991   4.060   0.185   5.629  0.1119 -0.4167 -1.2995
  834TIP3   OH223992   0.607   0.181  10.331 -0.4797  0.0656  0.3017
  834TIP3    H123993   0.556   0.100  10.340 -0.1518 -0.1135  0.6054
  834TIP3    H223994   0.594   0.208  10.241 -0.4709 -0.4123  0.1526
  835TIP3   OH223995   3.092   1.282   4.562 -0.2712  0.0088 -0.2066
  835TIP3    H123996   3.145   1.258   4.638 -0.6389 -0.3118 -0.0506
  835TIP3    H223997   3.095   1.378   4.559 -0.1516  0.0149  0.1354
  836TIP3   OH223998   3.769   2.527   1.852 -0.4580 -0.2815  0.3130
  836TIP3    H123999   3.763   2.480   1.935 -0.0229  1.7853  1.5785
  836TIP3    H224000   3.799   2.614   1.876  1.1379 -0.0631 -2.1992
  837TIP3   OH224001   3.570   4.462  15.674  0.2336 -0.6714  0.2605
  837TIP3    H124002   3.508   4.522  15.717  0.5375 -1.3226  1.6617
  837TIP3    H224003   3.634   4.521  15.633 -0.1501 -0.0168  0.5710
  838TIP3   OH224004   6.293   3.136   0.755 -0.2009 -0.3050 -0.3924
  838TIP3    H124005   6.207   3.096   0.764  0.2257 -1.5126 -1.3446
  838TIP3    H224006   6.326   3.104   0.671  1.6138 -0.8073  0.4446
  839TIP3   OH224007   2.115   3.492   2.839  0.0491 -0.3603 -0.0843
  839TIP3    H124008   2.069   3.574   2.822  1.3256  0.3191 -0.3967
  839TIP3    H224009   2.159   3.472   2.757  0.4083 -0.9292  0.2418
  840TIP3   OH224010   1.630   1.433  14.838 -0.0657  0.0636  0.1859
  840TIP3    H124011   1.681   1.399  14.911 -0.4665  0.1913  0.5286
  840TIP3    H224012   1.539   1.433  14.870 -0.2388  0.1321 -0.3048
  841TIP3   OH224013   4.210   5.038  12.856 -0.3980 -0.3551 -0.3212
  841TIP3    H124014   4.275   4.988  12.806  0.6367  0.1940  0.4390
  841TIP3    H224015   4.143   4.975  12.878  1.0909 -1.5537  0.9921
  842TIP3   OH224016   2.978   5.813  11.001 -0.1083 -0.1142  0.5315
  842TIP3    H124017   2.919   5.880  11.036 -1.0447 -0.6034 -0.0790
  842TIP3    H224018   2.982   5.831  10.907  0.5727 -0.2105  0.5344
  843TIP3   OH224019   2.368   4.927  11.684  0.4677 -0.0974  0.1955
  843TIP3    H124020   2.458   4.950  11.709  1.0766  0.2875 -2.0628
  843TIP3    H224021   2.367   4.832  11.681  0.8977 -0.0957 -0.0551
  844TIP3   OH224022   5.482   4.614  10.828  0.1246 -0.3366 -0.2204
  844TIP3    H124023   5.440   4.679  10.885  3.8201  1.3700  0.8979
  844TIP3    H224024   5.470   4.648  10.740 -0.7657  0.0938  0.0530
  845TIP3   OH224025   2.595   0.357   5.208  0.0701 -0.3337 -0.7052
  845TIP3    H124026   2.685   0.334   5.185 -0.4895 -3.1354 -0.4374
  845TIP3    H224027   2.567   0.288   5.267 -1.7898  1.3350  0.5075
  846TIP3   OH224028   6.686   6.610   4.053 -0.0233  0.0262 -0.8176
  846TIP3    H124029   6.673   6.638   4.143 -1.4955  1.6639 -1.4867
  846TIP3    H224030   6.668   6.688   4.000  0.0413 -1.0910 -2.5773
  847TIP3   OH224031   3.119   1.247   5.733 -0.5839  0.6165 -0.0456
  847TIP3    H124032   3.169   1.227   5.812 -2.9937 -0.5815  1.2729
  847TIP3    H224033   3.185   1.251   5.663  1.3670 -0.5355  1.6331
  848TIP3   OH224034   4.832   0.198  12.853  0.3739 -0.5231 -0.4859
  848TIP3    H124035   4.924   0.220  12.871 -0.4200  1.3674  1.8141
  848TIP3    H224036   4.785   0.280  12.866 -1.9304 -1.9393  0.7406
  849TIP3   OH224037   3.008   2.849  11.115 -0.3723 -0.6949 -0.4269
  849TIP3    H124038   2.979   2.776  11.061  0.4989 -0.4211 -1.2821
  849TIP3    H224039   3.103   2.843  11.115 -0.3317 -0.1891  0.3905
  850TIP3   OH224040   1.090   1.487   4.620  0.6877 -0.0038 -0.8429
  850TIP3    H124041   1.185   1.486   4.630  0.8607  1.8643 -1.7690
  850TIP3    H224042   1.061   1.556   4.680  0.2043  1.0840 -2.2634
  851TIP3   OH224043   0.192   2.026  15.413  0.8011 -0.7746  0.1210
  851TIP3    H124044   0.182   2.113  15.452  1.2622 -1.4058  1.7405
  851TIP3    H224045   0.144   1.968  15.472  1.0994 -1.7219 -0.5444
  852TIP3   OH224046   2.228   5.553   4.989 -0.4389 -0.4952  0.2455
  852TIP3    H124047   2.186   5.558   4.903 -0.5560  0.5056  0.3515
  852TIP3    H224048   2.263   5.640   5.005 -0.8132 -0.5296  1.4126
  853TIP3   OH224049   1.896   4.481   2.632  0.1179 -0.7965  1.1963
  853TIP3    H124050   1.820   4.424   2.647 -1.3707  0.6714 -0.3047
  853TIP3    H224051   1.918   4.515   2.718 -1.8097 -0.2266  1.5066
  854TIP3   OH224052   6.486   2.244   5.666 -0.6581 -0.2416 -0.1607
  854TIP3    H124053   6.424   2.315   5.648 -0.6933 -0.0530  0.6555
  854TIP3    H224054   6.563   2.289   5.703 -1.0507 -0.7028  1.2709
  855TIP3   OH224055   3.737   2.243   0.161  0.4894  0.2632  0.1580
  855TIP3    H124056   3.761   2.327   0.198 -0.6248  0.1543  1.1831
  855TIP3    H224057   3.642   2.249   0.148  0.3852 -0.8596  0.3248
  856TIP3   OH224058   3.156   3.704   4.615  0.5345 -0.1321  0.0191
  856TIP3    H124059   3.081   3.665   4.570  0.2881 -1.6665  1.6576
  856TIP3    H224060   3.230   3.688   4.556 -0.2878  0.8053 -1.3072
  857TIP3   OH224061   0.618   0.731  10.293  0.5049  0.0863 -0.3396
  857TIP3    H124062   0.575   0.807  10.252  1.4842  0.1385 -1.3155
  857TIP3    H224063   0.557   0.659  10.278  0.2219  0.3910 -0.6889
  858TIP3   OH224064   5.486   4.744   2.552  0.6142  0.3244 -0.0946
  858TIP3    H124065   5.530   4.713   2.472  0.8378  1.5833 -0.4776
  858TIP3    H224066   5.553   4.738   2.620  0.9455  0.8409 -0.3676
  859TIP3   OH224067   5.671   6.476  14.170 -0.0680  0.3697 -0.0965
  859TIP3    H124068   5.618   6.404  14.135 -0.1967  0.3571  0.1179
  859TIP3    H224069   5.672   6.460  14.265 -1.4239  1.5158  0.1534
  860TIP3   OH224070   2.008   4.376  12.710  0.6168  0.2166  0.0803
  860TIP3    H124071   2.008   4.455  12.656  0.7217  0.1869  0.0382
  860TIP3    H224072   1.991   4.408  12.799  2.6694  0.5205  0.4071
  861TIP3   OH224073   5.942   2.053  11.711 -0.2019 -0.3645 -0.1383
  861TIP3    H124074   5.945   2.148  11.722 -1.2845 -0.2184 -1.0073
  861TIP3    H224075   5.877   2.023  11.774  0.7693 -0.6513  0.7606
  862TIP3   OH224076   1.889   4.338   0.939 -0.0392 -0.1709  0.3171
  862TIP3    H124077   1.887   4.405   1.007 -0.0206 -0.9701  1.1205
  862TIP3    H224078   1.804   4.294   0.946  0.0449 -0.3989 -0.0341
  863TIP3   OH224079   2.890   2.430   2.558  0.1700 -0.8262 -0.0953
  863TIP3    H124080   2.821   2.480   2.601 -1.2694 -1.7828 -1.2157
  863TIP3    H224081   2.923   2.371   2.626  0.7597  0.4380  0.7747
  864TIP3   OH224082   6.098   2.076   6.327  0.2955  0.4955 -0.1893
  864TIP3    H124083   6.052   2.040   6.251 -1.3990 -1.5009  1.6452
  864TIP3    H224084   6.048   2.153   6.351  1.2833  1.5845 -1.4758
  865TIP3   OH224085   3.513   5.735   0.872 -0.4719 -0.2874  0.6647
  865TIP3    H124086   3.598   5.778   0.869  1.0988 -3.0926  0.8521
  865TIP3    H224087   3.483   5.735   0.781  0.3137 -0.2569  0.3949
  866TIP3   OH224088   2.377   5.901  10.333 -0.3363 -0.1178 -0.0366
  866TIP3    H124089   2.462   5.899  10.290  0.6045 -2.2669  1.7270
  866TIP3    H224090   2.314   5.914  10.262  1.3727  0.4670 -1.5078
  867TIP3   OH224091   5.641   5.626  11.522 -0.3841  0.3271 -0.2130
  867TIP3    H124092   5.620   5.687  11.451 -0.8697  1.0797  0.5635
  867TIP3    H224093   5.611   5.541  11.490 -0.7528  0.6912 -0.8462
  868TIP3   OH224094   3.711   4.445   3.855  0.1877 -0.5033 -0.7897
  868TIP3    H124095   3.709   4.349   3.861 -1.8448 -0.4881 -0.7949
  868TIP3    H224096   3.656   4.475   3.927  0.7046  0.6837 -0.8621
  869TIP3   OH224097   4.472   5.739   1.328  0.5783  0.1502 -1.0356
  869TIP3    H124098   4.542   5.677   1.308 -0.6578 -1.7414  0.1633
  869TIP3    H224099   4.514   5.807   1.380  1.6002 -0.7828 -0.5972
  870TIP3   OH224100   6.698   1.943  14.858  0.6074 -0.1239 -0.0857
  870TIP3    H124101   6.784   1.963  14.896 -0.1094 -1.6057  2.5162
  870TIP3    H224102   6.663   1.874  14.913 -2.7597  1.1831 -0.3945
  871TIP3   OH224103   5.331   2.951  14.677 -0.1122  0.1583 -0.2923
  871TIP3    H124104   5.236   2.954  14.691 -0.4091 -3.1586 -0.7433
  871TIP3    H224105   5.367   2.926  14.761  0.3800  1.2354 -0.1711
  872TIP3   OH224106   3.109   1.909  16.658 -0.0800 -0.0151  0.2015
  872TIP3    H124107   3.181   1.845  16.658  1.0882  1.2379  1.6559
  872TIP3    H224108   3.130   1.968  16.586  1.1113  1.1093  1.4203
  873TIP3   OH224109   5.618   5.208  16.700 -0.2770  0.7397  0.0427
  873TIP3    H124110   5.600   5.239  16.611  0.4925  0.1780 -0.3354
  873TIP3    H224111   5.535   5.172  16.731 -0.2229 -0.3589 -1.0153
  874TIP3   OH224112   5.577   2.227   1.917 -0.1142 -0.3915 -0.0868
  874TIP3    H124113   5.553   2.136   1.936 -0.8024 -0.5059 -1.3540
  874TIP3    H224114   5.631   2.221   1.838  0.8001  0.2240  0.4736
  875TIP3   OH224115   1.138   3.489  14.299 -0.3453 -0.6907  0.2382
  875TIP3    H124116   1.156   3.480  14.392  0.8754  2.9087  0.5152
  875TIP3    H224117   1.206   3.549  14.267  0.6243 -3.3455 -3.5104
  876TIP3   OH224118   3.765   0.689   5.691 -0.0670  0.1346 -0.3332
  876TIP3    H124119   3.857   0.702   5.669 -0.1260  0.5143 -0.3715
  876TIP3    H224120   3.760   0.706   5.785 -0.1944  0.6955 -0.4341
  877TIP3   OH224121   6.253   3.349  10.721  0.0594  0.0821  0.1623
  877TIP3    H124122   6.339   3.374  10.686 -0.3784 -1.2260 -2.0970
  877TIP3    H224123   6.193   3.414  10.684 -0.0722  0.2899  0.7451
  878TIP3   OH224124   2.546   6.221  14.055  0.0225 -0.1565  0.2712
  878TIP3    H124125   2.585   6.266  14.130 -1.2236 -0.8080  1.3643
  878TIP3    H224126   2.604   6.147  14.039 -0.0128 -0.3460  0.9883
  879TIP3   OH224127   6.671   1.743  16.334 -0.2082 -0.8427  0.3951
  879TIP3    H124128   6.601   1.677  16.331 -0.2095 -0.8184 -1.2357
  879TIP3    H224129   6.628   1.824  16.305  0.3601 -0.7091 -0.0849
  880TIP3   OH224130   2.353   2.625  12.377  0.0031 -0.1786  0.3523
  880TIP3    H124131   2.312   2.600  12.294  2.4035 -0.5211 -0.8244
  880TIP3    H224132   2.329   2.554  12.438 -0.4294 -0.7957 -0.5189
  881TIP3   OH224133   3.981   2.317  10.767  0.3701 -0.9561 -0.0745
  881TIP3    H124134   3.958   2.409  10.751  1.3674 -0.2436  2.2212
  881TIP3    H224135   4.076   2.314  10.759  0.2964 -1.9522 -0.7749
  882TIP3   OH224136   0.003   0.380   1.944 -0.7361 -0.2008  0.3092
  882TIP3    H124137  -0.030   0.371   2.033  0.1594 -0.2320  0.6458
  882TIP3    H224138   0.072   0.313   1.937 -0.1859  0.3932 -0.1096
  883TIP3   OH224139   5.246   4.238   5.080  0.1044 -0.5530  0.0425
  883TIP3    H124140   5.280   4.274   4.998  2.8998 -0.8225  0.9796
  883TIP3    H224141   5.196   4.309   5.118  1.3726  0.6747 -0.4782
  884TIP3   OH224142   1.490   0.713   2.162  0.3050 -0.8450 -0.3308
  884TIP3    H124143   1.489   0.741   2.254  1.8999 -0.4540 -0.4019
  884TIP3    H224144   1.564   0.761   2.124 -0.7490 -0.4656 -1.9978
  885TIP3   OH224145   0.212   5.580  13.236 -0.3125 -0.6233  0.1657
  885TIP3    H124146   0.283   5.551  13.178  0.6588 -1.4959  1.7114
  885TIP3    H224147   0.244   5.559  13.324 -1.4212  1.3500  1.0821
  886TIP3   OH224148   5.512   6.384  15.840 -0.4480 -0.2940 -0.0857
  886TIP3    H124149   5.471   6.330  15.772  1.6679  0.9689 -2.5337
  886TIP3    H224150   5.603   6.392  15.812  0.4524  0.6160  2.7824
  887TIP3   OH224151   5.342   2.192  11.836 -0.5996  0.7666 -0.0661
  887TIP3    H124152   5.395   2.165  11.761  0.3327 -0.7069  1.0752
  887TIP3    H224153   5.259   2.147  11.824  0.3181 -1.3209  0.8789
  888TIP3   OH224154   3.169   0.609  11.291 -0.1269  0.3841 -0.1920
  888TIP3    H124155   3.171   0.630  11.384  0.0638 -0.6792  0.0579
  888TIP3    H224156   3.190   0.691  11.247  0.7720  0.6617  0.7325
  889TIP3   OH224157   4.386   2.169   1.165 -0.4328  0.1622 -0.2729
  889TIP3    H124158   4.430   2.114   1.230 -1.6683 -0.4026  0.1194
  889TIP3    H224159   4.363   2.249   1.213  1.6562  1.2355 -0.9265
  890TIP3   OH224160   3.374   2.027   4.724  0.1917 -0.4522 -0.2309
  890TIP3    H124161   3.425   1.947   4.729  3.2404  1.2561 -1.4862
  890TIP3    H224162   3.326   2.021   4.642 -0.5062 -1.4198  0.2287
  891TIP3   OH224163   2.825   1.491  10.758  0.5699  0.2836 -0.4148
  891TIP3    H124164   2.822   1.422  10.691  0.3130 -1.2540  1.1212
  891TIP3    H224165   2.829   1.572  10.707  1.4599 -0.8524 -2.2946
  892TIP3   OH224166   6.686   1.478  12.486  0.8898  0.7842 -0.5630
  892TIP3    H124167   6.682   1.420  12.409  0.1667  0.8038 -0.5467
  892TIP3    H224168   6.693   1.566  12.449  0.0941  0.8301 -0.6239
  893TIP3   OH224169   1.204   2.902  10.298 -0.1544  0.0497  0.3429
  893TIP3    H124170   1.207   2.955  10.377 -0.3849 -0.1614  0.4963
  893TIP3    H224171   1.114   2.869  10.294 -0.3784  0.7211 -0.4493
  894TIP3   OH224172   2.600   1.047   6.040 -0.6979 -1.4710 -0.2682
  894TIP3    H124173   2.575   1.004   6.121  1.0873 -0.2330  1.0037
  894TIP3    H224174   2.695   1.032   6.033 -0.2526  1.0154 -0.4629
  895TIP3   OH224175   4.659   6.535   3.142  0.5220 -0.0787  0.3833
  895TIP3    H124176   4.741   6.582   3.131  0.5819 -0.1510  0.5268
  895TIP3    H224177   4.682   6.443   3.135  0.1207 -0.0651 -1.9656
  896TIP3   OH224178   2.474   6.024  14.708  0.1291  0.5458 -0.8139
  896TIP3    H124179   2.411   5.962  14.672  0.2286  0.2964 -0.5562
  896TIP3    H224180   2.546   5.970  14.741  0.3011  0.8073 -0.7569
  897TIP3   OH224181   6.117   5.251  13.747 -0.0491 -0.3426 -0.0069
  897TIP3    H124182   6.203   5.289  13.768 -0.6361  0.4456  1.1289
  897TIP3    H224183   6.134   5.158  13.737  1.0063 -0.1509 -0.1624
  898TIP3   OH224184   2.390   1.820  15.030 -0.0661  0.2127  0.1720
  898TIP3    H124185   2.316   1.762  15.047 -0.1508 -0.1664 -1.3061
  898TIP3    H224186   2.350   1.902  15.003  0.0264  0.0192 -0.5918
  899TIP3   OH224187   5.165   0.384  11.956  0.3915  0.1476  0.5448
  899TIP3    H124188   5.134   0.294  11.954 -1.2749  0.6724  1.2308
  899TIP3    H224189   5.246   0.383  11.904 -0.0264 -1.5603 -0.1271
  900TIP3   OH224190   0.963   5.731  12.715 -0.1195  0.1167 -0.0113
  900TIP3    H124191   1.018   5.768  12.784  0.8631 -0.7554 -0.3007
  900TIP3    H224192   1.025   5.699  12.650 -1.0282  1.1334 -1.4262
  901TIP3   OH224193   6.884   2.882  12.649 -0.1526  0.2161  0.0349
  901TIP3    H124194   6.957   2.938  12.621 -0.8559  1.7989  1.1842
  901TIP3    H224195   6.842   2.932  12.719 -2.3090 -0.6870 -0.5390
  902TIP3   OH224196   4.959   3.622   1.326 -0.0247  0.0837 -0.0668
  902TIP3    H124197   4.888   3.580   1.278 -0.3504  0.2883  0.2276
  902TIP3    H224198   4.954   3.585   1.414 -1.6043  2.1304  0.8068
  903TIP3   OH224199   3.087   3.618   3.210  0.0343 -0.1647  0.3029
  903TIP3    H124200   3.043   3.601   3.293 -0.9900  2.0511  0.2956
  903TIP3    H224201   3.141   3.540   3.194 -2.2311 -2.0678  1.3936
  904TIP3   OH224202   6.015   4.129   4.506  0.2513  0.4963  0.3563
  904TIP3    H124203   5.995   4.170   4.422  1.7956  1.5043  0.4513
  904TIP3    H224204   6.093   4.077   4.490 -1.2262 -1.8906  0.4332
  905TIP3   OH224205   2.626   1.197  13.679 -0.2877 -0.1706  0.3757
  905TIP3    H124206   2.583   1.240  13.605  0.1649  0.7770  0.6570
  905TIP3    H224207   2.577   1.115  13.691 -0.7017 -0.0787 -0.6217
  906TIP3   OH224208   1.709   3.543  16.136 -0.1776  0.7437  1.0085
  906TIP3    H124209   1.634   3.486  16.148  0.4307  0.0522  1.5892
  906TIP3    H224210   1.779   3.485  16.106  0.7830  0.9465  2.7454
  907TIP3   OH224211   2.674   4.858  15.842 -0.3213 -0.2845 -0.1915
  907TIP3    H124212   2.625   4.823  15.917 -2.3407  1.0729 -0.7887
  907TIP3    H224213   2.762   4.871  15.875 -1.4128  1.3911  2.3615
  908TIP3   OH224214   4.708   1.614  13.110 -0.0187  0.1374 -0.0957
  908TIP3    H124215   4.649   1.685  13.135 -0.2081  0.5275 -1.5766
  908TIP3    H224216   4.655   1.557  13.056  0.7939  0.1760 -0.9548
  909TIP3   OH224217   4.083   3.125  13.967 -0.1464  0.1577  0.3338
  909TIP3    H124218   3.998   3.102  14.004 -1.4108  1.4279 -1.6159
  909TIP3    H224219   4.062   3.167  13.883  2.4834 -2.1822 -1.6980
  910TIP3   OH224220   5.969   0.981  16.028 -0.2423 -0.2460  0.3927
  910TIP3    H124221   5.883   0.965  16.069 -0.2572  0.1473  0.5159
  910TIP3    H224222   6.017   0.900  16.042 -1.2217 -1.1665 -1.2778
  911TIP3   OH224223   0.734   3.665   0.488 -0.3032  0.3247  0.4542
  911TIP3    H124224   0.656   3.719   0.502 -1.0367 -0.8356  1.0334
  911TIP3    H224225   0.802   3.706   0.541 -0.3566  1.6460 -0.4611
  912TIP3   OH224226   4.553   4.343   3.430 -0.4988 -0.0224 -0.4860
  912TIP3    H124227   4.498   4.296   3.368 -0.6987 -1.7979  0.9398
  912TIP3    H224228   4.565   4.282   3.503  1.6172  1.0996  0.2124
  913TIP3   OH224229   4.582   4.524   1.167  0.5852 -0.4480 -0.5819
  913TIP3    H124230   4.518   4.513   1.097  0.8057 -1.0840 -0.6874
  913TIP3    H224231   4.531   4.517   1.248  0.0896  1.6848 -0.6510
  914TIP3   OH224232   6.057   6.853  15.832 -0.5971 -0.4134  0.2182
  914TIP3    H124233   5.999   6.887  15.764 -0.5015  1.0515  0.8449
  914TIP3    H224234   6.143   6.850  15.790 -0.8073 -1.0146 -0.1928
  915TIP3   OH224235   6.547   4.082  11.794 -0.1160 -0.0988 -0.5770
  915TIP3    H124236   6.499   4.023  11.736  1.0125 -2.6567  0.9401
  915TIP3    H224237   6.480   4.141  11.829 -1.5915 -1.4732 -0.9695
  916TIP3   OH224238   5.617   2.719   1.402 -0.3483  0.2312 -0.5404
  916TIP3    H124239   5.602   2.799   1.352  0.4461  0.6527 -0.1109
  916TIP3    H224240   5.532   2.675   1.402 -0.3073  0.0573 -2.5262
  917TIP3   OH224241   4.480   1.169  13.420 -0.1697 -0.0251  0.3587
  917TIP3    H124242   4.456   1.208  13.336  0.5134 -1.4916 -0.5649
  917TIP3    H224243   4.398   1.135  13.455 -0.1703 -1.2190 -0.7251
  918TIP3   OH224244   1.934   1.343  16.869 -0.0936  0.0076  0.1609
  918TIP3    H124245   1.992   1.269  16.854 -0.7054 -0.2410 -1.1350
  918TIP3    H224246   1.942   1.362  16.962  1.1861 -0.7392  0.2180
  919TIP3   OH224247   4.489   1.784  14.819 -0.2928 -0.5918 -0.0649
  919TIP3    H124248   4.523   1.695  14.830 -0.4344 -0.6123  0.2160
  919TIP3    H224249   4.563   1.840  14.842 -0.6653 -0.6323  1.3116
  920TIP3   OH224250   0.649   5.523  12.288 -0.0257  0.5749 -0.0120
  920TIP3    H124251   0.611   5.592  12.342  0.0782  3.4599 -3.2537
  920TIP3    H224252   0.574   5.485  12.242  0.1523  0.1264  0.0642
  921TIP3   OH224253   4.403   1.997  13.534 -0.2942  0.0629 -0.5884
  921TIP3    H124254   4.485   2.009  13.487 -0.0409 -0.8270 -0.3846
  921TIP3    H224255   4.336   1.998  13.466  0.0786 -1.3312 -1.0021
  922TIP3   OH224256   2.290   2.004  11.940  0.7295  0.1227  0.7747
  922TIP3    H124257   2.306   2.023  11.848 -2.4502  0.7870  0.2289
  922TIP3    H224258   2.268   1.911  11.942  2.0493 -0.1982  1.1069
  923TIP3   OH224259   2.645   3.522   5.413 -0.2340 -0.2706 -0.0793
  923TIP3    H124260   2.656   3.611   5.446 -1.2615 -0.3162  0.4316
  923TIP3    H224261   2.612   3.473   5.488  1.6286 -1.4242  0.0576
  924TIP3   OH224262   6.272   4.156  11.339 -0.4877  0.1186 -0.2562
  924TIP3    H124263   6.220   4.088  11.296  0.3443  0.7875 -2.4749
  924TIP3    H224264   6.264   4.232  11.282  0.8647  1.0175  0.6851
  925TIP3   OH224265   1.642   3.846  15.776 -0.5898 -0.2272 -0.5199
  925TIP3    H124266   1.693   3.856  15.856  1.7541 -0.2863 -1.9241
  925TIP3    H224267   1.569   3.907  15.787 -0.6243 -0.5685  1.8176
  926TIP3   OH224268   4.649   4.346  13.810 -0.0419 -0.6114  0.2423
  926TIP3    H124269   4.705   4.353  13.733 -1.3649 -0.4538 -0.7502
  926TIP3    H224270   4.650   4.253  13.831  1.4845 -0.4624  0.9669
  927TIP3   OH224271   1.521   3.458   4.797 -0.2338 -0.4557  0.1542
  927TIP3    H124272   1.464   3.505   4.736 -0.9953 -0.4065  0.8852
  927TIP3    H224273   1.479   3.469   4.882  1.9697  1.4099  1.1147
  928TIP3   OH224274   2.757   0.439  14.918  0.2736  0.1255  0.8061
  928TIP3    H124275   2.823   0.408  14.856  0.2199 -1.2064  1.3885
  928TIP3    H224276   2.764   0.380  14.992 -0.3579  1.0819  1.6564
  929TIP3   OH224277   0.166   5.581  15.981 -0.6388  0.6839 -0.7132
  929TIP3    H124278   0.212   5.663  15.962  0.4299  0.4387  0.6541
  929TIP3    H224279   0.199   5.519  15.915  3.2907 -0.2607  1.8317
  930TIP3   OH224280   5.250   5.481  12.521 -0.0492  0.0063 -0.5185
  930TIP3    H124281   5.202   5.483  12.438  0.7961 -0.5379 -1.0365
  930TIP3    H224282   5.323   5.421  12.504  0.5236  0.4380  0.4107
  931TIP3   OH224283   6.749   2.520   0.245 -0.3259  0.5092 -0.5669
  931TIP3    H124284   6.677   2.564   0.291 -0.1883  0.4939 -0.3354
  931TIP3    H224285   6.755   2.434   0.286 -1.6507 -0.3687 -2.0912
  932TIP3   OH224286   1.003   6.402  14.772  0.2206 -0.2194  0.3993
  932TIP3    H124287   1.023   6.462  14.700  1.6196 -0.7470  0.3129
  932TIP3    H224288   1.065   6.427  14.841  0.0305 -0.8169  0.7883
  933TIP3   OH224289   2.068   3.033  10.023  0.2539  0.4442  0.2416
  933TIP3    H124290   2.005   2.966   9.996 -0.0622  0.1936  1.5240
  933TIP3    H224291   2.042   3.112   9.976 -2.2247  0.8535  2.1238
  934TIP3   OH224292   5.580   5.757  13.056 -0.4900 -0.1266  0.4636
  934TIP3    H124293   5.501   5.756  13.003 -0.3791  0.0697  0.2919
  934TIP3    H224294   5.641   5.699  13.009 -0.5057 -0.2164  0.5536
  935TIP3   OH224295   1.963   5.621   5.559 -0.0710  0.1993 -0.3537
  935TIP3    H124296   1.951   5.538   5.514  0.4541  0.3630 -0.8006
  935TIP3    H224297   2.029   5.603   5.626  0.0061  0.2479 -0.4175
  936TIP3   OH224298   1.512   2.139  13.641  0.2501  0.4881 -0.2332
  936TIP3    H124299   1.581   2.202  13.622  0.4131  0.6945  0.9915
  936TIP3    H224300   1.444   2.157  13.576  1.1428  0.5745 -1.1667
  937TIP3   OH224301   5.500   1.883   5.886  0.0795 -0.6642 -0.0037
  937TIP3    H124302   5.502   1.796   5.926  0.6450  0.3815  2.3969
  937TIP3    H224303   5.430   1.929   5.932  1.4421  0.9265  0.5807
  938TIP3   OH224304   5.367   1.559   1.833 -0.1628 -0.2612 -0.0804
  938TIP3    H124305   5.277   1.560   1.802 -0.3139  0.7679  0.3280
  938TIP3    H224306   5.411   1.494   1.779 -0.6372  0.7779 -1.8027
  939TIP3   OH224307   0.781   0.815   3.148  0.4243 -0.1036  0.3318
  939TIP3    H124308   0.763   0.739   3.204  1.4424  0.1988  1.0797
  939TIP3    H224309   0.739   0.888   3.192  0.5756  0.0048  0.2965
  940TIP3   OH224310   3.302   0.619   3.237  0.2905 -0.2862  0.0442
  940TIP3    H124311   3.351   0.698   3.213  0.7070 -0.9817 -1.5037
  940TIP3    H224312   3.279   0.632   3.329 -0.7313  2.2177 -0.4911
  941TIP3   OH224313   6.455   5.070   1.442  0.5521  0.0736 -0.0109
  941TIP3    H124314   6.483   5.024   1.521 -0.7395  1.7887  1.5335
  941TIP3    H224315   6.360   5.056   1.437  0.7033 -0.7227 -1.8124
  942TIP3   OH224316   2.973   1.880  15.559 -0.1611  0.1041 -0.4673
  942TIP3    H124317   2.926   1.927  15.490 -1.2721  2.2535  1.6094
  942TIP3    H224318   3.016   1.950  15.610 -0.2449 -1.2840  1.6138
  943TIP3   OH224319   2.985   3.478   3.432 -0.0302 -0.7441  0.0444
  943TIP3    H124320   2.945   3.417   3.370  0.7487  0.3438 -1.5901
  943TIP3    H224321   3.058   3.428   3.471  0.0692 -1.1425 -0.6345
  944TIP3   OH224322   5.780   0.793  15.804  0.4864  0.2327  0.0650
  944TIP3    H124323   5.835   0.720  15.776  0.0615 -0.1191  0.1295
  944TIP3    H224324   5.695   0.753  15.821 -0.9475  1.2753 -3.6162
  945TIP3   OH224325   5.895   5.741  15.922 -0.0565 -0.2139  0.1665
  945TIP3    H124326   5.855   5.823  15.892 -0.5571 -0.2191  0.7867
  945TIP3    H224327   5.820   5.685  15.943  0.2720 -0.4021  0.8705
  946TIP3   OH224328   5.343   6.372  11.599  0.5077  0.5172 -0.4215
  946TIP3    H124329   5.432   6.408  11.601  0.1329  1.4451  0.0402
  946TIP3    H224330   5.342   6.314  11.523  0.7707  2.4486 -1.9606
  947TIP3   OH224331   3.912   1.025   0.090 -0.5215 -0.0551  0.7943
  947TIP3    H124332   3.937   1.098   0.147 -2.1178  0.5112  0.8109
  947TIP3    H224333   3.823   1.002   0.118 -1.5835  0.5719 -1.7560
  948TIP3   OH224334   1.618   0.809  12.242  0.2932 -0.9889  0.2344
  948TIP3    H124335   1.615   0.755  12.320 -0.7371 -0.2156  0.7567
  948TIP3    H224336   1.559   0.766  12.180 -2.6338  0.8096  1.5601
  949TIP3   OH224337   5.406   5.974  14.171  0.6327 -0.6717  0.2799
  949TIP3    H124338   5.411   5.906  14.105 -0.9540 -0.2274 -0.3388
  949TIP3    H224339   5.388   5.928  14.253 -0.2481 -1.0156 -0.1029
  950TIP3   OH224340   2.702   0.507  16.167  0.4336  0.1942  0.1091
  950TIP3    H124341   2.648   0.430  16.149  0.9281 -0.4408  1.2838
  950TIP3    H224342   2.761   0.513  16.092  0.3646 -0.5396 -0.0073
  951TIP3   OH224343   6.057   5.143   0.279  0.1226  0.2042  0.3086
  951TIP3    H124344   6.085   5.051   0.275  1.0252  0.5055 -0.3930
  951TIP3    H224345   5.961   5.138   0.284  0.0523 -0.7408 -1.3969
  952TIP3   OH224346   0.628   0.419  12.027 -0.5275  0.3632 -0.6642
  952TIP3    H124347   0.658   0.458  12.110 -1.0408 -0.0623 -0.2753
  952TIP3    H224348   0.656   0.327  12.033 -4.4954 -0.9617  1.1186
  953TIP3   OH224349   1.581   3.187  12.317  0.3154 -0.5209  0.3516
  953TIP3    H124350   1.624   3.159  12.236  0.6235 -0.2504  0.4227
  953TIP3    H224351   1.541   3.107  12.352  0.8591 -0.7933  0.3507
  954TIP3   OH224352   1.235   2.316  14.063 -0.3288  0.2740  0.3122
  954TIP3    H124353   1.289   2.248  14.104  1.6179  1.6404  0.1550
  954TIP3    H224354   1.212   2.279  13.977  0.2470 -0.3948  0.4317
  955TIP3   OH224355   1.680   0.707   0.611  0.0840  0.2564  0.2400
  955TIP3    H124356   1.615   0.762   0.566 -2.0749  0.6932  3.5699
  955TIP3    H224357   1.731   0.769   0.664  0.4352 -0.5109  0.8142
  956TIP3   OH224358   2.975   5.617  11.639  0.2751  0.4263  0.2106
  956TIP3    H124359   3.048   5.556  11.630 -0.4004 -0.3715 -0.0189
  956TIP3    H224360   2.900   5.570  11.601  0.0623  2.0457 -1.4909
  957TIP3   OH224361   6.479   0.032  14.370  1.0502  0.4864 -0.4379
  957TIP3    H124362   6.398   0.075  14.342  1.6489  1.9029 -0.0609
  957TIP3    H224363   6.496   0.068  14.457  1.8813 -0.1068 -0.3442
  958TIP3   OH224364   1.606   0.666  12.532  0.3336 -0.2064 -0.4899
  958TIP3    H124365   1.618   0.588  12.477 -0.0670 -0.3343 -0.3929
  958TIP3    H224366   1.689   0.714  12.523  0.5157 -0.5550 -0.6874
  959TIP3   OH224367   4.853   2.141  14.477  0.4782  0.1205  0.0126
  959TIP3    H124368   4.798   2.130  14.400  0.9366 -0.4036 -0.2452
  959TIP3    H224369   4.811   2.212  14.526 -0.3697 -0.1972 -0.2257
  960TIP3   OH224370   5.428   6.645  15.202 -0.5079  0.5381  0.4051
  960TIP3    H124371   5.492   6.701  15.159  1.6180  0.1683  2.8377
  960TIP3    H224372   5.397   6.697  15.276 -1.0159 -0.2888  0.7816
  961TIP3   OH224373   2.460   5.970  11.283  0.2308  0.1970 -0.3028
  961TIP3    H124374   2.438   6.007  11.368  1.8991  1.7689 -0.4691
  961TIP3    H224375   2.392   5.905  11.265  0.3149 -0.7970  2.5864
  962TIP3   OH224376   3.093   3.208  13.186  0.4311 -0.2848  0.7119
  962TIP3    H124377   3.044   3.240  13.110  0.3067  0.2868  1.0282
  962TIP3    H224378   3.032   3.217  13.259 -0.3178 -3.0126  0.5506
  963TIP3   OH224379   3.596   6.768   4.149  0.1063  0.2431  0.4068
  963TIP3    H124380   3.664   6.792   4.211 -0.5152 -0.5239  1.4275
  963TIP3    H224381   3.642   6.724   4.078  0.8738  1.5101  0.0924
  964TIP3   OH224382   5.551   2.379  16.378  0.1315 -0.0095 -0.2150
  964TIP3    H124383   5.514   2.291  16.390 -1.2278  0.7379  1.4461
  964TIP3    H224384   5.503   2.434  16.440  1.5021  1.7702 -0.6589
  965TIP3   OH224385   3.044   3.700  16.870  0.1943 -0.8307  0.0947
  965TIP3    H124386   3.119   3.641  16.857  1.0620  0.1586  0.4509
  965TIP3    H224387   2.971   3.642  16.892  0.7443 -1.8536 -0.6852
  966TIP3   OH224388   5.811   2.826   4.172  0.4651  0.0642 -0.3958
  966TIP3    H124389   5.766   2.825   4.088  1.2217 -0.5354 -0.8132
  966TIP3    H224390   5.742   2.815   4.237 -0.2356  1.4776 -0.8711
  967TIP3   OH224391   5.921   5.004  13.199 -0.0586 -0.2695  0.1060
  967TIP3    H124392   5.879   4.954  13.270 -1.0443 -0.3034 -0.4749
  967TIP3    H224393   5.998   4.952  13.176 -1.4657 -2.0004 -0.9994
  968TIP3   OH224394   1.124   4.426   1.480 -0.0287  0.3284 -0.2353
  968TIP3    H124395   1.163   4.376   1.408  0.2196 -0.6824  0.5755
  968TIP3    H224396   1.072   4.494   1.437  4.4059  3.3797 -1.5002
  969TIP3   OH224397   1.031   5.782  15.640  0.1893  0.2447 -0.6429
  969TIP3    H124398   1.084   5.858  15.617  0.4336  0.8844  1.7314
  969TIP3    H224399   0.997   5.802  15.728 -1.5253 -1.4568 -0.8396
  970TIP3   OH224400   1.456   4.255   9.991 -0.2580 -0.0397 -0.0612
  970TIP3    H124401   1.390   4.313   9.951  0.5725  0.2279 -1.0928
  970TIP3    H224402   1.511   4.314  10.042 -1.1097 -0.3374  1.2622
  971TIP3   OH224403   2.488   6.182   1.888  0.4964 -0.1623  0.2263
  971TIP3    H124404   2.416   6.244   1.875  1.3069  0.6038 -0.7380
  971TIP3    H224405   2.550   6.228   1.944  0.1181 -0.9404  1.3229
  972TIP3   OH224406   2.507   3.189   3.590 -0.4593 -0.7422  0.7720
  972TIP3    H124407   2.502   3.276   3.551  1.6142 -0.7130  0.4365
  972TIP3    H224408   2.511   3.129   3.516 -0.7640 -1.0426  0.9916
  973TIP3   OH224409   2.551   3.818   3.593  0.2183  0.5359 -0.2723
  973TIP3    H124410   2.497   3.837   3.517  0.6244  1.0499 -0.4366
  973TIP3    H224411   2.616   3.756   3.561 -0.7135 -0.6659  0.1068
  974TIP3   OH224412   0.799   1.603  10.799  0.2114 -0.1158  0.1224
  974TIP3    H124413   0.739   1.550  10.746 -0.3008  0.5656  0.0143
  974TIP3    H224414   0.877   1.613  10.744 -0.5459  1.0891 -0.7759
  975TIP3   OH224415   2.123   4.008  15.291  0.5573 -0.4851 -0.4946
  975TIP3    H124416   2.139   4.090  15.245  0.4584 -0.4172 -0.4080
  975TIP3    H224417   2.139   4.030  15.383  1.4396 -0.7874 -0.5645
  976TIP3   OH224418   5.925   6.546   3.127  0.4800 -0.1188  0.1138
  976TIP3    H124419   5.933   6.583   3.215  0.9077  1.0555 -0.4055
  976TIP3    H224420   5.978   6.603   3.072  0.9792 -1.3916 -0.7613
  977TIP3   OH224421   6.262   4.159   3.024  0.1289  0.6343  0.2598
  977TIP3    H124422   6.230   4.250   3.025 -1.7601  0.0135  0.2288
  977TIP3    H224423   6.205   4.113   3.085  1.7253 -0.3654  1.0638
  978TIP3   OH224424   6.790   3.526  14.368 -0.2869  0.0798 -0.1307
  978TIP3    H124425   6.748   3.596  14.319  0.8594 -0.2269 -1.6201
  978TIP3    H224426   6.838   3.571  14.438 -0.8306  0.6443 -0.1161
  979TIP3   OH224427   3.624   3.287   3.982 -0.2841  0.2144  0.1877
  979TIP3    H124428   3.562   3.246   4.042  2.0487  0.0924  2.6878
  979TIP3    H224429   3.573   3.302   3.902 -3.0883 -1.1803  1.5615
  980TIP3   OH224430   3.266   5.213  12.087 -0.0922 -0.6093 -0.1707
  980TIP3    H124431   3.262   5.302  12.122 -0.9387 -0.8195  0.2958
  980TIP3    H224432   3.180   5.198  12.050  0.1267 -1.1517 -0.4719
  981TIP3   OH224433   0.611   6.535  11.092  0.3412 -0.0845  0.4508
  981TIP3    H124434   0.647   6.613  11.050  0.6443 -0.9606 -1.0049
  981TIP3    H224435   0.516   6.543  11.080  0.5007 -1.2721 -2.3176
  982TIP3   OH224436   5.479   2.784  11.064  0.1660 -0.2510  0.0489
  982TIP3    H124437   5.473   2.703  11.013  2.3000 -1.8496  2.1088
  982TIP3    H224438   5.548   2.834  11.020 -1.5825  0.8583 -1.6012
  983TIP3   OH224439   5.462   2.203   4.363  0.0675 -0.2607 -0.4685
  983TIP3    H124440   5.541   2.158   4.336 -0.4133 -0.9929 -0.6831
  983TIP3    H224441   5.400   2.189   4.291 -0.7020 -0.8520  0.2830
  984TIP3   OH224442   5.415   2.323  12.447 -0.3251  0.1659  0.6465
  984TIP3    H124443   5.387   2.235  12.473 -0.9161  0.5988  1.5117
  984TIP3    H224444   5.334   2.368  12.425 -0.1390  0.8312  1.2839
  985TIP3   OH224445   5.327   0.102  11.656  0.3302 -0.9108  0.3537
  985TIP3    H124446   5.271   0.152  11.597  0.1862 -0.5408  0.7997
  985TIP3    H224447   5.275   0.092  11.736  0.8604 -0.6313  0.7419
  986TIP3   OH224448   6.036   3.467  16.273  0.3900  0.0403 -0.1926
  986TIP3    H124449   5.988   3.384  16.278 -0.0895  0.1553 -1.9724
  986TIP3    H224450   6.035   3.489  16.180  0.3445  2.1507  0.2558
  987TIP3   OH224451   0.470   5.384   3.560 -0.4550  0.8569 -0.1049
  987TIP3    H124452   0.488   5.416   3.471  2.7687  0.7042  0.3614
  987TIP3    H224453   0.489   5.459   3.617 -0.2378  0.3115  0.5555
  988TIP3   OH224454   6.726   4.050   4.861 -0.1770  0.2585 -0.5622
  988TIP3    H124455   6.787   4.059   4.787  1.4831  0.5671  0.7796
  988TIP3    H224456   6.728   4.135   4.904  0.6313 -0.5718  1.1125
  989TIP3   OH224457   1.008   5.519  12.154  0.3938  0.4188  0.3428
  989TIP3    H124458   0.983   5.509  12.245 -0.0535 -0.6045  0.1176
  989TIP3    H224459   1.100   5.546  12.157 -0.1963  2.4940  1.1328
  990TIP3   OH224460   5.057   1.425  12.803  0.2599 -0.4382 -0.0126
  990TIP3    H124461   4.969   1.398  12.777  1.1817 -1.7798 -1.9746
  990TIP3    H224462   5.095   1.347  12.844  1.3623 -0.7194 -1.4896
  991TIP3   OH224463   5.586   3.374   0.473 -0.7873 -0.0837 -0.1975
  991TIP3    H124464   5.566   3.402   0.562  0.5372  0.2993  0.0016
  991TIP3    H224465   5.500   3.365   0.431 -1.4178  0.0022  1.0212
  992TIP3   OH224466   1.160   3.760  13.193  0.0296  0.1506 -0.2003
  992TIP3    H124467   1.207   3.805  13.123 -0.6475  0.4099 -0.4917
  992TIP3    H224468   1.070   3.790  13.185 -0.1087 -0.0207  0.6194
  993TIP3   OH224469   5.061   2.314   4.960 -0.2042 -0.0953 -0.4341
  993TIP3    H124470   5.065   2.234   5.012 -2.0686  0.1847  0.2407
  993TIP3    H224471   5.143   2.316   4.911  1.4341 -0.6032  2.1563
  994TIP3   OH224472   4.151   2.869  11.467 -0.2697 -0.4150  0.2251
  994TIP3    H124473   4.213   2.928  11.425  1.3277 -1.6888  0.6951
  994TIP3    H224474   4.104   2.924  11.530  0.5383  0.5293  0.0195
  995TIP3   OH224475   3.937   0.859   2.183 -0.0125  0.7809 -0.4283
  995TIP3    H124476   4.018   0.840   2.230 -1.0713 -0.3436  1.0266
  995TIP3    H224477   3.869   0.814   2.232 -1.2320 -0.4638 -3.0525
  996TIP3   OH224478   6.704   3.966   5.648  0.3975  0.1559  0.0732
  996TIP3    H124479   6.663   3.937   5.730  0.9200  1.1293  0.7046
  996TIP3    H224480   6.773   3.902   5.632  0.7095  0.3040  0.7553
  997TIP3   OH224481   2.796   1.905   5.447 -0.5872 -0.2152  0.0827
  997TIP3    H124482   2.864   1.879   5.385 -0.2313  2.0310 -0.5432
  997TIP3    H224483   2.804   1.841   5.518  0.8617 -1.1726 -0.8636
  998TIP3   OH224484   5.896   6.786   3.406  0.5875 -0.1756 -0.0851
  998TIP3    H124485   5.805   6.813   3.411  0.6241  0.1531 -1.0214
  998TIP3    H224486   5.945   6.857   3.448  0.5996  0.7990 -1.6835
  999TIP3   OH224487   4.666   3.963   4.218  0.2587  0.3367  0.0046
  999TIP3    H124488   4.613   4.034   4.254  0.1267  1.9609 -3.0128
  999TIP3    H224489   4.607   3.915   4.160  0.8204 -1.1261  0.6101
 1000TIP3   OH224490   0.927   1.022   3.139 -0.2023  0.9103  0.0597
 1000TIP3    H124491   0.873   0.950   3.109  1.3093 -0.6765  0.9357
 1000TIP3    H224492   0.866   1.081   3.184 -1.7307  1.0584 -2.0563
 1001TIP3   OH224493   4.860   1.469   4.233 -0.3528  0.0654  0.3607
 1001TIP3    H124494   4.948   1.508   4.232 -0.6624  0.8649 -1.9757
 1001TIP3    H224495   4.828   1.481   4.144 -3.3208  0.8820  1.4335
 1002TIP3   OH224496   3.413   0.319  11.317  0.0795  0.1167 -0.0519
 1002TIP3    H124497   3.469   0.390  11.350 -0.0542 -0.2924  1.0950
 1002TIP3    H224498   3.450   0.240  11.356  0.1296 -0.4367 -1.1960
 1003TIP3   OH224499   6.049   2.920   1.028 -0.5398  0.7600  0.3258
 1003TIP3    H124500   6.046   2.888   0.938 -0.8427  1.2823  0.1491
 1003TIP3    H224501   6.141   2.912   1.053 -0.4791  0.4793  0.0242
 1004TIP3   OH224502   1.069   3.023   3.308  0.2057 -0.1732 -0.2740
 1004TIP3    H124503   1.086   3.117   3.318 -1.6323  0.5723 -3.1245
 1004TIP3    H224504   0.986   3.019   3.261 -0.6242 -3.3146  1.2303
 1005TIP3   OH224505   2.454   4.298   3.626  0.5342  0.2560 -0.3513
 1005TIP3    H124506   2.521   4.259   3.681  0.4289 -0.9515 -1.0370
 1005TIP3    H224507   2.489   4.291   3.537 -0.9438 -1.4575 -0.8566
 1006TIP3   OH224508   5.116   5.065   0.563  0.1631 -0.3661  0.0990
 1006TIP3    H124509   5.107   5.160   0.555 -1.3397 -0.5840 -1.2482
 1006TIP3    H224510   5.194   5.053   0.616  0.6524  1.6144 -0.0958
 1007TIP3   OH224511   4.862   1.294   2.246 -0.9188 -0.0459  0.0242
 1007TIP3    H124512   4.933   1.342   2.289  0.6463 -0.4223 -1.9825
 1007TIP3    H224513   4.816   1.360   2.194 -2.0576  0.1852  1.2732
 1008TIP3   OH224514   3.288   1.249  14.670 -0.8214 -0.1943 -0.0593
 1008TIP3    H124515   3.345   1.173  14.676 -1.8962 -0.9652  0.6831
 1008TIP3    H224516   3.313   1.303  14.745  0.6889  0.7551 -1.1871
 1009TIP3   OH224517   2.850   5.099   5.610  0.1548  0.8048 -0.7171
 1009TIP3    H124518   2.829   5.041   5.537 -2.6062  0.6606  0.1009
 1009TIP3    H224519   2.804   5.180   5.590  0.1655  1.0986  0.4007
 1010TIP3   OH224520   1.006   4.791   5.337 -0.0781 -0.1210 -0.2225
 1010TIP3    H124521   1.085   4.843   5.348  1.6351 -2.2937 -1.3770
 1010TIP3    H224522   0.975   4.775   5.426  0.9053  0.6110  0.2676
 1011TIP3   OH224523   2.026   6.042  12.804 -0.5160  0.5366 -0.8632
 1011TIP3    H124524   2.067   6.079  12.882 -0.5478  0.0908 -0.6335
 1011TIP3    H224525   1.979   5.965  12.835  0.4952 -0.3823 -1.4921
 1012TIP3   OH224526   5.511   1.524   3.511  0.1680  0.1934 -0.2831
 1012TIP3    H124527   5.597   1.545   3.548  0.5709 -2.7015  0.6987
 1012TIP3    H224528   5.461   1.488   3.584 -1.0630 -0.3299 -1.3465
 1013TIP3   OH224529   3.569   4.773   2.424  0.2419 -0.3399  0.0791
 1013TIP3    H124530   3.478   4.800   2.435 -0.4044 -2.5853  0.8190
 1013TIP3    H224531   3.613   4.802   2.504  0.0311  0.0902  0.0436
 1014TIP3   OH224532   4.006   0.645   1.674  0.1605  0.0272  0.0807
 1014TIP3    H124533   4.096   0.612   1.678  0.5661  1.1022  0.2277
 1014TIP3    H224534   3.957   0.575   1.631  0.8911 -0.9435  0.7735
 1015TIP3   OH224535   3.404   5.736   3.817  0.2422 -0.0686 -0.2309
 1015TIP3    H124536   3.424   5.796   3.889  1.0817 -1.2487  0.5622
 1015TIP3    H224537   3.309   5.741   3.807  0.2001  0.6544  0.4763
 1016TIP3   OH224538   3.576   4.996  10.712  0.0867  0.1951 -0.0405
 1016TIP3    H124539   3.508   4.998  10.646 -0.6194 -1.0966  0.6136
 1016TIP3    H224540   3.636   4.926  10.685  1.4202  1.5859 -0.8307
 1017TIP3   OH224541   5.612   2.015   1.142 -0.1982 -0.3244 -0.3832
 1017TIP3    H124542   5.573   1.941   1.097 -1.2061 -0.7554  1.1060
 1017TIP3    H224543   5.604   1.994   1.235  0.9149  0.9495  0.0441
 1018TIP3   OH224544   0.778   0.746   0.268 -0.1215  0.7367  0.2054
 1018TIP3    H124545   0.844   0.681   0.293 -0.5266  0.0274 -0.5370
 1018TIP3    H224546   0.779   0.746   0.172 -1.2597  0.6476  0.1790
 1019TIP3   OH224547   2.206   2.970  16.618 -0.4899 -0.3623  0.1363
 1019TIP3    H124548   2.124   2.929  16.645 -0.8813  0.6782  0.5728
 1019TIP3    H224549   2.194   3.063  16.637  1.2813 -0.3419  1.4901
 1020TIP3   OH224550   1.436   4.351  12.037 -0.4636 -0.1915 -0.4787
 1020TIP3    H124551   1.422   4.412  11.964 -1.6802  1.1381  0.8026
 1020TIP3    H224552   1.521   4.377  12.074 -1.8244  2.1938  1.2844
 1021TIP3   OH224553   5.022   2.791  16.671  0.6855  0.1740 -0.1501
 1021TIP3    H124554   4.943   2.840  16.645  0.3677  0.2554  0.9039
 1021TIP3    H224555   5.065   2.770  16.589  0.1733  1.1559 -0.6950
 1022TIP3   OH224556   3.533   3.068  14.303  0.4849  0.2242  0.4178
 1022TIP3    H124557   3.572   3.140  14.252  0.2326  0.1444  0.1051
 1022TIP3    H224558   3.485   3.112  14.373 -0.7472  0.4488 -0.5128
 1023TIP3   OH224559   6.592   4.491   5.016 -0.1099 -0.2772 -0.1200
 1023TIP3    H124560   6.594   4.422   5.082  0.5423 -2.1015 -1.9490
 1023TIP3    H224561   6.532   4.458   4.949  0.7771  0.6032 -1.3881
 1024TIP3   OH224562   5.752   2.821   5.074 -0.8109 -0.1393  0.0701
 1024TIP3    H124563   5.761   2.727   5.091  0.4789 -0.1019 -0.3164
 1024TIP3    H224564   5.711   2.826   4.988  2.1619 -0.4281 -1.4921
 1025TIP3   OH224565   3.691   3.748   4.143 -0.0057 -0.1031  0.3375
 1025TIP3    H124566   3.748   3.712   4.212 -0.3750 -2.7330 -0.5983
 1025TIP3    H224567   3.687   3.679   4.077 -0.9853  1.6751 -1.5873
 1026TIP3   OH224568   1.712   4.650  15.452  0.2006  0.5764 -0.2952
 1026TIP3    H124569   1.631   4.674  15.408 -0.4848 -1.6996 -0.4399
 1026TIP3    H224570   1.688   4.638  15.544  0.0410 -1.1674 -0.5172
 1027TIP3   OH224571   5.000   5.885  12.881 -0.0304  0.5772 -0.2094
 1027TIP3    H124572   5.016   5.977  12.901 -0.5484  1.4632 -3.3789
 1027TIP3    H224573   5.030   5.874  12.791  2.0506 -2.9597  0.6956
 1028TIP3   OH224574   6.025   4.976  12.560  0.7470  0.1328 -0.1184
 1028TIP3    H124575   6.069   4.968  12.475 -1.2646  2.6138 -1.5679
 1028TIP3    H224576   5.971   5.055  12.550 -2.3633 -1.5212  2.2106
 1029TIP3   OH224577   2.718   1.659  16.144 -0.4927 -0.0609 -0.1005
 1029TIP3    H124578   2.732   1.613  16.061  0.4461 -0.6989  0.3937
 1029TIP3    H224579   2.657   1.730  16.122  1.1622  0.9512 -1.7391
 1030TIP3   OH224580   2.024   0.506  11.762  0.6533  0.0995  0.1077
 1030TIP3    H124581   1.985   0.443  11.701 -1.0593  0.9248  0.2999
 1030TIP3    H224582   2.064   0.572  11.706 -0.0902  0.3546 -0.1331
 1031TIP3   OH224583   3.726   1.066  14.131  0.7336 -0.2244  0.0329
 1031TIP3    H124584   3.714   1.055  14.226 -0.0644  0.8288  0.0777
 1031TIP3    H224585   3.807   1.117  14.123  1.5557 -1.4691  0.0581
 1032TIP3   OH224586   3.552   0.503   2.457 -0.2553 -0.0683 -0.6705
 1032TIP3    H124587   3.614   0.568   2.422 -0.4262 -0.0297 -0.9045
 1032TIP3    H224588   3.483   0.556   2.497 -0.3086 -0.1079 -0.7107
 1033TIP3   OH224589   0.821   0.563  12.191  0.0858 -0.1970  0.5245
 1033TIP3    H124590   0.913   0.572  12.165  0.2549  1.2431  1.4997
 1033TIP3    H224591   0.825   0.518  12.275 -0.0446  0.5498  0.9336
 1034TIP3   OH224592   2.278   5.814   5.065 -0.3325  0.4019 -0.1142
 1034TIP3    H124593   2.260   5.908   5.073  1.4558  0.9229 -1.6376
 1034TIP3    H224594   2.317   5.790   5.149 -1.8621  0.7262  0.7211
 1035TIP3   OH224595   2.678   2.531  15.246  0.4533  0.0994  0.6450
 1035TIP3    H124596   2.670   2.545  15.340  0.6596  0.5658  0.5914
 1035TIP3    H224597   2.753   2.472  15.237  0.5369  0.1897  0.7569
 1036TIP3   OH224598   6.582   0.934  11.973 -0.2495 -0.2972 -0.3989
 1036TIP3    H124599   6.610   1.007  11.918 -2.0379  1.2236  0.6094
 1036TIP3    H224600   6.581   0.969  12.061  1.0805 -2.2668  0.4876
 1037TIP3   OH224601   2.916   4.994   2.534 -0.2555 -0.2726  0.4851
 1037TIP3    H124602   2.967   5.063   2.492  1.7551 -1.0071  1.6230
 1037TIP3    H224603   2.857   4.963   2.465  2.3523 -0.8923 -1.6342
 1038TIP3   OH224604   4.817   3.048   5.654 -0.2871 -0.3259  0.3808
 1038TIP3    H124605   4.773   3.017   5.733  1.8619 -3.1266  0.6388
 1038TIP3    H224606   4.748   3.052   5.588 -1.5811 -0.8950  1.6401
 1039TIP3   OH224607   1.182   5.542   4.479 -0.0212  0.5592 -0.2097
 1039TIP3    H124608   1.141   5.581   4.557  1.0777 -0.2155  0.7943
 1039TIP3    H224609   1.261   5.500   4.512  0.8611  0.8338 -1.8906
 1040TIP3   OH224610   0.832   6.177  16.687 -0.1236  0.0506  0.7164
 1040TIP3    H124611   0.906   6.230  16.716  0.4609 -1.9890  3.3566
 1040TIP3    H224612   0.768   6.183  16.759 -1.4244 -0.2654 -0.3769
 1041TIP3   OH224613   4.241   3.841   4.302  0.0864 -0.0120  0.7200
 1041TIP3    H124614   4.155   3.856   4.264  0.8646 -0.0045 -1.1405
 1041TIP3    H224615   4.223   3.814   4.392 -1.8053  0.8791  0.6658
 1042TIP3   OH224616   1.225   3.534   2.822 -0.1325 -0.6011  0.1710
 1042TIP3    H124617   1.242   3.489   2.740  0.5132  0.4402 -0.2854
 1042TIP3    H224618   1.130   3.536   2.830 -0.1956 -0.7502 -0.5245
 1043TIP3   OH224619   3.634   3.853   3.112  0.1353 -0.2569  0.7666
 1043TIP3    H124620   3.665   3.897   3.192 -0.9456  2.3566 -0.1389
 1043TIP3    H224621   3.567   3.911   3.077  0.2577 -1.5324 -1.8467
 1044TIP3   OH224622   2.308   3.514  16.641  0.1694  0.3414 -0.2590
 1044TIP3    H124623   2.224   3.544  16.608  0.1910  1.4703  0.6292
 1044TIP3    H224624   2.356   3.595  16.661  1.1400 -0.2856  0.0087
 1045TIP3   OH224625   5.938   3.321   1.808  0.3529  0.2833 -0.0580
 1045TIP3    H124626   5.986   3.384   1.754  1.6687 -0.9039 -0.3415
 1045TIP3    H224627   5.867   3.289   1.752  0.1592  0.9152 -0.1810
 1046TIP3   OH224628   1.207   4.723   0.831  0.0211  0.0513  0.3860
 1046TIP3    H124629   1.248   4.672   0.761 -0.1848 -0.0533  0.3407
 1046TIP3    H224630   1.275   4.783   0.860 -0.0026  0.3587 -0.1693
 1047TIP3   OH224631   4.810   1.971  16.886 -0.0739 -0.1662 -0.3840
 1047TIP3    H124632   4.729   1.946  16.841 -0.1666 -1.7502  0.6115
 1047TIP3    H224633   4.787   1.974  16.978  1.0365 -0.8579 -0.0592
 1048TIP3   OH224634   1.561   2.430   3.038 -0.2260 -0.6130  0.4271
 1048TIP3    H124635   1.561   2.352   3.094 -2.4166  0.0822  1.5577
 1048TIP3    H224636   1.490   2.413   2.975 -1.3372  0.7569  1.2468
 1049TIP3   OH224637   3.609   0.958  13.161 -0.1306  0.1132 -0.0731
 1049TIP3    H124638   3.585   0.865  13.162  0.4765 -0.0686  1.5700
 1049TIP3    H224639   3.705   0.958  13.157 -0.0025  0.5832  1.9891
 1050TIP3   OH224640   3.443   0.074  14.016 -0.1938  0.7868  0.3578
 1050TIP3    H124641   3.352   0.106  14.015 -0.3721  0.3106  0.9891
 1050TIP3    H224642   3.442  -0.001  13.957  0.3540  2.2303 -1.5911
 1051TIP3   OH224643   4.749   6.856   0.148 -0.4225 -0.5599  0.0079
 1051TIP3    H124644   4.831   6.813   0.171 -0.3815 -0.3660  0.2180
 1051TIP3    H224645   4.714   6.889   0.231 -0.4719 -0.2138 -0.1475
 1052TIP3   OH224646   4.934   3.741   3.589  0.1406  0.0935  0.3434
 1052TIP3    H124647   4.927   3.742   3.685 -0.6518  0.3562  0.2900
 1052TIP3    H224648   5.014   3.692   3.572 -0.0313 -0.4893  1.1320
 1053TIP3   OH224649   6.853   5.233   0.023 -0.1930  0.0169  0.1066
 1053TIP3    H124650   6.827   5.159  -0.032 -0.3364 -1.1858  1.7408
 1053TIP3    H224651   6.858   5.307  -0.038  2.1566 -1.7385 -2.0168
 1054TIP3   OH224652   0.493   4.288   1.641  0.5473  0.0746  0.1423
 1054TIP3    H124653   0.434   4.213   1.653 -0.2425  0.7002  0.2912
 1054TIP3    H224654   0.453   4.338   1.570  1.1022  0.3297  0.0060
 1055TIP3   OH224655   3.993   5.417  11.037  0.0756 -0.3225  0.0135
 1055TIP3    H124656   3.908   5.417  11.082  0.8633 -0.6725  1.5647
 1055TIP3    H224657   3.994   5.334  10.989 -0.2555 -0.5499  0.3881
 1056TIP3   OH224658   6.755   2.263   5.341 -0.1652 -0.1678 -0.4385
 1056TIP3    H124659   6.785   2.220   5.421  0.8285  0.4020 -0.4784
 1056TIP3    H224660   6.776   2.356   5.355 -1.5037  0.2032 -0.6865
 1057TIP3   OH224661   2.151   1.897   2.706  0.2316  0.0124 -0.3278
 1057TIP3    H124662   2.228   1.939   2.744 -1.7662  1.3131  2.6372
 1057TIP3    H224663   2.122   1.957   2.637  0.3898  0.8455  0.3206
 1058TIP3   OH224664   3.712   6.853   2.237  0.0972  0.2718 -0.0645
 1058TIP3    H124665   3.749   6.920   2.296  0.3311 -0.3589  0.5177
 1058TIP3    H224666   3.782   6.834   2.175  0.5346 -0.4473  0.6372
 1059TIP3   OH224667   1.540   3.169  11.300  0.0844  0.3848 -0.3470
 1059TIP3    H124668   1.524   3.113  11.376 -0.8008  0.1685 -0.6832
 1059TIP3    H224669   1.543   3.108  11.226  1.4137  0.5404 -0.4424
 1060TIP3   OH224670   4.534   5.338  12.308  0.9504  0.5892  0.5714
 1060TIP3    H124671   4.543   5.372  12.219 -1.2134  2.1872  0.8806
 1060TIP3    H224672   4.503   5.413  12.359  0.0377 -0.8347  2.2173
 1061TIP3   OH224673   0.183   6.632   0.093  0.4717  0.4427 -0.0990
 1061TIP3    H124674   0.103   6.609   0.139  1.3252 -0.1386  1.1611
 1061TIP3    H224675   0.171   6.596   0.005  0.4095 -2.0454  0.8497
 1062TIP3   OH224676   5.639   4.260  15.226  0.0382  0.0860  0.0811
 1062TIP3    H124677   5.680   4.325  15.169 -1.5358  0.0207 -1.2111
 1062TIP3    H224678   5.712   4.210  15.263  1.1644  1.1094 -0.6953
 1063TIP3   OH224679   6.793   3.703   3.915 -0.1006 -0.5646 -0.1343
 1063TIP3    H124680   6.719   3.666   3.867  1.0765 -0.1267 -2.3773
 1063TIP3    H224681   6.842   3.753   3.850  0.1429  2.3352  2.0626
 1064TIP3   OH224682   1.167   1.919   0.329  0.0293  0.3181 -0.5284
 1064TIP3    H124683   1.139   1.857   0.397 -0.5396 -0.0041 -1.0511
 1064TIP3    H224684   1.231   1.871   0.278 -0.7367 -0.0061 -1.2050
 1065TIP3   OH224685   4.552   3.975  14.062  0.2967  0.2060 -0.2944
 1065TIP3    H124686   4.612   4.033  14.015  0.6919 -0.3594 -0.4958
 1065TIP3    H224687   4.495   4.035  14.110 -1.1443  0.8910 -2.6761
 1066TIP3   OH224688   0.261   4.415   5.533  0.3065 -0.5774  0.4591
 1066TIP3    H124689   0.274   4.344   5.470 -0.2528 -0.8850  0.6869
 1066TIP3    H224690   0.346   4.423   5.577  0.8144 -0.1212 -0.5657
 1067TIP3   OH224691   4.195   6.653  15.837  0.0980  0.8647 -0.2406
 1067TIP3    H124692   4.210   6.712  15.763  0.8567  0.9344 -0.0344
 1067TIP3    H224693   4.100   6.650  15.846  0.0547  3.0849  0.5720
 1068TIP3   OH224694   3.269   1.179   5.523  0.8089 -0.0757  0.0829
 1068TIP3    H124695   3.326   1.108   5.551  2.1341  0.7761 -0.3358
 1068TIP3    H224696   3.243   1.156   5.434  1.0085 -0.1905  0.0533
 1069TIP3   OH224697   0.893   5.062   4.771  0.1532  0.6109 -0.2021
 1069TIP3    H124698   0.965   4.999   4.780 -0.9288 -1.0403 -2.2530
 1069TIP3    H224699   0.869   5.085   4.861  3.1951  1.2631  0.5613
 1070TIP3   OH224700   4.594   1.255   3.992  0.6073  0.1941  0.3446
 1070TIP3    H124701   4.513   1.280   3.949  0.8699  2.3141  1.0003
 1070TIP3    H224702   4.657   1.247   3.921  0.2761  0.4428  0.0188
 1071TIP3   OH224703   0.301   4.471   4.598 -0.1208  0.1296  0.0832
 1071TIP3    H124704   0.249   4.537   4.553 -0.3751 -0.2420 -0.1794
 1071TIP3    H224705   0.239   4.429   4.658 -0.1932 -0.4509 -0.3743
 1072TIP3   OH224706   5.456   2.533   1.216 -0.1717 -0.0901  0.4329
 1072TIP3    H124707   5.435   2.523   1.308 -1.1137 -4.7439 -0.0259
 1072TIP3    H224708   5.489   2.447   1.189  2.1646  1.6432 -3.1523
 1073TIP3   OH224709   6.080   6.461   2.122 -0.4258  0.4982  0.0530
 1073TIP3    H124710   6.136   6.497   2.191  1.8025 -0.5431 -1.1014
 1073TIP3    H224711   6.088   6.524   2.050 -2.1291  1.1905  0.4208
 1074TIP3   OH224712   6.380   6.877  16.555 -0.4148  0.2144  0.1796
 1074TIP3    H124713   6.471   6.855  16.533 -1.0604 -0.3201 -2.2421
 1074TIP3    H224714   6.381   6.890  16.650  1.1937 -5.0774  1.2193
 1075TIP3   OH224715   1.067   5.264  10.913 -0.6696 -0.2727  0.2270
 1075TIP3    H124716   1.044   5.239  11.003 -0.9245 -0.0907  0.2136
 1075TIP3    H224717   1.082   5.359  10.919 -2.1062 -0.0018 -0.2092
 1076TIP3   OH224718   2.360   4.512  14.105 -0.3723 -0.5118  0.0391
 1076TIP3    H124719   2.339   4.584  14.164 -2.7028 -0.7085 -0.4806
 1076TIP3    H224720   2.394   4.554  14.026  2.2574 -0.2291  1.1884
 1077TIP3   OH224721   1.315   0.674  14.994 -0.1738  0.3598  0.1134
 1077TIP3    H124722   1.261   0.597  15.009  1.0542 -0.3514  1.1230
 1077TIP3    H224723   1.274   0.719  14.920 -2.1315 -0.1103  0.8554
 1078TIP3   OH224724   0.326   2.622  16.779  0.4044  0.1694  0.0302
 1078TIP3    H124725   0.291   2.700  16.823  0.2994  0.4217 -0.4935
 1078TIP3    H224726   0.282   2.549  16.822  0.3636  0.4088  0.4010
 1079TIP3   OH224727   4.304   2.986  16.036  0.3253  0.4172 -0.2548
 1079TIP3    H124728   4.250   3.064  16.022  0.0635  0.7760  2.3299
 1079TIP3    H224729   4.391   3.021  16.057 -0.0140  0.1039  1.8339
 1080TIP3   OH224730   5.240   3.022  11.199 -0.0586  0.4169 -0.0984
 1080TIP3    H124731   5.230   2.932  11.165  1.1337  0.2757 -0.1149
 1080TIP3    H224732   5.310   3.015  11.264 -0.1356  1.3008  0.0859
 1081TIP3   OH224733   3.754   1.926   1.773  0.2424 -0.5749  0.1334
 1081TIP3    H124734   3.671   1.965   1.803 -0.4288 -2.8364  1.4412
 1081TIP3    H224735   3.733   1.891   1.686  0.3934  0.4828 -0.3468
 1082TIP3   OH224736   6.408   2.888  12.486  0.2362  0.4591 -0.3242
 1082TIP3    H124737   6.413   2.823  12.556 -0.8269  0.8289  0.1229
 1082TIP3    H224738   6.481   2.947  12.503  0.9676 -0.3789 -0.4989
 1083TIP3   OH224739   1.335   0.987  11.990 -0.4547 -0.5800 -0.2695
 1083TIP3    H124740   1.266   1.053  12.003 -1.3856 -1.7222  0.9359
 1083TIP3    H224741   1.350   0.952  12.078 -1.2797 -3.2127 -1.0947
 1084TIP3   OH224742   3.296   1.917  11.715  0.0090  0.5431  0.0916
 1084TIP3    H124743   3.379   1.965  11.716  0.1347  0.5993 -3.0007
 1084TIP3    H224744   3.319   1.829  11.686 -0.8261 -0.0114  1.0369
 1085TIP3   OH224745   4.550   4.852  12.171 -0.9326  0.2746  0.1229
 1085TIP3    H124746   4.597   4.933  12.189 -1.6500  0.8322 -0.4867
 1085TIP3    H224747   4.591   4.816  12.093 -1.1394  0.4603 -0.0706
 1086TIP3   OH224748   1.186   1.388   1.343  0.5874  0.2785  0.4847
 1086TIP3    H124749   1.112   1.395   1.403  0.2535 -0.9097  0.2401
 1086TIP3    H224750   1.150   1.415   1.258  1.3235  2.9758  0.9581
 1087TIP3   OH224751   3.477   3.013   1.387  0.4778 -0.1000  0.0240
 1087TIP3    H124752   3.552   3.070   1.368 -0.1038  1.0397  1.0114
 1087TIP3    H224753   3.456   3.031   1.479 -2.1091  0.9561 -0.6797
 1088TIP3   OH224754   2.873   2.327  15.245  0.1395  0.7396 -0.6345
 1088TIP3    H124755   2.853   2.266  15.174 -0.2134 -0.0121  0.0910
 1088TIP3    H224756   2.956   2.296  15.281  0.5103  1.3451 -0.9473
 1089TIP3   OH224757   2.011   4.418   2.200 -0.3416 -0.3279 -0.5768
 1089TIP3    H124758   2.037   4.501   2.160  0.7684  0.1284  0.9737
 1089TIP3    H224759   1.954   4.443   2.272 -0.6956 -0.9766 -0.6289
 1090TIP3   OH224760   6.828   3.346  15.733  0.4383 -0.0944  0.2389
 1090TIP3    H124761   6.748   3.302  15.761  0.3501 -1.0990 -1.4589
 1090TIP3    H224762   6.798   3.430  15.698  0.5564  1.2068  2.9914
 1091TIP3   OH224763   2.329   1.530  14.887  0.1477 -0.1914  0.1604
 1091TIP3    H124764   2.291   1.595  14.946 -0.8188  0.4494 -1.1085
 1091TIP3    H224765   2.328   1.573  14.801  3.7911 -0.1202 -0.0151
 1092TIP3   OH224766   0.184   1.237   4.306 -0.3622  0.2906 -0.8083
 1092TIP3    H124767   0.228   1.160   4.271  0.3984  0.9590 -1.3695
 1092TIP3    H224768   0.094   1.209   4.321  0.4441 -1.4772  1.4726
 1093TIP3   OH224769   2.358   4.151   2.165 -0.0132  0.0260  0.2268
 1093TIP3    H124770   2.317   4.167   2.250  1.0178 -0.5442  0.8513
 1093TIP3    H224771   2.448   4.179   2.177  0.3106 -0.6858 -0.4753
 1094TIP3   OH224772   3.892   3.359  14.120 -0.5535  0.8304  0.4686
 1094TIP3    H124773   3.918   3.267  14.115 -0.2172  0.9828 -0.8744
 1094TIP3    H224774   3.820   3.360  14.184 -0.5380 -0.3552  0.5233
 1095TIP3   OH224775   1.094   3.274   3.672  0.2086 -0.1652  0.1111
 1095TIP3    H124776   1.154   3.345   3.694 -2.0758  2.3397 -1.2062
 1095TIP3    H224777   1.150   3.208   3.630  2.4714  0.6106  1.7231
 1096TIP3   OH224778   4.096   6.014   2.516 -0.8001 -0.3759 -0.1636
 1096TIP3    H124779   4.063   5.927   2.494 -0.1792 -0.8762  0.7906
 1096TIP3    H224780   4.043   6.074   2.464 -1.6443 -1.2897 -0.3874
 1097TIP3   OH224781   6.048   1.905   5.007  0.6770 -0.4234  0.1600
 1097TIP3    H124782   6.021   1.971   5.071  1.3203 -1.8426  2.0220
 1097TIP3    H224783   6.143   1.904   5.013  0.7198 -0.8907 -0.5223
 1098TIP3   OH224784   4.614   4.475  14.066  0.5367 -0.0856  0.3389
 1098TIP3    H124785   4.556   4.498  13.994  0.0211  1.9733  1.3317
 1098TIP3    H224786   4.606   4.380  14.074 -1.7378 -0.0257 -0.3929
 1099TIP3   OH224787   2.996   2.389  16.168  0.3683  0.8293  0.1298
 1099TIP3    H124788   3.021   2.305  16.130 -1.3189 -0.8659  2.4865
 1099TIP3    H224789   2.974   2.443  16.092  0.5945 -1.1504 -1.4548
 1100TIP3   OH224790   1.624   6.886   3.642 -0.2819  0.2301  0.7975
 1100TIP3    H124791   1.691   6.826   3.610  1.9048  0.7849  3.9264
 1100TIP3    H224792   1.654   6.973   3.614 -0.1455  0.4040  1.4769
 1101TIP3   OH224793   0.922   3.902  11.219 -0.1716  0.0597  0.0229
 1101TIP3    H124794   0.913   3.993  11.190  1.2947  0.9275  2.0532
 1101TIP3    H224795   1.006   3.900  11.265  0.7219 -2.7826 -1.4925
 1102TIP3   OH224796   2.254   1.473  12.971 -0.3185  0.1961  0.0019
 1102TIP3    H124797   2.254   1.525  12.890 -0.5718  1.1628  0.6116
 1102TIP3    H224798   2.173   1.423  12.967  1.2343 -2.3953 -1.9636
 1103TIP3   OH224799   2.208   1.589  14.450  1.0193 -0.1476 -0.0107
 1103TIP3    H124800   2.158   1.547  14.520 -0.5094  0.8324 -0.4349
 1103TIP3    H224801   2.279   1.635  14.494 -0.6545  1.5033  1.1029
 1104TIP3   OH224802   2.636   5.891  11.630  0.3816 -0.1156  0.5752
 1104TIP3    H124803   2.684   5.896  11.547  0.6450 -0.1928  0.7187
 1104TIP3    H224804   2.620   5.797  11.642 -2.5529  0.0899 -1.0006
 1105TIP3   OH224805   3.746   4.820  14.604  0.1034  0.5528  0.3009
 1105TIP3    H124806   3.804   4.824  14.528 -1.3604  1.3536 -0.8389
 1105TIP3    H224807   3.679   4.886  14.586  0.1295  1.3109  2.6796
 1106TIP3   OH224808   3.045   5.790   5.917  0.5861  0.2029 -0.1681
 1106TIP3    H124809   2.976   5.744   5.869  1.2432 -0.5582 -0.3901
 1106TIP3    H224810   3.006   5.875   5.939 -0.2771 -0.0610 -0.6497
 1107TIP3   OH224811   4.464   3.550  12.614 -0.6408  0.3558  0.0256
 1107TIP3    H124812   4.393   3.493  12.644 -0.7454 -0.0485 -0.9253
 1107TIP3    H224813   4.419   3.620  12.566 -0.4113  0.2259 -0.3798
 1108TIP3   OH224814   6.705   0.120  10.692  0.1610  0.5739 -0.3568
 1108TIP3    H124815   6.625   0.141  10.644 -0.0622 -0.6670 -0.5762
 1108TIP3    H224816   6.734   0.037  10.654  1.1660  0.6547  0.2046
 1109TIP3   OH224817   1.155   3.120   1.907  0.4307  0.0234 -0.5207
 1109TIP3    H124818   1.060   3.116   1.901  0.2194  1.0195  1.4320
 1109TIP3    H224819   1.183   3.029   1.904 -0.8181 -0.4833  1.4218
 1110TIP3   OH224820   5.591   5.932  14.563  0.4085 -0.0589 -0.4573
 1110TIP3    H124821   5.507   5.978  14.562  0.3993 -0.0687 -0.2889
 1110TIP3    H224822   5.624   5.947  14.652  1.1114  0.8819 -0.8686
 1111TIP3   OH224823   4.549   3.174  12.174 -0.3713 -0.0700  0.5281
 1111TIP3    H124824   4.522   3.116  12.103  0.0098  1.1526 -0.6597
 1111TIP3    H224825   4.481   3.164  12.241 -1.8759  0.2862 -0.8872
 1112TIP3   OH224826   3.612   6.629  15.759  0.2826  0.2394  0.0762
 1112TIP3    H124827   3.550   6.625  15.832 -0.1255 -0.7421 -0.2977
 1112TIP3    H224828   3.621   6.538  15.731  0.8482  0.5391 -0.7461
 1113TIP3   OH224829   1.233   4.215  13.681  0.3926 -0.2100  0.1584
 1113TIP3    H124830   1.170   4.287  13.679  1.3541  0.6908  0.8649
 1113TIP3    H224831   1.230   4.179  13.592 -1.4379 -0.5147  0.3045
 1114TIP3   OH224832   4.171   6.375  16.731 -0.1440  0.0882 -0.4352
 1114TIP3    H124833   4.089   6.327  16.723 -1.5184  1.3555  3.5267
 1114TIP3    H224834   4.147   6.467  16.718  0.6964  0.4396  0.3639
 1115TIP3   OH224835   1.103   0.279  12.843  0.2270  0.7844 -0.5974
 1115TIP3    H124836   1.159   0.263  12.768 -1.5155  0.5624 -1.9050
 1115TIP3    H224837   1.087   0.373  12.842  1.7878  1.1018  0.7099
 1116TIP3   OH224838   0.626   6.447  10.101 -0.2518  0.0386  0.4184
 1116TIP3    H124839   0.543   6.459  10.056  0.1107  1.0790 -0.0060
 1116TIP3    H224840   0.603   6.440  10.193 -0.7770  0.8427  0.3574
 1117TIP3   OH224841   0.420   3.572  13.746 -0.0666  0.0265  0.0053
 1117TIP3    H124842   0.369   3.500  13.707  0.2704 -2.0287  3.0393
 1117TIP3    H224843   0.506   3.566  13.704 -0.5477 -0.2206 -0.9815
 1118TIP3   OH224844   2.057   1.207  12.038  0.0935  0.0803 -0.0902
 1118TIP3    H124845   2.051   1.288  11.987  0.4015 -0.4338 -0.9738
 1118TIP3    H224846   2.005   1.144  11.989 -0.3043 -0.2171  0.6964
 1119TIP3   OH224847   0.885   2.113  15.264 -0.4077 -0.5612 -0.0168
 1119TIP3    H124848   0.821   2.179  15.238 -0.1314  0.8450  2.5248
 1119TIP3    H224849   0.833   2.046  15.309 -0.2573  0.1372  1.2498
 1120TIP3   OH224850   2.940   4.864  15.962 -0.4547  0.2987 -0.3563
 1120TIP3    H124851   3.011   4.847  16.024 -2.6052 -1.5848  1.7822
 1120TIP3    H224852   2.937   4.786  15.907 -1.6028 -0.2150  0.3986
 1121TIP3   OH224853   3.589   1.699  13.093  0.0547  0.2460  0.3002
 1121TIP3    H124854   3.547   1.614  13.080 -0.1155  0.2860  0.5850
 1121TIP3    H224855   3.680   1.684  13.067 -0.2531  0.3152 -0.9122
 1122TIP3   OH224856   1.635   6.254   9.690 -0.2089 -0.0158  0.1162
 1122TIP3    H124857   1.692   6.214   9.756  1.5555  1.3084 -0.5185
 1122TIP3    H224858   1.547   6.225   9.713  0.4935 -0.5595  2.3432
 1123TIP3   OH224859   0.067   4.932   3.940 -0.0708  0.5964  0.3530
 1123TIP3    H124860  -0.011   4.905   3.892 -1.0227  2.5987  0.6358
 1123TIP3    H224861   0.090   5.017   3.903  2.1274 -0.0179  0.1553
 1124TIP3   OH224862   1.058   5.414  10.361 -0.0337 -0.3246  0.2978
 1124TIP3    H124863   1.125   5.461  10.311 -0.8440  1.3758  0.7534
 1124TIP3    H224864   0.982   5.412  10.302 -0.6157  0.6579  0.9928
 1125TIP3   OH224865   3.443   2.478   3.098 -0.0591  0.1514 -0.2386
 1125TIP3    H124866   3.503   2.521   3.038  0.8298 -0.5846  0.0980
 1125TIP3    H224867   3.498   2.449   3.171 -1.4010  2.8458  2.0097
 1126TIP3   OH224868   1.348   0.235  11.413  0.1312 -0.2953 -0.0103
 1126TIP3    H124869   1.335   0.234  11.318  0.2499  0.5489 -0.0494
 1126TIP3    H224870   1.440   0.260  11.424  0.0767 -0.2322  0.3231
 1127TIP3   OH224871   2.033   1.769  16.552  0.2859  0.0037  0.0249
 1127TIP3    H124872   2.009   1.861  16.542  3.6048  0.8395 -1.8300
 1127TIP3    H224873   2.056   1.761  16.645 -3.3486 -0.0109  1.0513
 1128TIP3   OH224874   5.691   2.981  16.002 -0.2057 -0.2014 -0.1797
 1128TIP3    H124875   5.618   2.994  15.941  1.0922  0.0614 -1.7462
 1128TIP3    H224876   5.685   3.055  16.062 -2.8415 -1.6371  1.5240
 1129TIP3   OH224877   5.709   3.383   3.467  0.3331  0.1396  0.2877
 1129TIP3    H124878   5.667   3.459   3.427 -1.5722 -1.3195 -0.6776
 1129TIP3    H224879   5.801   3.389   3.439 -0.3733  0.5540 -2.2651
 1130TIP3   OH224880   4.908   0.730  16.317  0.0294 -0.4861  0.0667
 1130TIP3    H124881   4.979   0.682  16.274  0.2168  0.4240 -0.6946
 1130TIP3    H224882   4.862   0.774  16.244 -0.8345 -0.4370  0.6240
 1131TIP3   OH224883   3.474   1.099   1.631  0.4418 -0.6729 -0.1596
 1131TIP3    H124884   3.500   1.189   1.651  0.1421 -0.6165 -0.0351
 1131TIP3    H224885   3.546   1.045   1.665  0.1220 -0.5563  0.7100
 1132TIP3   OH224886   1.149   3.123  16.432 -0.3678 -0.4244  0.4619
 1132TIP3    H124887   1.188   3.110  16.345  1.4751  1.1630  0.9790
 1132TIP3    H224888   1.074   3.181  16.417 -1.0797 -1.4908 -0.2398
 1133TIP3   OH224889   3.401   3.654  13.307 -0.0486  0.3448 -0.0607
 1133TIP3    H124890   3.337   3.723  13.325  0.9378  2.1238 -2.7243
 1133TIP3    H224891   3.359   3.599  13.240  0.5832  0.6185 -0.6986
 1134TIP3   OH224892   0.284   3.586   6.062 -0.2554 -0.4586 -0.1199
 1134TIP3    H124893   0.307   3.499   6.029 -0.2810 -0.3740 -0.3630
 1134TIP3    H224894   0.359   3.641   6.038 -0.2211 -0.4217  0.0697
 1135TIP3   OH224895   3.842   4.706  16.878 -0.1025 -0.1454  0.7622
 1135TIP3    H124896   3.873   4.619  16.905  0.9007  0.7464  2.6234
 1135TIP3    H224897   3.881   4.766  16.941  0.4005  1.8509 -1.3289
 1136TIP3   OH224898   5.799   0.554  16.108 -0.1040 -0.2593  0.5095
 1136TIP3    H124899   5.839   0.476  16.068 -0.9018 -0.7610  0.6488
 1136TIP3    H224900   5.753   0.597  16.036 -2.3687 -1.6928  0.9623
 1137TIP3   OH224901   6.529   0.068  14.617 -0.4803 -0.2673  0.4874
 1137TIP3    H124902   6.558  -0.009  14.664  1.0083 -0.4496 -0.6671
 1137TIP3    H224903   6.576   0.141  14.658  0.3799 -0.3588 -0.2944
 1138TIP3   OH224904   4.166   3.218  12.082 -0.1675 -0.3056  0.6635
 1138TIP3    H124905   4.140   3.293  12.029  0.0803  0.0822  1.0787
 1138TIP3    H224906   4.235   3.175  12.032  0.0064  0.0071  0.6329
 1139TIP3   OH224907   0.873   3.454  14.926 -0.1924  0.5082  0.0140
 1139TIP3    H124908   0.915   3.369  14.939 -0.5856 -0.0336 -1.9078
 1139TIP3    H224909   0.779   3.435  14.931 -0.2891  1.3091  2.0460
 1140TIP3   OH224910   5.397   3.305  11.038  0.1630  0.0226  0.6701
 1140TIP3    H124911   5.393   3.216  11.002 -1.4918  0.2688  0.1883
 1140TIP3    H224912   5.425   3.293  11.128  0.8786 -0.9025  0.3377
 1141TIP3   OH224913   3.926   0.325  15.718  0.3015  0.1426  0.0666
 1141TIP3    H124914   3.837   0.360  15.718 -0.1864 -1.0145 -0.6664
 1141TIP3    H224915   3.973   0.378  15.654 -0.5081 -0.6763 -1.2685
 1142TIP3   OH224916   0.561   5.851  14.073  0.5412  0.0616  0.4875
 1142TIP3    H124917   0.617   5.851  13.996 -2.0228 -0.8000 -1.5356
 1142TIP3    H224918   0.477   5.883  14.041 -0.1132  1.6393  3.4292
 1143TIP3   OH224919   1.167   4.976  12.539 -0.0795 -0.0902 -0.3080
 1143TIP3    H124920   1.172   5.068  12.513 -0.4332 -0.0443 -0.2136
 1143TIP3    H224921   1.253   4.959  12.579  0.2365  0.0089 -0.9254
 1144TIP3   OH224922   1.070   4.841  11.938 -0.1074 -0.0883 -0.8541
 1144TIP3    H124923   1.124   4.899  11.991 -1.6214  0.6057  0.0037
 1144TIP3    H224924   1.032   4.779  12.001 -0.8841 -0.0991 -1.3122
 1145TIP3   OH224925   0.953   5.969  14.119 -0.0239 -0.0946 -0.3523
 1145TIP3    H124926   0.961   6.064  14.110  0.2163 -0.0144  0.5706
 1145TIP3    H224927   1.043   5.939  14.133  0.0056 -0.5628 -1.4646
 1146TIP3   OH224928   0.430   2.913   2.601 -0.1770 -0.0277 -0.0644
 1146TIP3    H124929   0.483   2.986   2.569  1.9369 -0.9061  1.1600
 1146TIP3    H224930   0.453   2.840   2.543 -0.1860 -0.3647  0.3497
 1147TIP3   OH224931   6.833   0.219  14.247 -0.3374 -0.0462 -0.2430
 1147TIP3    H124932   6.765   0.251  14.189 -0.6778  0.4225  0.4062
 1147TIP3    H224933   6.798   0.137  14.283 -1.3289  1.0477  1.4165
 1148TIP3   OH224934   1.904   6.112  16.708 -0.1504 -0.4666  0.5134
 1148TIP3    H124935   1.823   6.159  16.727 -1.0327 -1.4426 -0.7218
 1148TIP3    H224936   1.877   6.025  16.680  1.1671 -0.0906 -2.2102
 1149TIP3   OH224937   2.480   0.957  10.529  0.2562 -0.0364 -0.6120
 1149TIP3    H124938   2.477   0.862  10.517 -0.8066 -0.5643  2.7191
 1149TIP3    H224939   2.573   0.978  10.532  0.5334 -1.3104  0.4696
 1150TIP3   OH224940   5.172   1.096  12.443 -0.3309 -0.0896  0.6063
 1150TIP3    H124941   5.122   1.171  12.475  0.1429 -0.0038  1.1644
 1150TIP3    H224942   5.221   1.065  12.519  1.5440  0.6948 -0.2144
 1151TIP3   OH224943   2.374   4.834   3.736 -0.4937 -0.1832 -0.0762
 1151TIP3    H124944   2.366   4.744   3.706  0.1959 -0.3155  0.1090
 1151TIP3    H224945   2.372   4.886   3.656 -0.0665 -0.4302 -0.2530
 1152TIP3   OH224946   3.249   1.349  12.826  0.0135 -0.0842 -0.6631
 1152TIP3    H124947   3.156   1.327  12.814  0.2500 -1.1585 -0.6259
 1152TIP3    H224948   3.264   1.423  12.767 -0.6682 -0.4227 -1.2748
 1153TIP3   OH224949   2.775   6.861  11.876  0.2060  0.3332  0.4343
 1153TIP3    H124950   2.705   6.925  11.866  0.1671  0.2124 -0.0805
 1153TIP3    H224951   2.744   6.802  11.945  0.4206  1.1011  1.2129
 1154TIP3   OH224952   5.168   3.914   4.200 -0.1269 -0.3311 -0.0158
 1154TIP3    H124953   5.197   3.906   4.291 -0.6767  1.3377  0.3571
 1154TIP3    H224954   5.076   3.940   4.207  0.6273  3.1615 -0.8649
 1155TIP3   OH224955   0.887   4.132   5.597 -0.1221  0.0430  0.2952
 1155TIP3    H124956   0.873   4.099   5.686 -0.2708  0.7694  0.5545
 1155TIP3    H224957   0.940   4.211   5.610 -1.2642  0.9142 -0.1391
 1156TIP3   OH224958   6.433   1.632   4.183 -0.7108  0.0448  0.3646
 1156TIP3    H124959   6.470   1.548   4.155 -0.4934  0.0286  0.6892
 1156TIP3    H224960   6.507   1.692   4.183 -0.4533 -0.2201  1.9748
 1157TIP3   OH224961   0.844   2.939  12.038 -0.2148  0.4884 -0.1899
 1157TIP3    H124962   0.854   3.034  12.030 -2.7789  0.7026 -2.2261
 1157TIP3    H224963   0.884   2.917  12.122  1.0438  3.2378  0.0273
 1158TIP3   OH224964   5.868   6.723  14.852  0.2471  0.0933 -0.0425
 1158TIP3    H124965   5.813   6.802  14.852 -0.4938 -0.4087 -0.3932
 1158TIP3    H224966   5.812   6.656  14.813 -0.0503 -1.2487  2.5020
 1159TIP3   OH224967   6.190   0.865  11.927  0.1726  0.0471 -0.1289
 1159TIP3    H124968   6.248   0.854  12.002  0.0016 -0.6794 -0.0912
 1159TIP3    H224969   6.159   0.776  11.908 -1.3413  0.4929  0.1757
 1160TIP3   OH224970   2.964   0.677   2.285  0.4499  0.0177 -0.0700
 1160TIP3    H124971   2.973   0.729   2.366  0.4085  1.1155 -0.7489
 1160TIP3    H224972   3.048   0.686   2.241  0.2235  0.0381 -0.5033
 1161TIP3   OH224973   4.958   5.426   2.688 -0.3684  0.4754  0.8502
 1161TIP3    H124974   4.960   5.503   2.745 -1.1573  0.1070  1.3863
 1161TIP3    H224975   4.869   5.392   2.697 -0.6751  0.6917 -0.9752
 1162TIP3   OH224976   1.658   6.130  15.167 -0.3336  0.2206 -0.4838
 1162TIP3    H124977   1.589   6.071  15.136 -1.3627  0.1680  1.6808
 1162TIP3    H224978   1.703   6.080  15.235 -2.0374  2.2061  2.3246
 1163TIP3   OH224979   4.324   4.139  11.189  0.3391  0.5666 -0.2267
 1163TIP3    H124980   4.322   4.207  11.257  1.7440  1.1094 -0.7133
 1163TIP3    H224981   4.416   4.125  11.171  0.0115 -0.2049 -1.4169
 1164TIP3   OH224982   2.573   0.891  15.136  0.4752 -0.2207  0.0227
 1164TIP3    H124983   2.493   0.883  15.083 -0.2223 -2.0733  1.2535
 1164TIP3    H224984   2.623   0.812  15.117  0.8574 -0.2535  1.0860
 1165TIP3   OH224985   4.873   6.833   1.173  1.0396 -0.5867  0.6828
 1165TIP3    H124986   4.935   6.905   1.161  1.1904 -1.0855 -2.2365
 1165TIP3    H224987   4.814   6.863   1.242  2.0565  1.6434  0.6518
 1166TIP3   OH224988   3.187   1.411  16.616  0.1675 -0.6292  0.0218
 1166TIP3    H124989   3.127   1.393  16.688 -0.6370 -0.2839 -0.5464
 1166TIP3    H224990   3.135   1.461  16.553  1.3052  0.5229 -0.0632
 1167TIP3   OH224991   3.276   4.597   3.613  0.2404  0.2143  0.2965
 1167TIP3    H124992   3.353   4.640   3.577  1.5581 -0.8064  1.7779
 1167TIP3    H224993   3.227   4.566   3.536  1.4394  0.6492 -0.6670
 1168TIP3   OH224994   4.626   4.847   1.044 -0.0129 -0.0173 -0.1004
 1168TIP3    H124995   4.550   4.827   0.989 -0.9657 -1.0194  1.5211
 1168TIP3    H224996   4.641   4.941   1.030 -0.2297 -0.2253 -2.0198
 1169TIP3   OH224997   1.376   6.141   9.712  0.1495 -0.0278 -0.0246
 1169TIP3    H124998   1.400   6.061   9.759 -1.0384 -1.1023 -1.1738
 1169TIP3    H224999   1.292   6.122   9.672 -1.3170  2.6014  1.4906
 1170TIP3   OH225000   1.005   4.529  11.419 -0.2423 -0.0382  0.6733
 1170TIP3    H125001   1.052   4.521  11.502  0.6910 -0.3830  0.1270
 1170TIP3    H225002   1.062   4.485  11.355 -0.7513  0.5799 -0.2207
 1171TIP3   OH225003   5.614   4.324   2.659 -0.4134  0.1642  0.0348
 1171TIP3    H125004   5.601   4.382   2.734 -0.9028  0.6965 -0.4506
 1171TIP3    H225005   5.706   4.298   2.665 -0.0745  1.2913  0.0508
 1172TIP3   OH225006   2.308   4.045  15.504  0.1760 -0.1392  0.7676
 1172TIP3    H125007   2.275   3.956  15.512  0.6327 -0.3336  0.5488
 1172TIP3    H225008   2.384   4.037  15.446  0.0442  0.4383  0.5176
 1173TIP3   OH225009   4.604   5.609   5.737  0.1289 -0.1549  0.2061
 1173TIP3    H125010   4.628   5.517   5.729  2.0231  0.2604  0.7779
 1173TIP3    H225011   4.678   5.657   5.700 -0.0030  1.1893  1.6021
 1174TIP3   OH225012   5.100   0.962  16.178  0.0196  0.6158  0.1514
 1174TIP3    H125013   5.021   0.968  16.232 -0.4028  1.0534 -0.5026
 1174TIP3    H225014   5.170   0.993  16.235 -0.2624  0.1264  0.7724
 1175TIP3   OH225015   6.325   4.010   3.915  0.2244 -0.1679 -0.4447
 1175TIP3    H125016   6.401   4.037   3.968  0.5603 -0.1804 -0.9148
 1175TIP3    H225017   6.332   4.062   3.835 -0.4338  0.0483 -0.3657
 1176TIP3   OH225018   4.174   0.604  16.145  0.2409  0.2527  0.2302
 1176TIP3    H125019   4.173   0.571  16.235  0.9342 -0.4713 -0.0131
 1176TIP3    H225020   4.208   0.693  16.152  3.7852 -0.9478  0.3811
 1177TIP3   OH225021   6.610   1.152  16.534 -0.2046 -0.0915  0.4614
 1177TIP3    H125022   6.569   1.071  16.503  0.1196 -0.2193  0.3584
 1177TIP3    H225023   6.695   1.154  16.489  0.0114  0.0355  0.8687
 1178TIP3   OH225024   2.088   5.677  14.809  0.0103 -0.3387 -0.1358
 1178TIP3    H125025   2.027   5.680  14.883  0.6474 -2.6956  0.5782
 1178TIP3    H225026   2.162   5.627  14.842  1.3930  0.5978 -1.6748
 1179TIP3   OH225027   1.369   5.005   3.175  0.6275  0.0432 -0.0544
 1179TIP3    H125028   1.284   5.032   3.210  0.1177  0.5042 -1.5939
 1179TIP3    H225029   1.416   5.087   3.162  1.7763 -0.2541  1.8125
 1180TIP3   OH225030   6.000   6.218   5.165  0.1884  0.1837 -0.2822
 1180TIP3    H125031   6.033   6.208   5.076  1.1254  4.2069 -0.5874
 1180TIP3    H225032   6.077   6.240   5.217 -0.7780  0.9741  0.8768
 1181TIP3   OH225033   4.195   4.464   1.264  0.4650 -0.5229  0.3440
 1181TIP3    H125034   4.181   4.466   1.358  0.6411 -0.2616  0.3642
 1181TIP3    H225035   4.191   4.371   1.241  0.3765 -0.5824  0.6008
 1182TIP3   OH225036   0.595   1.758   2.271 -0.4138  0.7176  0.3813
 1182TIP3    H125037   0.630   1.707   2.197 -0.0906  0.1142  0.9382
 1182TIP3    H225038   0.550   1.832   2.230  1.6125  1.6127 -0.3928
 1183TIP3   OH225039   2.549   4.791  13.966 -0.3470  0.3711 -0.0484
 1183TIP3    H125040   2.635   4.788  14.009  0.9580  0.2057 -2.5165
 1183TIP3    H225041   2.531   4.701  13.943 -0.3019  0.6373 -1.1552
 1184TIP3   OH225042   6.348   5.253   5.078 -0.5608  0.4070  0.2442
 1184TIP3    H125043   6.352   5.164   5.043 -0.5591  0.8236 -0.8389
 1184TIP3    H225044   6.437   5.287   5.070 -0.0778 -0.1320  2.4722
 1185TIP3   OH225045   1.114   4.652  15.274 -0.0151  0.1175  0.2769
 1185TIP3    H125046   1.123   4.576  15.216 -0.6226  0.0206  0.3067
 1185TIP3    H225047   1.028   4.688  15.254 -0.3938 -0.1310  1.3846
 1186TIP3   OH225048   1.881   5.986   2.880  0.6960 -0.2046 -0.5042
 1186TIP3    H125049   1.789   5.960   2.878  0.5346  0.3919 -1.2373
 1186TIP3    H225050   1.929   5.904   2.892  0.0343 -0.4100  0.9874
 1187TIP3   OH225051   0.888   6.296  12.879 -0.8001 -0.3126  0.0338
 1187TIP3    H125052   0.930   6.301  12.793  1.0746  0.8867  0.9624
 1187TIP3    H225053   0.888   6.203  12.900  1.7800 -0.3723  0.1071
 1188TIP3   OH225054   3.925   2.585  10.661  0.2423  0.8299 -1.1330
 1188TIP3    H125055   3.834   2.555  10.656  1.0349 -1.8631 -1.1230
 1188TIP3    H225056   3.919   2.680  10.664 -2.5163  0.7870 -2.3766
 1189TIP3   OH225057   3.879   1.667   3.191 -0.0009 -0.3128 -0.3914
 1189TIP3    H125058   3.822   1.725   3.141  1.3261  1.9118  0.5506
 1189TIP3    H225059   3.839   1.664   3.278 -0.0479 -0.8270 -0.4244
 1190TIP3   OH225060   0.084   3.691  13.736  0.3296  0.3801  0.1788
 1190TIP3    H125061   0.079   3.600  13.706  1.7388  0.3234  0.0351
 1190TIP3    H225062  -0.002   3.709  13.775  0.1295 -1.0857  0.4466
 1191TIP3   OH225063   3.393   2.542   1.260 -0.0222  0.0723  0.1923
 1191TIP3    H125064   3.417   2.524   1.351  1.1014  1.6931  0.2591
 1191TIP3    H225065   3.422   2.464   1.212  2.1008  0.4065  0.8235
 1192TIP3   OH225066   6.785   5.397  15.248 -0.0864 -0.3574  0.0509
 1192TIP3    H125067   6.714   5.418  15.309  0.1008 -2.4831  1.0794
 1192TIP3    H225068   6.856   5.457  15.272 -0.8563  0.4830  0.2772
 1193TIP3   OH225069   5.029   0.054   0.423  0.0813 -0.3064  0.0881
 1193TIP3    H125070   5.017  -0.027   0.374 -1.7201 -0.7760  1.2285
 1193TIP3    H225071   4.985   0.121   0.371 -1.1395 -0.6556  0.6553
 1194TIP3   OH225072   4.130   3.819  16.448 -0.0369 -0.1924 -0.2378
 1194TIP3    H125073   4.098   3.735  16.415 -1.1869  0.0179  0.3061
 1194TIP3    H225074   4.068   3.884  16.414 -1.1211  0.0684  2.0165
 1195TIP3   OH225075   6.545   4.077  10.982  0.3579  0.7519 -0.5830
 1195TIP3    H125076   6.588   4.096  10.899 -1.6390 -3.2578 -2.8201
 1195TIP3    H225077   6.454   4.105  10.969  0.0133  0.0469  0.2345
 1196TIP3   OH225078   1.953   4.146  12.585  0.3871 -0.0561 -0.5881
 1196TIP3    H125079   1.956   4.229  12.632  1.2481 -0.3537 -0.0883
 1196TIP3    H225080   1.862   4.115  12.596  0.1682  0.6293 -0.4592
 1197TIP3   OH225081   3.403   0.513   4.623  0.7441  0.4114  0.8746
 1197TIP3    H125082   3.382   0.508   4.716 -0.9759  1.1626  0.5738
 1197TIP3    H225083   3.346   0.583   4.589  0.1063 -0.9432 -1.0521
 1198TIP3   OH225084   4.385   3.640  13.717 -0.3009 -0.9541 -0.1014
 1198TIP3    H125085   4.390   3.558  13.766  4.0245 -2.0437 -1.8808
 1198TIP3    H225086   4.379   3.613  13.626  0.1240  0.7088 -0.6575
 1199TIP3   OH225087   3.072   6.834  16.514 -0.1131  0.2552  0.9671
 1199TIP3    H125088   3.066   6.827  16.418 -0.2278 -2.3411  1.0964
 1199TIP3    H225089   2.984   6.860  16.541 -1.5880 -3.6135  0.5622
 1200TIP3   OH225090   5.059   2.676   0.516 -0.1319 -0.0945 -0.0244
 1200TIP3    H125091   5.045   2.698   0.424 -2.2006 -0.1146  0.2288
 1200TIP3    H225092   5.064   2.581   0.517  0.5415 -0.0619 -0.1869
 1201TIP3   OH225093   2.351   3.821  16.356 -0.9344  0.3684  0.6400
 1201TIP3    H125094   2.423   3.814  16.418 -1.5348  2.5837  1.6854
 1201TIP3    H225095   2.385   3.782  16.275  1.4788  1.4253  1.0638
 1202TIP3   OH225096   0.582   6.688  15.557  0.1347  0.5278  0.0024
 1202TIP3    H125097   0.514   6.658  15.496  0.2096 -0.1297  0.2308
 1202TIP3    H225098   0.664   6.677  15.509  0.2829 -0.9112  0.5441
 1203TIP3   OH225099   2.264   2.139  12.639 -0.4180 -0.1645 -0.5429
 1203TIP3    H125100   2.343   2.099  12.675 -0.0215  0.3129 -0.8668
 1203TIP3    H225101   2.232   2.197  12.709 -1.0187 -1.0646 -0.0569
 1204TIP3   OH225102   3.871   1.442  14.982 -0.2191 -0.1955  0.0263
 1204TIP3    H125103   3.802   1.499  14.949  0.6525  0.6411 -0.3989
 1204TIP3    H225104   3.834   1.402  15.061 -0.7366  1.2216  0.5230
 1205TIP3   OH225105   4.119   2.401  13.432 -0.0952 -0.0228 -0.2433
 1205TIP3    H125106   4.088   2.322  13.387  0.7181  0.2073 -1.2308
 1205TIP3    H225107   4.213   2.401  13.417 -0.0387  0.9390  0.0865
 1206TIP3   OH225108   5.492   0.515   1.051  0.7702 -0.0244  0.0378
 1206TIP3    H125109   5.479   0.610   1.045  0.2754 -0.0296  0.7898
 1206TIP3    H225110   5.552   0.504   1.125 -2.2138 -0.4464  2.6085
 1207TIP3   OH225111   4.393   2.176   2.711  0.3272  0.3798 -0.5034
 1207TIP3    H125112   4.488   2.162   2.709  0.0805 -1.7520  0.2889
 1207TIP3    H225113   4.359   2.101   2.758 -1.8653  0.5391 -1.7117
 1208TIP3   OH225114   0.754   4.689   2.261  0.2718 -0.2274  0.3575
 1208TIP3    H125115   0.793   4.626   2.201  1.0843  0.8988 -0.3262
 1208TIP3    H225116   0.799   4.675   2.344 -0.9592 -1.8932  0.8093
 1209TIP3   OH225117   5.239   5.100   4.606 -0.0788 -0.1731 -0.0727
 1209TIP3    H125118   5.215   5.174   4.549  0.3150  0.3919  0.4789
 1209TIP3    H225119   5.156   5.060   4.629 -0.3308  0.3168 -0.1034
 1210TIP3   OH225120   1.216   3.366   6.489  0.2484 -0.1530  0.5691
 1210TIP3    H125121   1.171   3.286   6.517  1.9871 -0.7021  1.9827
 1210TIP3    H225122   1.308   3.340   6.481  0.5245  1.2064 -1.1121
 1211TIP3   OH225123   4.095   2.118  16.438  0.6906  0.2427 -0.0576
 1211TIP3    H125124   4.094   2.027  16.407  1.0941 -0.2539  1.3197
 1211TIP3    H225125   4.065   2.113  16.529 -0.9165  1.7134 -0.4533
 1212TIP3   OH225126   4.617   5.919  16.694  0.1921 -0.5219 -0.1387
 1212TIP3    H125127   4.580   5.952  16.612  0.0260 -1.3577 -0.4153
 1212TIP3    H225128   4.695   5.972  16.708  0.5845 -0.7916 -1.1806
 1213TIP3   OH225129   0.733   1.900  13.320 -0.0920  0.4190  0.3775
 1213TIP3    H125130   0.784   1.903  13.401  0.4657 -0.4238  0.0734
 1213TIP3    H225131   0.768   1.824  13.273 -2.0994 -0.6212  0.4536
 1214TIP3   OH225132   4.112   4.184   4.594 -0.2002 -0.5063  0.2138
 1214TIP3    H125133   4.088   4.273   4.568  0.4758 -0.3566  0.0859
 1214TIP3    H225134   4.032   4.148   4.634 -0.5529  0.0633  0.0300
 1215TIP3   OH225135   6.563   3.843   5.854  0.4840  0.2047  0.1949
 1215TIP3    H125136   6.594   3.752   5.859 -1.1845 -0.4025  0.1496
 1215TIP3    H225137   6.496   3.849   5.923  1.3196  1.7258  0.9147
 1216TIP3   OH225138   0.223   0.177  16.887  0.6919 -0.4438  0.0163
 1216TIP3    H125139   0.310   0.187  16.848  0.0556  0.7690 -1.2072
 1216TIP3    H225140   0.163   0.175  16.812 -0.3868 -0.6430  0.8504
 1217TIP3   OH225141   4.554   3.115   1.416 -0.7356  0.6483  0.2093
 1217TIP3    H125142   4.614   3.155   1.480 -1.3723 -0.0102  1.2480
 1217TIP3    H225143   4.589   3.027   1.402 -2.2099 -0.2919  1.9594
 1218TIP3   OH225144   6.430   0.411   5.098 -0.0672  0.4726 -0.5275
 1218TIP3    H125145   6.386   0.355   5.161  4.2286  0.0639  2.5816
 1218TIP3    H225146   6.393   0.498   5.113 -0.4169  0.0461  1.3370
 1219TIP3   OH225147   2.582   4.603   2.330  0.1331  0.3021  0.3748
 1219TIP3    H125148   2.503   4.656   2.316  1.3762  3.0091  2.5185
 1219TIP3    H225149   2.645   4.636   2.265  0.4932  0.4918  0.8148
 1220TIP3   OH225150   6.309   1.905  12.357 -0.1879  0.5091 -0.0190
 1220TIP3    H125151   6.379   1.909  12.291 -0.5758  0.8526 -0.4200
 1220TIP3    H225152   6.228   1.901  12.305 -0.4012 -2.2033  0.4006
 1221TIP3   OH225153   3.907   3.816  13.626  0.0452 -0.7342 -0.5104
 1221TIP3    H125154   3.950   3.897  13.598 -1.7798  0.4897  0.0320
 1221TIP3    H225155   3.979   3.761  13.660  1.1937  1.1939  0.3590
 1222TIP3   OH225156   3.896   1.840   0.249 -0.3436  0.4136 -0.1888
 1222TIP3    H125157   3.866   1.858   0.159 -2.1286 -1.2264  0.0230
 1222TIP3    H225158   3.986   1.809   0.239 -0.9689 -1.0799 -1.5916
 1223TIP3   OH225159   2.446   2.908   4.947 -0.1703  0.3685  0.1611
 1223TIP3    H125160   2.462   2.818   4.977 -0.4207 -0.2027 -1.3472
 1223TIP3    H225161   2.531   2.952   4.955  0.1650 -0.2529  0.0740
 1224TIP3   OH225162   3.026   5.537  15.375 -0.0836 -0.2663 -0.2336
 1224TIP3    H125163   3.026   5.541  15.471  0.3453 -1.2141 -0.1840
 1224TIP3    H225164   3.111   5.571  15.349 -0.0823 -0.2905 -0.2611
 1225TIP3   OH225165   0.357   6.207   0.069 -0.0464 -0.2818 -0.0162
 1225TIP3    H125166   0.281   6.241   0.115 -0.4894 -1.3612  0.0667
 1225TIP3    H225167   0.333   6.212  -0.024  0.2872  0.5521 -0.0666
 1226TIP3   OH225168   3.873   4.408   0.016  0.0347 -0.0954  0.2192
 1226TIP3    H125169   3.910   4.369  -0.063 -1.3986  0.9456 -1.0180
 1226TIP3    H225170   3.789   4.364   0.027  0.0311  0.0803  0.9284
 1227TIP3   OH225171   1.988   6.515   3.138  0.3533  0.3281 -0.0858
 1227TIP3    H125172   1.912   6.558   3.098 -1.8650 -1.4704  1.9294
 1227TIP3    H225173   2.006   6.440   3.081 -0.7360 -0.4035  0.5090
 1228TIP3   OH225174   4.650   4.810  15.319 -0.2957 -0.4786  0.7464
 1228TIP3    H125175   4.571   4.778  15.274  0.8454  0.2745 -1.9521
 1228TIP3    H225176   4.618   4.882  15.374 -1.2479  1.5366 -2.2212
 1229TIP3   OH225177   2.080   5.781   1.935  0.0900  0.4385  0.7245
 1229TIP3    H125178   2.071   5.864   1.982 -1.0140  0.0135  1.3132
 1229TIP3    H225179   2.001   5.776   1.880  0.2723 -0.0966  0.5089
 1230TIP3   OH225180   1.979   5.616  12.617 -0.4837 -0.2110  0.5641
 1230TIP3    H125181   2.011   5.531  12.645  0.6398  0.5637  1.7468
 1230TIP3    H225182   2.050   5.653  12.565 -1.1953 -0.2226 -0.4316
 1231TIP3   OH225183   6.811   3.933  16.504  0.5425  0.2642  0.4475
 1231TIP3    H125184   6.808   4.012  16.557  0.3025  0.3477  0.3108
 1231TIP3    H225185   6.738   3.880  16.535 -0.3123  0.8049 -0.5647
 1232TIP3   OH225186   0.603   1.786  12.643 -0.1223 -0.0430 -0.2457
 1232TIP3    H125187   0.695   1.805  12.657  0.0646 -0.4642 -0.8835
 1232TIP3    H225188   0.557   1.840  12.708  0.5540  0.3469 -0.0879
 1233TIP3   OH225189   6.372   4.571   1.362 -0.4624  1.1481  0.2958
 1233TIP3    H125190   6.294   4.521   1.339  1.2906 -0.0764 -3.8206
 1233TIP3    H225191   6.338   4.647   1.409 -4.4488  1.7069 -2.8959
 1234TIP3   OH225192   1.034   1.172  13.361  0.8429  0.8496 -0.0410
 1234TIP3    H125193   1.031   1.195  13.268 -2.2373  1.8847  0.1947
 1234TIP3    H225194   1.083   1.244  13.401  1.7678  0.6503 -0.7744
 1235TIP3   OH225195   1.501   2.358  10.857  0.2901  0.0561  0.9060
 1235TIP3    H125196   1.423   2.389  10.904 -1.1237  1.4643 -2.1015
 1235TIP3    H225197   1.542   2.437  10.824 -0.0477 -0.8666 -2.0043
 1236TIP3   OH225198   4.378   2.230  12.728  0.1064  0.2460 -0.4327
 1236TIP3    H125199   4.338   2.156  12.683 -0.1102  0.4143 -0.5199
 1236TIP3    H225200   4.322   2.305  12.706  0.7881  0.5996 -1.0145
 1237TIP3   OH225201   5.832   5.143  14.870  0.2861 -0.2098  0.1720
 1237TIP3    H125202   5.742   5.117  14.849 -0.4013  0.4921  2.0496
 1237TIP3    H225203   5.883   5.064  14.855 -0.5345 -0.4837 -1.4237
 1238TIP3   OH225204   6.078   5.587  13.932 -0.7294  0.2871  0.1980
 1238TIP3    H125205   6.157   5.593  13.986 -0.3931 -0.3204 -0.2073
 1238TIP3    H225206   6.096   5.643  13.856 -0.4108 -0.3593 -0.2145
 1239TIP3   OH225207   6.054   2.536   4.344  0.3754  0.5140  0.0542
 1239TIP3    H125208   6.088   2.460   4.390 -0.8251 -0.1788 -0.1575
 1239TIP3    H225209   5.997   2.579   4.408 -0.3610  0.2154 -0.3888
 1240TIP3   OH225210   1.643   5.085   0.940 -0.4667 -0.5185 -0.4442
 1240TIP3    H125211   1.569   5.063   0.997 -0.5453 -1.1783 -0.7900
 1240TIP3    H225212   1.679   5.166   0.977 -0.8326 -0.6617  0.2365
 1241TIP3   OH225213   5.498   6.200   5.394  0.0141  0.1499 -0.0921
 1241TIP3    H125214   5.416   6.218   5.439  0.0936  1.1366 -0.3096
 1241TIP3    H225215   5.516   6.108   5.413 -1.6518 -0.3861 -0.8661
 1242TIP3   OH225216   1.982   6.683  14.668 -0.3826  0.5225  0.3680
 1242TIP3    H125217   1.919   6.744  14.707 -2.1944 -1.0641  0.0817
 1242TIP3    H225218   2.032   6.650  14.743 -1.4184  0.1712  0.9303
 1243TIP3   OH225219   1.456   4.390   3.029 -0.2635  0.4134  0.6703
 1243TIP3    H125220   1.426   4.436   3.108  0.1686  2.2178 -0.1616
 1243TIP3    H225221   1.421   4.443   2.957 -1.2811 -1.6018 -0.4012
 1244TIP3   OH225222   6.526   6.785  13.472 -0.1652 -0.0016 -0.7910
 1244TIP3    H125223   6.497   6.803  13.561  0.2832 -1.5330 -0.3054
 1244TIP3    H225224   6.588   6.854  13.452  1.1700 -0.6825  0.8169
 1245TIP3   OH225225   1.090   3.750   4.160  0.1194  0.1219 -0.2702
 1245TIP3    H125226   1.032   3.675   4.151 -0.3528  0.4987 -0.3904
 1245TIP3    H225227   1.178   3.715   4.146 -0.0638 -0.4815  0.0726
 1246TIP3   OH225228   6.373   6.201   4.847  0.4668  0.0789 -0.2144
 1246TIP3    H125229   6.450   6.146   4.832  0.4839 -0.0179  0.2374
 1246TIP3    H225230   6.342   6.222   4.759 -1.2968 -3.0666 -0.4649
 1247TIP3   OH225231   4.105   4.846   3.709  0.0124 -0.2527  0.6853
 1247TIP3    H125232   4.102   4.913   3.777 -2.0394  0.1198  0.2851
 1247TIP3    H225233   4.123   4.894   3.629  1.0964 -0.5262  0.7527
 1248TIP3   OH225234   5.236   1.055  16.839 -0.1737 -0.4882  0.2018
 1248TIP3    H125235   5.311   1.064  16.898 -0.2860 -0.8853  0.4080
 1248TIP3    H225236   5.221   0.960  16.834  0.3501 -0.5234 -1.0985
 1249TIP3   OH225237   1.615   5.714  13.628  0.4147  0.5497 -0.5539
 1249TIP3    H125238   1.652   5.693  13.542 -0.5189 -0.6781 -0.6870
 1249TIP3    H225239   1.594   5.628  13.666  1.0053  1.0524  0.9972
 1250TIP3   OH225240   4.629   0.609   1.502  0.0463  1.1832  0.3980
 1250TIP3    H125241   4.628   0.515   1.482 -0.4098  1.5195 -1.4066
 1250TIP3    H225242   4.721   0.631   1.513  0.1623  0.5474  0.6981
 1251TIP3   OH225243   2.336   0.843   0.954  0.5965 -0.0004 -0.4142
 1251TIP3    H125244   2.249   0.870   0.983  1.0432  0.8328  0.2401
 1251TIP3    H225245   2.362   0.910   0.891  1.3739  0.6717  0.5712
 1252TIP3   OH225246   1.765   5.471  14.001 -0.3128  0.3981 -0.6763
 1252TIP3    H125247   1.725   5.557  13.992 -0.7911  0.4626  1.5435
 1252TIP3    H225248   1.692   5.410  13.996 -0.3192  0.3101  0.3365
 1253TIP3   OH225249   5.563   0.653  15.904  0.4756  0.0302 -0.2656
 1253TIP3    H125250   5.521   0.567  15.901  2.7871 -1.4176  3.1266
 1253TIP3    H225251   5.492   0.714  15.923 -0.7995 -1.5524  0.2743
 1254TIP3   OH225252   0.681   3.743  11.219 -0.5433 -0.5038  0.0318
 1254TIP3    H125253   0.766   3.787  11.217 -0.4093 -0.7820 -0.6589
 1254TIP3    H225254   0.665   3.726  11.312 -0.0463 -0.0697  0.2051
 1255TIP3   OH225255   2.326   0.388   5.116  0.0779 -0.3899 -0.5144
 1255TIP3    H125256   2.418   0.370   5.136  0.1672  0.6083  0.0350
 1255TIP3    H225257   2.326   0.423   5.028  0.1695 -0.7586 -0.6649
 1256TIP3   OH225258   4.797   2.934   2.732  0.0659  0.1070  0.0666
 1256TIP3    H125259   4.728   2.924   2.667 -0.3082 -0.0660  0.4844
 1256TIP3    H225260   4.870   2.974   2.684 -0.8725  1.7807 -0.0318
 1257TIP3   OH225261   5.053   2.551   3.143  0.3024  0.1992 -0.7296
 1257TIP3    H125262   5.101   2.599   3.076  2.1438 -1.6302 -0.8598
 1257TIP3    H225263   4.985   2.503   3.095 -0.9489  1.8836 -0.7088
 1258TIP3   OH225264   1.985   2.036  15.931  0.3923  0.5235  0.4644
 1258TIP3    H125265   1.949   1.986  15.858  1.3629  0.6493 -0.1141
 1258TIP3    H225266   1.911   2.088  15.963 -0.6801 -1.3572  1.1843
 1259TIP3   OH225267   3.192   5.730   5.519 -0.2481 -0.2825 -0.1167
 1259TIP3    H125268   3.242   5.702   5.443 -1.3217  2.2295 -1.8674
 1259TIP3    H225269   3.102   5.736   5.488 -1.1679 -1.4982  2.0717
 1260TIP3   OH225270   1.087   6.832  12.425  0.7132  0.7922 -0.4318
 1260TIP3    H125271   1.119   6.922  12.419 -0.2308  1.0297 -2.9851
 1260TIP3    H225272   1.052   6.813  12.338 -2.0433 -0.9666  0.9259
 1261TIP3   OH225273   3.039   0.564   3.131 -0.3086  0.4906 -0.6405
 1261TIP3    H125274   3.042   0.500   3.059  0.3557 -0.6956  0.3992
 1261TIP3    H225275   3.129   0.571   3.160 -0.7049  0.1484  0.7397
 1262TIP3   OH225276   5.975   1.838  10.953 -0.5386  0.2544 -0.1214
 1262TIP3    H125277   6.068   1.832  10.976 -0.4399  3.0352  0.5725
 1262TIP3    H225278   5.961   1.931  10.936 -3.3274 -0.0209  0.2713
 1263TIP3   OH225279   3.322   4.570  11.073 -0.0161 -0.7807  0.3198
 1263TIP3    H125280   3.414   4.547  11.067 -0.0116 -1.2249  1.7152
 1263TIP3    H225281   3.319   4.642  11.137 -0.3083  1.5154 -2.1227
 1264TIP3   OH225282   4.536   4.419  16.683  0.2110  0.0114  0.2263
 1264TIP3    H125283   4.549   4.348  16.621  0.0784  0.2179 -0.0443
 1264TIP3    H225284   4.531   4.377  16.769 -2.2610 -0.5920 -0.1312
 1265TIP3   OH225285   4.643   0.144   1.021  0.6905  0.1964  0.1211
 1265TIP3    H125286   4.697   0.161   0.943 -0.4070  1.9186 -0.3240
 1265TIP3    H225287   4.638   0.049   1.027  2.3113  0.0132 -0.8400
 1266TIP3   OH225288   2.114   5.382   1.229 -0.1094 -0.2533 -0.2927
 1266TIP3    H125289   2.085   5.473   1.217 -1.7684 -0.1192  3.3559
 1266TIP3    H225290   2.207   5.389   1.252  1.1164 -0.0330 -4.4947
 1267TIP3   OH225291   4.586   1.398   5.958  0.4974  0.1410 -1.2593
 1267TIP3    H125292   4.623   1.312   5.976  0.8779  0.2772 -1.3824
 1267TIP3    H225293   4.491   1.384   5.955  0.6483 -0.6303 -3.2433
 1268TIP3   OH225294   1.288   3.755   3.107  0.0786 -0.3629  0.1373
 1268TIP3    H125295   1.341   3.719   3.037 -0.2946 -1.2955  0.3196
 1268TIP3    H225296   1.351   3.788   3.171  0.4496 -1.5729  0.4167
 1269TIP3   OH225297   4.476   2.431  13.974 -0.3346 -0.4644 -0.2844
 1269TIP3    H125298   4.399   2.488  13.966  1.0909  1.4401 -1.0470
 1269TIP3    H225299   4.453   2.353  13.923 -1.8384 -0.0626 -0.2860
 1270TIP3   OH225300   3.197   5.769  11.471  0.0206  0.7902 -0.2505
 1270TIP3    H125301   3.106   5.794  11.454 -1.1011 -0.6553  2.7913
 1270TIP3    H225302   3.193   5.675  11.487  1.9882  0.7748  0.4023
 1271TIP3   OH225303   5.318   0.659   5.540 -0.0541 -0.0377 -0.4492
 1271TIP3    H125304   5.254   0.597   5.574 -0.3615  1.2141  1.3856
 1271TIP3    H225305   5.395   0.606   5.521 -0.1608 -0.9681  1.4710
 1272TIP3   OH225306   0.280   3.709   3.940 -0.4211 -0.6122  0.7704
 1272TIP3    H125307   0.275   3.636   3.878  0.0173 -0.3363  0.4048
 1272TIP3    H225308   0.210   3.692   4.003 -1.4050 -0.4886 -0.2470
 1273TIP3   OH225309   6.111   6.475  10.591 -0.4071 -0.1746  0.2617
 1273TIP3    H125310   6.030   6.469  10.540 -0.8599 -0.1779  0.9651
 1273TIP3    H225311   6.156   6.392  10.574 -1.8401 -1.3875  1.9629
 1274TIP3   OH225312   0.696   4.494  14.398 -0.0087  0.6141  0.6258
 1274TIP3    H125313   0.689   4.475  14.304  2.6471  1.4692  0.1463
 1274TIP3    H225314   0.616   4.459  14.436 -1.2377  0.3521 -1.9746
 1275TIP3   OH225315   6.711   3.813   1.165 -0.4767  0.9900  0.1571
 1275TIP3    H125316   6.679   3.727   1.139 -1.1274  1.3487 -0.2499
 1275TIP3    H225317   6.633   3.866   1.176 -0.1229  1.3092  1.2487
 1276TIP3   OH225318   3.442   2.555   0.231  0.5358  0.0546  0.6175
 1276TIP3    H125319   3.393   2.518   0.304 -0.2184 -1.0500 -0.4099
 1276TIP3    H225320   3.531   2.521   0.241 -0.2539 -2.6424 -0.6114
 1277TIP3   OH225321   6.476   5.136  13.367 -0.1130  0.0496 -0.4351
 1277TIP3    H125322   6.442   5.197  13.433  0.1059 -0.7306  0.4258
 1277TIP3    H225323   6.461   5.181  13.284 -2.0427  0.3166 -0.0101
 1278TIP3   OH225324   4.222   1.813   3.358  0.5928  0.5399 -0.4059
 1278TIP3    H125325   4.192   1.723   3.347  1.3457  0.4212 -1.7321
 1278TIP3    H225326   4.155   1.866   3.314 -0.6725  0.8141  1.7005
 1279TIP3   OH225327   0.600   3.127  13.178  0.2541 -0.4458  0.2514
 1279TIP3    H125328   0.526   3.185  13.195 -1.1131 -1.8387 -0.6150
 1279TIP3    H225329   0.569   3.040  13.205  2.3816 -0.7692  1.9231
 1280TIP3   OH225330   3.497   1.853  14.842 -0.2485  0.5378 -0.2834
 1280TIP3    H125331   3.406   1.877  14.823 -0.3874  0.8114  0.6644
 1280TIP3    H225332   3.532   1.824  14.758 -1.4621 -0.3939 -0.5081
 1281TIP3   OH225333   5.872   0.023   2.298  0.0067 -0.1492  0.0839
 1281TIP3    H125334   5.888   0.108   2.339  0.9733  0.9382 -2.3345
 1281TIP3    H225335   5.958  -0.021   2.302 -0.7886 -1.7110  2.5653
 1282TIP3   OH225336   5.742   1.697  13.095 -0.4752  0.2824 -0.3812
 1282TIP3    H125337   5.673   1.763  13.086 -0.3253  0.7652  1.4610
 1282TIP3    H225338   5.723   1.633  13.027 -4.1525 -0.8366  1.4080
 1283TIP3   OH225339   1.906   0.267  13.037  0.1412  0.3576 -0.1114
 1283TIP3    H125340   1.866   0.195  12.989 -1.4514  1.1236 -0.0039
 1283TIP3    H225341   1.902   0.241  13.129 -1.2207  0.9085  0.0083
 1284TIP3   OH225342   2.674   2.918  14.906 -0.3745 -0.6444  0.4050
 1284TIP3    H125343   2.608   2.934  14.973  0.3899  0.3101  0.9573
 1284TIP3    H225344   2.713   3.004  14.890 -0.8579 -0.7623 -1.6118
 1285TIP3   OH225345   0.964   3.564   1.637  0.5631 -0.5757  0.0065
 1285TIP3    H125346   0.890   3.625   1.639  0.0424 -1.2107  1.7284
 1285TIP3    H225347   1.015   3.591   1.561 -1.5991 -0.3368 -1.4402
 1286TIP3   OH225348   1.645   0.225  11.354 -0.3389  0.7275  0.0386
 1286TIP3    H125349   1.650   0.220  11.258 -1.6041 -1.8528  0.0180
 1286TIP3    H225350   1.657   0.135  11.384 -2.6128  0.9966  2.1106
 1287TIP3   OH225351   4.798   1.147  16.469  0.3824 -0.7086  0.5071
 1287TIP3    H125352   4.860   1.191  16.527  3.9954 -2.4264 -1.6889
 1287TIP3    H225353   4.806   1.054  16.491 -0.6271 -1.0827 -0.5979
 1288TIP3   OH225354   2.511   0.743  11.714 -0.2254  0.0981 -0.3986
 1288TIP3    H125355   2.480   0.685  11.784  1.8079  0.3879  0.8337
 1288TIP3    H225356   2.441   0.807  11.703 -2.1142 -1.9438 -1.1245
 1289TIP3   OH225357   1.252   4.842  13.453 -0.3939  0.2261 -0.0640
 1289TIP3    H125358   1.249   4.816  13.361  1.5973  1.4721 -0.5452
 1289TIP3    H225359   1.246   4.937  13.451 -0.8537  0.2457  1.1556
 1290TIP3   OH225360   6.087   1.504  13.826  1.0321 -0.0430  0.7315
 1290TIP3    H125361   6.040   1.495  13.743 -2.2052 -0.8215  2.4926
 1290TIP3    H225362   6.155   1.437  13.823 -0.0830 -1.1749 -0.6511
 1291TIP3   OH225363   0.140   6.512  13.218  0.1909 -0.3612  0.3220
 1291TIP3    H125364   0.234   6.525  13.229 -0.0958  1.7595  0.7991
 1291TIP3    H225365   0.101   6.572  13.281 -1.4996 -0.6915 -0.3646
 1292TIP3   OH225366   2.760   2.394  11.983 -0.0785 -0.0551 -0.4027
 1292TIP3    H125367   2.722   2.464  12.035  1.5923  0.4974  0.1444
 1292TIP3    H225368   2.782   2.326  12.046 -1.2157 -0.8860 -0.8666
 1293TIP3   OH225369   4.562   3.289   0.261  0.2604 -0.4363 -0.6772
 1293TIP3    H125370   4.524   3.219   0.208  2.1666 -2.3785  0.3480
 1293TIP3    H225371   4.643   3.312   0.217 -0.0651  0.8016 -0.6903
 1294TIP3   OH225372   6.220   0.129  11.789 -0.0234 -0.5520 -0.1517
 1294TIP3    H125373   6.267   0.134  11.872 -0.4888 -0.3307  0.1031
 1294TIP3    H225374   6.288   0.113  11.723  0.1741 -2.6321  0.4747
 1295TIP3   OH225375   3.602   5.347   3.409  0.4198  0.8395  0.7525
 1295TIP3    H125376   3.554   5.416   3.456 -0.7739  0.1423  0.5957
 1295TIP3    H225377   3.677   5.328   3.466 -1.6137 -0.8287  3.0805
 1296TIP3   OH225378   1.209   5.357  11.386 -0.4937 -0.7360 -0.0546
 1296TIP3    H125379   1.122   5.391  11.404 -0.6366 -1.0178 -0.2090
 1296TIP3    H225380   1.259   5.432  11.355 -1.1953 -0.9416 -1.7448
 1297TIP3   OH225381   2.047   4.922  11.140  0.6732 -0.2544  0.6783
 1297TIP3    H125382   2.129   4.881  11.110  0.2390 -1.6444  1.3460
 1297TIP3    H225383   2.049   4.914  11.235 -0.5105 -0.8616  0.6719
 1298TIP3   OH225384   4.384   4.455   4.682  0.6351  0.1683 -0.1240
 1298TIP3    H125385   4.475   4.434   4.657  0.9599  1.8860 -0.5061
 1298TIP3    H225386   4.364   4.534   4.633 -1.2401 -0.4164 -0.3538
 1299TIP3   OH225387   3.469   3.460  14.678 -0.1632  0.0328 -0.5678
 1299TIP3    H125388   3.525   3.537  14.694 -0.8648  0.8704 -1.9830
 1299TIP3    H225389   3.393   3.473  14.735  1.0951 -1.2444  1.5720
 1300TIP3   OH225390   1.336   3.774  12.277 -0.2203  0.3521 -0.0493
 1300TIP3    H125391   1.254   3.802  12.236  0.2019  2.8196  0.6475
 1300TIP3    H225392   1.405   3.808  12.219  0.3700 -0.8411 -0.0977
 1301TIP3   OH225393   1.292   1.991   0.684  0.0187 -0.0202 -0.3062
 1301TIP3    H125394   1.369   1.979   0.629 -0.3420 -0.7483 -0.6675
 1301TIP3    H225395   1.317   1.955   0.769  0.3083  0.3918 -0.2106
 1302TIP3   OH225396   3.810   4.290  13.269  0.3131  0.2733 -0.2565
 1302TIP3    H125397   3.862   4.355  13.221  0.7193  0.0317 -0.1512
 1302TIP3    H225398   3.802   4.216  13.209 -1.2221  0.8981 -0.8594
 1303TIP3   OH225399   3.124   5.702   1.070  0.1823  0.3372  0.2693
 1303TIP3    H125400   3.095   5.712   1.161 -0.8754 -1.4661  0.1706
 1303TIP3    H225401   3.080   5.772   1.023  0.9855  1.4906  1.1751
 1304TIP3   OH225402   0.579   5.782   4.741 -0.3790  0.2415 -0.6523
 1304TIP3    H125403   0.673   5.782   4.723 -0.6003 -1.9673 -2.1731
 1304TIP3    H225404   0.543   5.847   4.680  0.2206  1.9252  0.7098
 1305TIP3   OH225405   0.375   2.559  12.418 -0.3761 -0.4690 -0.6724
 1305TIP3    H125406   0.419   2.599  12.493 -0.0852 -1.9565 -0.0188
 1305TIP3    H225407   0.288   2.536  12.451 -2.0733  3.0655 -2.1318
 1306TIP3   OH225408   1.104   0.104   2.084  0.6445  0.0151  0.5111
 1306TIP3    H125409   1.126   0.163   2.012 -0.4497  0.6032  0.6469
 1306TIP3    H225410   1.009   0.095   2.080  0.8778 -3.3474 -0.7583
 1307TIP3   OH225411   1.750   6.794   4.447  0.8479 -0.2233  0.1557
 1307TIP3    H125412   1.795   6.878   4.442  1.1215 -0.4118 -0.9621
 1307TIP3    H225413   1.820   6.729   4.449  0.6691 -0.4911 -1.0111
 1308TIP3   OH225414   3.839   3.606  11.694  0.4845 -0.1938  0.0889
 1308TIP3    H125415   3.786   3.667  11.643 -0.2725 -1.6236 -0.8779
 1308TIP3    H225416   3.925   3.649  11.701 -0.2994  1.4199  0.3174
 1309TIP3   OH225417   4.163   4.025  14.197  0.4544 -0.9304  0.1509
 1309TIP3    H125418   4.125   4.025  14.285  0.3206 -2.4249  0.1057
 1309TIP3    H225419   4.122   3.951  14.153 -0.5306  0.6122 -1.6518
 1310TIP3   OH225420   0.650   2.231   4.919 -0.0476  0.2520  0.2079
 1310TIP3    H125421   0.693   2.287   4.984  0.1230 -0.3461  0.6178
 1310TIP3    H225422   0.557   2.256   4.925  0.1465  1.1527 -0.2929
 1311TIP3   OH225423   4.201   1.714   3.758  0.5494  0.1102  0.5585
 1311TIP3    H125424   4.123   1.747   3.713 -0.6897  0.5995  2.9433
 1311TIP3    H225425   4.274   1.752   3.708 -0.7436  1.3154 -0.5178
 1312TIP3   OH225426   6.211   3.649  11.425  0.0834 -0.0330  0.2337
 1312TIP3    H125427   6.212   3.559  11.460 -1.5037  0.1809  0.9457
 1312TIP3    H225428   6.263   3.699  11.488 -1.4077  0.0415  1.4716
 1313TIP3   OH225429   1.480   2.696  15.634  0.2242 -0.0881  0.4406
 1313TIP3    H125430   1.469   2.782  15.675  2.0062  0.9286 -1.0508
 1313TIP3    H225431   1.397   2.681  15.589 -0.2323  0.7069  0.9862
 1314TIP3   OH225432   3.066   2.941  10.513  0.3597  0.4600  0.4998
 1314TIP3    H125433   3.014   2.936  10.593 -1.1245  1.9441 -0.3192
 1314TIP3    H225434   3.003   2.936  10.442  1.5601  0.1892 -0.5945
 1315TIP3   OH225435   4.975   3.233  14.299  0.0001  0.3590 -0.3112
 1315TIP3    H125436   4.927   3.261  14.221  0.4064  0.8971 -0.3712
 1315TIP3    H225437   4.907   3.221  14.365 -0.3345  0.0118 -0.7109
 1316TIP3   OH225438   3.842   4.930  13.609 -0.3795  0.3904  0.2150
 1316TIP3    H125439   3.891   4.900  13.532  0.2816  2.1280 -0.0986
 1316TIP3    H225440   3.763   4.970  13.573 -1.2967 -0.9626  0.6320
 1317TIP3   OH225441   0.271   2.834  15.957  0.0171 -0.1816  0.5558
 1317TIP3    H125442   0.282   2.916  16.004 -2.0703 -0.0792  0.9605
 1317TIP3    H225443   0.229   2.859  15.875 -0.1310 -0.7892  0.4402
 1318TIP3   OH225444   5.322   2.825  11.945  0.2295 -0.4008 -0.5530
 1318TIP3    H125445   5.398   2.792  11.994 -0.9105 -2.7418 -0.2234
 1318TIP3    H225446   5.296   2.905  11.991  1.4492 -0.5067  0.3656
 1319TIP3   OH225447   5.811   3.466  12.795 -0.2588  0.3090 -0.1906
 1319TIP3    H125448   5.780   3.383  12.759 -0.1737 -0.2135  0.9076
 1319TIP3    H225449   5.775   3.469  12.883  0.8992  0.7790  0.2881
 1320TIP3   OH225450   2.739   6.787   2.000  0.9007  0.2094  0.1169
 1320TIP3    H125451   2.831   6.812   1.994  0.2510  2.5243 -1.5993
 1320TIP3    H225452   2.721   6.743   1.917  0.6194 -0.9715  0.7828
 1321TIP3   OH225453   6.610   1.831  15.574  0.8411 -0.3043  0.0676
 1321TIP3    H125454   6.520   1.797  15.576  1.4640 -2.1317 -0.7291
 1321TIP3    H225455   6.600   1.925  15.590 -1.2050 -0.4543  0.0133
 1322TIP3   OH225456   2.014   5.890   0.827 -0.1604  0.2265  0.2444
 1322TIP3    H125457   1.960   5.865   0.752 -0.2464  0.9518  0.0559
 1322TIP3    H225458   2.040   5.807   0.867 -2.1835 -0.1377  0.9025
 1323TIP3   OH225459   4.322   5.239  11.518  0.5699 -0.0847 -0.0133
 1323TIP3    H125460   4.309   5.157  11.565  0.1074 -1.2772 -2.0637
 1323TIP3    H225461   4.251   5.296  11.547  0.3688 -0.7386  0.7915
 1324TIP3   OH225462   4.257   2.541  16.867  0.4244 -0.2082 -0.0570
 1324TIP3    H125463   4.298   2.600  16.930  1.2219 -1.0006  0.1840
 1324TIP3    H225464   4.189   2.496  16.917  1.4666 -1.2928  0.4438
 1325TIP3   OH225465   2.759   5.870  16.680 -0.0926 -0.3285 -0.0046
 1325TIP3    H125466   2.667   5.894  16.675 -0.3103 -0.8050  1.1599
 1325TIP3    H225467   2.760   5.795  16.740  1.1890  0.4822  1.0378
 1326TIP3   OH225468   5.827   4.665   2.537 -0.3886 -0.3664  0.0605
 1326TIP3    H125469   5.790   4.725   2.601  1.9059  0.5782  0.5946
 1326TIP3    H225470   5.813   4.709   2.453 -0.0770  0.1981  0.2987
 1327TIP3   OH225471   4.733   6.468  10.833  0.1058 -0.0569 -0.3565
 1327TIP3    H125472   4.767   6.526  10.765  0.5380  0.7755  0.5465
 1327TIP3    H225473   4.785   6.389  10.825  1.5907  0.8071  0.3244
 1328TIP3   OH225474   5.711   4.815   5.053  0.4732  0.5048 -0.4939
 1328TIP3    H125475   5.648   4.792   5.122 -0.3272  2.4769 -0.5020
 1328TIP3    H225476   5.754   4.733   5.032 -3.1998 -1.3641 -1.5812
 1329TIP3   OH225477   6.407   4.154  14.999 -0.1288 -0.1037 -0.3022
 1329TIP3    H125478   6.406   4.154  15.095 -0.3570 -0.8444 -0.2980
 1329TIP3    H225479   6.426   4.245  14.975  2.7574 -0.3985  0.4818
 1330TIP3   OH225480   0.891   4.116  15.134 -0.0628 -0.2019 -0.3439
 1330TIP3    H125481   0.891   4.201  15.177  0.6019 -0.6552  0.5833
 1330TIP3    H225482   0.829   4.126  15.061  1.4547  1.6850 -1.4758
 1331TIP3   OH225483   4.096   2.616   0.684 -0.0563 -0.8754 -0.5204
 1331TIP3    H125484   4.174   2.565   0.705  0.6700  0.6574  0.6012
 1331TIP3    H225485   4.090   2.612   0.588  0.6515 -2.0376 -0.5349
 1332TIP3   OH225486   4.517   3.997  16.751 -0.2592 -0.0655  0.1727
 1332TIP3    H125487   4.445   3.937  16.730  0.2134 -0.5365 -0.1375
 1332TIP3    H225488   4.572   3.947  16.812 -1.2518  1.0271  2.0758
 1333TIP3   OH225489   4.152   5.310  12.878 -0.0011  0.0629 -0.0384
 1333TIP3    H125490   4.233   5.316  12.929  1.3484 -0.1277 -2.0627
 1333TIP3    H225491   4.129   5.218  12.880  1.4229 -0.3850 -1.7094
 1334TIP3   OH225492   5.585   4.666   2.320 -0.0465 -0.2534 -0.3862
 1334TIP3    H125493   5.543   4.708   2.245 -0.5345 -1.9563 -1.1198
 1334TIP3    H225494   5.677   4.693   2.315  0.2913 -1.5930 -2.5700
 1335TIP3   OH225495   0.801   0.076  12.518 -0.3205 -0.0245 -0.2483
 1335TIP3    H125496   0.780   0.002  12.461 -2.0064  1.2305 -1.3285
 1335TIP3    H225497   0.876   0.046  12.570 -0.0726 -1.9608 -1.6462
 1336TIP3   OH225498   2.835   2.056  16.057  1.0839  1.2005  0.1774
 1336TIP3    H125499   2.772   2.090  16.119 -1.6768 -0.1666 -1.6738
 1336TIP3    H225500   2.886   1.992  16.106  0.0650  1.3077  1.4108
 1337TIP3   OH225501   1.585   1.255  15.488  0.0425  0.1734  0.1920
 1337TIP3    H125502   1.594   1.301  15.405  1.3660  0.3869  0.4279
 1337TIP3    H225503   1.497   1.278  15.519  0.1958  1.5136 -0.3126
 1338TIP3   OH225504   4.727   4.968  16.836  0.6465 -0.0452  0.2790
 1338TIP3    H125505   4.709   4.881  16.871 -2.8380  0.5049  0.1554
 1338TIP3    H225506   4.714   4.959  16.742 -2.1277  0.9746  0.4670
 1339TIP3   OH225507   3.747   3.589   2.639 -0.3598 -0.0930 -0.1138
 1339TIP3    H125508   3.709   3.632   2.562 -0.9954  0.1565  0.3310
 1339TIP3    H225509   3.680   3.599   2.707  0.8144  1.0525  0.9177
 1340TIP3   OH225510   2.067   1.812  14.330  0.4593 -0.5398  0.4704
 1340TIP3    H125511   2.086   1.768  14.247  1.2212  1.4319 -0.4571
 1340TIP3    H225512   2.122   1.767  14.394  1.7491 -0.5191 -0.5721
 1341TIP3   OH225513   0.017   1.448   4.884 -0.5536 -0.1607 -0.4730
 1341TIP3    H125514  -0.024   1.530   4.909  0.1817  0.3537 -0.9362
 1341TIP3    H225515   0.108   1.455   4.914 -1.1835 -2.0581  2.3119
 1342TIP3   OH225516   4.797   2.621  13.167 -0.0165 -0.2273  0.0207
 1342TIP3    H125517   4.831   2.543  13.209  1.1424 -0.1532 -0.7563
 1342TIP3    H225518   4.824   2.614  13.076  1.3565  1.7295  0.1996
 1343TIP3   OH225519   1.590   0.815  11.193 -0.1637 -0.0213  0.0476
 1343TIP3    H125520   1.675   0.858  11.207 -0.2667 -0.0196  0.6989
 1343TIP3    H225521   1.574   0.825  11.099 -1.1287  3.1832  0.4199
 1344TIP3   OH225522   3.911   1.101   3.696 -0.3221 -0.4455 -0.0108
 1344TIP3    H125523   3.869   1.017   3.714 -1.1793  0.0097  0.1778
 1344TIP3    H225524   4.004   1.087   3.717 -0.9110 -0.5065  2.9676
 1345TIP3   OH225525   2.944   5.962  15.300 -1.0987  0.3285  0.6149
 1345TIP3    H125526   2.937   6.056  15.289 -0.5230  0.4287  1.0399
 1345TIP3    H225527   3.033   5.948  15.334 -1.2497 -0.3471  0.7575
 1346TIP3   OH225528   4.238   6.312  14.129 -0.0304 -0.6942  0.4614
 1346TIP3    H125529   4.143   6.313  14.114 -0.0454 -0.1128  0.5712
 1346TIP3    H225530   4.265   6.224  14.104 -0.3587 -0.3852 -1.1379
 1347TIP3   OH225531   1.232   5.515  14.363 -0.1188  0.0491 -0.0509
 1347TIP3    H125532   1.160   5.538  14.305  0.4666 -0.8793 -1.1952
 1347TIP3    H225533   1.280   5.597  14.374 -0.4723  0.3331 -0.5642
 1348TIP3   OH225534   4.323   6.419   2.525 -0.2586 -0.1307  0.3366
 1348TIP3    H125535   4.370   6.341   2.494  1.0089  0.5838  0.3775
 1348TIP3    H225536   4.369   6.492   2.483 -3.0128  0.5448 -1.7961
 1349TIP3   OH225537   1.426   1.934   3.128 -0.0669  0.6417  0.1661
 1349TIP3    H125538   1.437   1.882   3.208 -1.6770 -0.9712 -0.6227
 1349TIP3    H225539   1.504   1.914   3.076 -0.5437 -0.8205 -0.0220
 1350TIP3   OH225540   3.638   5.221  11.782 -0.2672  0.0504 -0.6778
 1350TIP3    H125541   3.728   5.208  11.810 -0.4212  0.0378 -0.1854
 1350TIP3    H225542   3.641   5.301  11.729 -0.0138  0.1843 -0.4620
 1351TIP3   OH225543   0.057   2.372   5.138 -0.3089  0.2097  0.0773
 1351TIP3    H125544   0.054   2.429   5.215  1.1213  2.7215 -1.5870
 1351TIP3    H225545   0.137   2.397   5.092  0.1245 -2.8364 -1.0970
 1352TIP3   OH225546   1.714   6.141  14.556 -0.7079 -0.0974  0.0424
 1352TIP3    H125547   1.734   6.161  14.465  0.7601 -0.2148  0.3118
 1352TIP3    H225548   1.732   6.048  14.565  1.1187  0.2919  0.9026
 1353TIP3   OH225549   5.341   3.509   3.851 -0.3963  0.3578 -0.6173
 1353TIP3    H125550   5.276   3.537   3.915  0.0751 -0.8014  0.4264
 1353TIP3    H225551   5.422   3.550   3.881 -0.3575  0.5801 -1.0293
 1354TIP3   OH225552   6.886   4.896  13.080 -0.9232  0.5349  0.7639
 1354TIP3    H125553   6.903   4.816  13.032 -2.3251 -0.1122  1.2818
 1354TIP3    H225554   6.791   4.899  13.089 -1.0248  2.8235 -0.1843
 1355TIP3   OH225555   1.260   5.723  12.701  0.2109  0.7265  0.4243
 1355TIP3    H125556   1.356   5.721  12.697  0.2594  1.6397  0.7836
 1355TIP3    H225557   1.233   5.733  12.610  0.3644 -1.3348  0.0998
 1356TIP3   OH225558   3.601   2.965  11.220 -0.3225  0.2308 -0.6025
 1356TIP3    H125559   3.592   2.943  11.127  2.7865  1.7420 -1.3850
 1356TIP3    H225560   3.578   3.057  11.226 -2.3607 -0.2948  0.5618
 1357TIP3   OH225561   6.356   2.931  13.617 -0.1973  0.5763  0.2837
 1357TIP3    H125562   6.279   2.901  13.570  0.2156 -1.5638  0.8613
 1357TIP3    H225563   6.381   2.856  13.672  2.7900  0.8588 -0.5402
 1358TIP3   OH225564   4.448   1.040   4.893  0.0407  0.2562 -0.1584
 1358TIP3    H125565   4.441   1.028   4.798 -1.4936  0.6256 -0.1189
 1358TIP3    H225566   4.472   0.953   4.926  1.2604  0.2755 -0.9238
 1359TIP3   OH225567   4.103   5.796   2.798 -0.4888 -0.5276 -0.1191
 1359TIP3    H125568   4.160   5.852   2.745  0.7521 -0.5255  1.1490
 1359TIP3    H225569   4.030   5.775   2.741 -0.5355  1.6236 -0.9457
 1360TIP3   OH225570   5.495   6.499  11.280 -0.3976 -0.3952  0.2455
 1360TIP3    H125571   5.457   6.411  11.281 -0.5837 -0.3709 -1.5189
 1360TIP3    H225572   5.490   6.526  11.188 -1.0754  1.7952  0.8859
 1361TIP3   OH225573   1.623   2.561  10.733  0.3016  0.1247 -0.1390
 1361TIP3    H125574   1.567   2.638  10.722  0.4030  0.4175  1.2482
 1361TIP3    H225575   1.692   2.571  10.668  0.2631  1.1633 -0.0264
 1362TIP3   OH225576   1.672   4.103  12.636 -0.2180  0.6530 -0.1417
 1362TIP3    H125577   1.621   4.024  12.653  0.4693 -0.3745 -2.5131
 1362TIP3    H225578   1.687   4.141  12.723  0.0623 -2.2081  1.1771
 1363TIP3   OH225579   0.255   1.504  11.014 -0.1057  0.6258 -0.6719
 1363TIP3    H125580   0.294   1.582  10.975 -0.7718  1.4591  0.2539
 1363TIP3    H225581   0.283   1.507  11.106 -1.7915  0.9378 -0.1187
 1364TIP3   OH225582   3.089   3.775  13.755  0.6078  0.1653  0.1025
 1364TIP3    H125583   3.133   3.698  13.718  0.0182  0.2004 -0.7048
 1364TIP3    H225584   3.082   3.757  13.848  0.1744 -0.9148 -0.1274
 1365TIP3   OH225585   3.319   3.722   5.784 -0.1236  0.2514 -1.2098
 1365TIP3    H125586   3.263   3.782   5.834 -0.3227 -0.7035 -0.2632
 1365TIP3    H225587   3.349   3.658   5.848 -0.1581 -0.8573 -2.2697
 1366TIP3   OH225588   6.503   2.671   1.293  0.1602  0.0008 -0.6542
 1366TIP3    H125589   6.489   2.606   1.363  1.0550  0.7150  0.2245
 1366TIP3    H225590   6.417   2.709   1.278 -0.0940 -0.3333 -0.0925
 1367TIP3   OH225591   0.424   5.606   1.759 -0.5133  0.5179  0.0384
 1367TIP3    H125592   0.388   5.541   1.700  0.0427  1.3897 -1.3133
 1367TIP3    H225593   0.505   5.635   1.717 -0.7181  2.0543  0.6035
 1368TIP3   OH225594   4.982   0.786  11.714  0.1236 -0.2432 -0.1402
 1368TIP3    H125595   4.978   0.793  11.809  0.8820 -1.9990  0.0490
 1368TIP3    H225596   4.890   0.778  11.687 -0.0141 -1.7607  0.6551
 1369TIP3   OH225597   0.984   3.749   0.882  0.2051 -0.1388 -0.1103
 1369TIP3    H125598   1.030   3.827   0.913  0.1889 -0.0382 -0.3393
 1369TIP3    H225599   0.973   3.695   0.961 -1.6095  1.0046  0.4945
 1370TIP3   OH225600   5.206   2.165   0.836 -0.2996 -0.2331  0.2621
 1370TIP3    H125601   5.219   2.107   0.911  0.9121 -0.9140 -0.4534
 1370TIP3    H225602   5.294   2.187   0.806 -0.6382 -2.6200 -2.9607
 1371TIP3   OH225603   4.353   6.345  14.471  0.1151 -0.1519  0.1421
 1371TIP3    H125604   4.342   6.363  14.378  1.2632  0.8630  0.1661
 1371TIP3    H225605   4.341   6.430  14.513 -0.2186 -0.5695  0.9028
 1372TIP3   OH225606   2.886   1.044  11.940  0.1599  0.5674  0.2434
 1372TIP3    H125607   2.939   0.964  11.929 -1.8170 -0.7846  0.1371
 1372TIP3    H225608   2.887   1.085  11.853 -0.0305 -0.1389 -0.0995
 1373TIP3   OH225609   5.720   2.889  12.185  0.5017 -0.2173  0.5323
 1373TIP3    H125610   5.643   2.896  12.240 -0.2444  0.7339 -0.5924
 1373TIP3    H225611   5.687   2.856  12.101  0.8265  2.5001 -0.7934
 1374TIP3   OH225612   2.470   0.784  14.059 -0.5305 -0.1180  0.0197
 1374TIP3    H125613   2.418   0.712  14.096 -0.9391  0.1430 -0.0335
 1374TIP3    H225614   2.559   0.751  14.057 -0.7662 -0.7607 -0.3194
 1375TIP3   OH225615   4.852   6.534  13.657  0.7149 -0.2995  0.9236
 1375TIP3    H125616   4.923   6.470  13.663  0.6559 -0.4447  0.1777
 1375TIP3    H225617   4.809   6.514  13.574  0.3511  0.3579  0.9483
 1376TIP3   OH225618   2.638   0.146  13.994 -0.6131 -0.4827 -0.0659
 1376TIP3    H125619   2.583   0.208  14.043  0.5476  0.1362  0.4842
 1376TIP3    H225620   2.709   0.200  13.959 -0.5426 -1.2086 -1.0838
 1377TIP3   OH225621   0.445   2.929  11.216  0.7278  0.1917  0.2553
 1377TIP3    H125622   0.512   2.867  11.245  1.0638  1.0737  1.4251
 1377TIP3    H225623   0.460   2.938  11.122  1.6106 -0.3742  0.3302
 1378TIP3   OH225624   6.301   0.822   3.464 -0.1343  0.2858 -0.1516
 1378TIP3    H125625   6.355   0.774   3.402 -0.1357  0.2593 -0.1324
 1378TIP3    H225626   6.256   0.888   3.411  1.1788  1.4206  0.0634
 1379TIP3   OH225627   1.635   3.733   0.378  0.5534 -0.1113 -0.6064
 1379TIP3    H125628   1.602   3.809   0.331 -0.3540  0.3865  0.7881
 1379TIP3    H225629   1.602   3.658   0.328 -3.2093  0.3186  0.8868
 1380TIP3   OH225630   5.898   3.631  12.039  0.4379  0.0630  0.2169
 1380TIP3    H125631   5.833   3.600  12.102 -0.2075  0.0794 -0.4286
 1380TIP3    H225632   5.937   3.551  12.004  0.7628  0.0528  0.6001
 1381TIP3   OH225633   6.668   1.975   1.105 -0.2373 -0.5421 -0.5072
 1381TIP3    H125634   6.763   1.983   1.110 -0.1412 -1.1844 -1.1529
 1381TIP3    H225635   6.639   2.057   1.064 -0.1254  0.3363  1.0711
 1382TIP3   OH225636   5.535   5.200  11.572  0.3348  0.3514 -0.2755
 1382TIP3    H125637   5.494   5.193  11.657  0.2224  0.9351 -0.2808
 1382TIP3    H225638   5.629   5.200  11.590  0.3054  0.7794 -0.1308
 1383TIP3   OH225639   4.872   3.084  16.827 -0.3117 -0.8375 -0.0747
 1383TIP3    H125640   4.966   3.084  16.843 -0.5128 -0.7088  1.2698
 1383TIP3    H225641   4.858   3.012  16.766  0.6605 -0.8288 -0.3205
 1384TIP3   OH225642   3.211   2.552   0.937  0.0199  0.1826 -0.1000
 1384TIP3    H125643   3.145   2.612   0.903  0.4950  0.8152  0.0559
 1384TIP3    H225644   3.215   2.481   0.873 -3.5754 -1.9675  1.7665
 1385TIP3   OH225645   5.604   5.392  14.526  0.4773  0.2563 -0.0722
 1385TIP3    H125646   5.688   5.379  14.570 -0.5917 -1.2467  1.6673
 1385TIP3    H225647   5.556   5.452  14.584 -0.3922 -0.5456  0.0610
 1386TIP3   OH225648   5.525   0.114   3.687  0.4654  0.6357  0.0575
 1386TIP3    H125649   5.449   0.125   3.631  0.9962  1.3203 -0.5485
 1386TIP3    H225650   5.592   0.075   3.630  1.0158  1.3468  0.2008
 1387TIP3   OH225651   4.772   2.415   5.197  0.1813 -0.6378  0.4969
 1387TIP3    H125652   4.797   2.489   5.252  0.7053 -0.9785  0.7239
 1387TIP3    H225653   4.756   2.454   5.111  1.2796 -0.3715  0.4014
 1388TIP3   OH225654   0.216   0.659   5.971  0.1572  0.4272  0.4343
 1388TIP3    H125655   0.300   0.678   6.013  0.8137 -0.7571 -0.2667
 1388TIP3    H225656   0.173   0.744   5.964  0.9445  0.9456  1.5412
 1389TIP3   OH225657   2.379   1.151  16.708  0.1640  0.1096 -0.0416
 1389TIP3    H125658   2.419   1.074  16.748  3.3153  2.6090  2.1491
 1389TIP3    H225659   2.285   1.133  16.712  0.7082 -3.6888 -0.0292
 1390TIP3   OH225660   2.016   5.433   2.940  0.0193  0.0749  0.4027
 1390TIP3    H125661   1.968   5.449   2.859  2.1291  0.7013 -0.8182
 1390TIP3    H225662   1.949   5.414   3.005 -2.0224  2.8747 -0.6780
 1391TIP3   OH225663   2.357   4.065   6.153 -0.1999  0.4423  0.4353
 1391TIP3    H125664   2.267   4.054   6.121  0.3829  0.6194 -1.3637
 1391TIP3    H225665   2.379   4.155   6.131  0.1819  0.6575  1.5959
 1392TIP3   OH225666   3.216   4.322  11.104  0.0183 -0.2788  0.3947
 1392TIP3    H125667   3.254   4.282  11.025 -1.5180 -1.2188  0.0654
 1392TIP3    H225668   3.244   4.413  11.101 -0.2333 -0.2138 -1.4361
 1393TIP3   OH225669   6.218   1.250  11.389 -0.3085  0.1467 -0.1052
 1393TIP3    H125670   6.198   1.304  11.465  0.5117  0.3811 -0.0424
 1393TIP3    H225671   6.231   1.162  11.426 -1.4535 -0.0662 -0.1837
 1394TIP3   OH225672   2.726   6.044   4.202 -0.3612  0.1259 -0.6183
 1394TIP3    H125673   2.647   6.000   4.232  0.0877 -0.3329 -0.0616
 1394TIP3    H225674   2.794   6.015   4.264  0.1036  1.0150 -0.6888
 1395TIP3   OH225675   0.747   0.228   1.574 -0.4650  0.0854  0.5447
 1395TIP3    H125676   0.721   0.249   1.484 -0.1088  2.2569  0.8927
 1395TIP3    H225677   0.704   0.295   1.627 -0.4378 -0.9947  1.9784
 1396TIP3   OH225678   2.817   2.802   2.099  0.0654 -0.9279 -0.2239
 1396TIP3    H125679   2.846   2.712   2.111  0.5042 -0.7234  0.2680
 1396TIP3    H225680   2.826   2.818   2.005  1.1579 -1.0009 -0.1437
 1397TIP3   OH225681   4.235   4.841   3.366  0.0996  0.1767 -0.0496
 1397TIP3    H125682   4.194   4.922   3.397 -1.2624 -0.8433  0.9719
 1397TIP3    H225683   4.161   4.782   3.348  1.0595 -0.9876 -0.3422
 1398TIP3   OH225684   6.896   2.505   5.369 -0.2816 -0.6278  0.5327
 1398TIP3    H125685   6.944   2.497   5.451 -1.7587 -3.7002  1.2575
 1398TIP3    H225686   6.843   2.583   5.380  1.0515  0.1711  1.6233
 1399TIP3   OH225687   6.751   2.722  13.844  0.2176 -0.5656 -0.3719
 1399TIP3    H125688   6.749   2.696  13.936 -0.0362  0.6035 -0.0303
 1399TIP3    H225689   6.665   2.698  13.810 -0.8761  1.7748  0.5286
 1400TIP3   OH225690   0.337   4.004   2.135 -0.5134  0.9875 -0.1411
 1400TIP3    H125691   0.279   4.068   2.178  0.2801  0.9143  1.0764
 1400TIP3    H225692   0.363   3.944   2.205 -0.3353 -0.0084 -1.0375
 1401TIP3   OH225693   0.614   2.446  10.814  0.3182 -0.4212 -0.1469
 1401TIP3    H125694   0.618   2.377  10.880  0.1859 -1.2565 -0.9960
 1401TIP3    H225695   0.683   2.507  10.839 -1.4028  0.6828  2.2717
 1402TIP3   OH225696   5.570   1.546  12.772  0.1526  0.7676 -0.1977
 1402TIP3    H125697   5.536   1.586  12.692  0.6424  0.9212 -0.3309
 1402TIP3    H225698   5.492   1.525  12.823 -0.2033 -0.1381 -1.0958
 1403TIP3   OH225699   1.313   4.895   0.211 -0.3874  0.1712  0.1328
 1403TIP3    H125700   1.221   4.918   0.203  0.0046  1.5951 -0.6866
 1403TIP3    H225701   1.341   4.936   0.293 -0.4665 -0.2062  0.3491
 1404TIP3   OH225702   5.006   0.236   3.649  0.2568  0.1096  0.3708
 1404TIP3    H125703   4.923   0.253   3.694  0.6112  0.6931  0.8201
 1404TIP3    H225704   5.061   0.197   3.716 -0.0823 -1.5700 -0.2798
 1405TIP3   OH225705   3.022   3.611  13.172 -0.4808  0.2927  0.1100
 1405TIP3    H125706   2.931   3.585  13.161 -0.9249  2.1394 -0.9510
 1405TIP3    H225707   3.021   3.671  13.246 -0.5211  1.9419 -1.1746
 1406TIP3   OH225708   6.445   5.746   3.398 -0.2152 -0.1082 -0.2059
 1406TIP3    H125709   6.438   5.659   3.358 -0.3596 -0.6580  0.9731
 1406TIP3    H225710   6.370   5.751   3.457  1.3068 -0.3147  1.8344
 1407TIP3   OH225711   0.171   1.694  15.858  0.1343  0.1173  0.6353
 1407TIP3    H125712   0.242   1.713  15.796 -1.7527 -0.1269 -1.7288
 1407TIP3    H225713   0.138   1.780  15.884 -1.9018  0.3322 -2.2498
 1408TIP3   OH225714   6.058   3.166   5.034 -0.5691 -0.1761 -0.0012
 1408TIP3    H125715   5.973   3.133   5.061 -0.3679  0.5527  1.6628
 1408TIP3    H225716   6.118   3.139   5.103  0.5225 -0.4327 -1.0041
 1409TIP3   OH225717   6.278   5.620  15.738  0.4959 -0.2390 -0.7067
 1409TIP3    H125718   6.224   5.687  15.779  0.0183 -0.3034 -1.2167
 1409TIP3    H225719   6.334   5.667  15.677  2.1054  0.0184  0.8698
 1410TIP3   OH225720   3.814   0.345  12.434 -0.1898  0.4142  0.5272
 1410TIP3    H125721   3.741   0.387  12.389 -2.2772 -2.2167  1.1708
 1410TIP3    H225722   3.806   0.373  12.525 -2.0722 -1.7616  1.1230
 1411TIP3   OH225723   5.188   4.689  10.576  0.7910  0.0334 -0.1808
 1411TIP3    H125724   5.173   4.655  10.488 -0.6007  1.6505 -0.6178
 1411TIP3    H225725   5.275   4.727  10.574 -0.5167  3.2893 -2.0343
 1412TIP3   OH225726   6.695   6.069  13.851 -0.1311  0.0915  0.3620
 1412TIP3    H125727   6.761   6.075  13.782  1.0354 -1.8434  1.2266
 1412TIP3    H225728   6.745   6.079  13.932 -0.7783 -1.8640  1.0571
 1413TIP3   OH225729   6.665   0.328  16.679 -0.5794 -0.4710  0.3318
 1413TIP3    H125730   6.572   0.308  16.680 -0.4833 -0.9838 -0.3028
 1413TIP3    H225731   6.695   0.309  16.768 -1.4400  1.5331  1.0989
 1414TIP3   OH225732   1.960   2.396   2.582 -0.6498 -0.0194  0.8818
 1414TIP3    H125733   1.959   2.309   2.622 -0.7550 -0.9011 -0.9441
 1414TIP3    H225734   2.021   2.446   2.636  0.1402 -1.4983  1.4238
 1415TIP3   OH225735   0.728   1.590   5.023 -0.5650  0.4850  0.2949
 1415TIP3    H125736   0.789   1.582   5.096  0.6483 -0.2735 -0.7691
 1415TIP3    H225737   0.642   1.578   5.063  0.1021 -0.4027  1.5366
 1416TIP3   OH225738   2.039   6.694   4.602 -0.0253  0.1128  0.2533
 1416TIP3    H125739   1.988   6.678   4.681 -1.0220  2.6667  0.2288
 1416TIP3    H225740   2.017   6.621   4.544 -1.7142 -0.1782  1.2011
 1417TIP3   OH225741   0.922   1.157   0.485  1.0468  0.3378 -0.0112
 1417TIP3    H125742   0.949   1.065   0.482  0.5761  0.2275 -1.9270
 1417TIP3    H225743   0.998   1.205   0.454  1.2266  0.5849  0.8067
 1418TIP3   OH225744   3.136   2.422  15.830  0.0277  0.0465 -0.4071
 1418TIP3    H125745   3.187   2.446  15.908 -0.5162  0.1202 -0.0717
 1418TIP3    H225746   3.071   2.360  15.861 -0.4451  0.3712 -0.7292
 1419TIP3   OH225747   3.292   2.854  11.108  0.7588 -0.0773  0.2331
 1419TIP3    H125748   3.359   2.802  11.062  1.1654  1.1719 -0.6402
 1419TIP3    H225749   3.279   2.808  11.191  0.5903 -1.9606 -0.7805
 1420TIP3   OH225750   6.414   0.637  15.679 -0.2704  0.2575  0.0452
 1420TIP3    H125751   6.362   0.621  15.601 -1.3457  0.5303  0.6888
 1420TIP3    H225752   6.503   0.613  15.654 -0.3058  1.7194 -1.7370
 1421TIP3   OH225753   1.284   4.432  15.093  0.1736  0.2458 -0.2927
 1421TIP3    H125754   1.369   4.452  15.132  0.5807 -0.5397 -0.7544
 1421TIP3    H225755   1.302   4.365  15.028 -0.5766  1.0930 -1.4333
 1422TIP3   OH225756   6.151   5.717  10.949 -0.1732 -0.0199 -0.3699
 1422TIP3    H125757   6.152   5.803  10.906 -1.2820  0.0999 -0.1845
 1422TIP3    H225758   6.063   5.710  10.987  0.2236 -0.8354  0.4406
 1423TIP3   OH225759   0.175   2.278  10.745  0.1641 -0.3118 -0.0549
 1423TIP3    H125760   0.093   2.234  10.725 -0.8886  1.2103  0.6807
 1423TIP3    H225761   0.236   2.249  10.677 -1.1879 -0.8864 -1.0600
 1424TIP3   OH225762   1.535   2.422   4.703 -0.4837 -0.5580 -0.3326
 1424TIP3    H125763   1.576   2.506   4.721  1.7257 -1.7502  0.7224
 1424TIP3    H225764   1.458   2.419   4.758 -0.7867  0.8870 -0.6503
 1425TIP3   OH225765   5.098   1.029  11.799 -0.0271 -0.2056  0.3005
 1425TIP3    H125766   5.078   0.942  11.763 -0.7942  0.5771 -1.2891
 1425TIP3    H225767   5.193   1.036  11.791  0.1307 -1.1870  1.1609
 1426TIP3   OH225768   0.283   2.826   5.500  0.1293 -0.7020  0.2272
 1426TIP3    H125769   0.352   2.886   5.473 -0.4761 -0.3330 -0.5780
 1426TIP3    H225770   0.227   2.878   5.558 -0.8242 -0.2001 -1.0752
 1427TIP3   OH225771   6.157   2.115   0.629 -0.3791 -0.5758 -0.0588
 1427TIP3    H125772   6.218   2.186   0.645 -0.5165 -0.6086  0.6274
 1427TIP3    H225773   6.105   2.144   0.553  0.7827 -0.7531 -0.9429
 1428TIP3   OH225774   4.727   0.809  16.089  0.2692  0.4350 -0.7521
 1428TIP3    H125775   4.733   0.759  16.007  1.5660  2.1466 -1.7709
 1428TIP3    H225776   4.705   0.898  16.061 -0.4817  0.8057  0.8829
 1429TIP3   OH225777   3.656   4.338   1.858 -0.3773 -0.2315 -0.4631
 1429TIP3    H125778   3.619   4.420   1.823 -0.3332  0.0018  0.0173
 1429TIP3    H225779   3.681   4.361   1.948 -0.0701 -0.6899 -0.4318
 1430TIP3   OH225780   5.817   2.541   1.467  0.5955 -0.3031 -0.1080
 1430TIP3    H125781   5.743   2.578   1.420  1.0996  1.0067  0.1059
 1430TIP3    H225782   5.807   2.446   1.457 -0.0807 -0.0899 -1.6494
 1431TIP3   OH225783   5.717   1.763   4.868 -0.1534  0.2746  0.0008
 1431TIP3    H125784   5.771   1.752   4.946  0.5753  2.6801 -0.0609
 1431TIP3    H225785   5.753   1.701   4.805 -0.5411 -1.4654  1.4297
 1432TIP3   OH225786   5.746   2.461   5.629  0.3928 -0.4286 -0.0843
 1432TIP3    H125787   5.769   2.526   5.696 -2.7556  0.5270  0.2326
 1432TIP3    H225788   5.658   2.433   5.652  1.5716 -4.9814 -0.2175
 1433TIP3   OH225789   1.417   5.489   2.217  1.0061  0.6927  1.1090
 1433TIP3    H125790   1.471   5.449   2.285  1.9316  1.3776  0.8025
 1433TIP3    H225791   1.442   5.443   2.137  0.8034  0.6983  1.0442
 1434TIP3   OH225792   2.678   1.329   0.239 -0.1987  0.0628  0.3448
 1434TIP3    H125793   2.679   1.392   0.311 -1.3289  0.8838 -0.3227
 1434TIP3    H225794   2.692   1.244   0.282  2.8472  0.8128  1.1140
 1435TIP3   OH225795   0.729   4.655  11.237 -0.0626 -0.0814  0.4868
 1435TIP3    H125796   0.733   4.560  11.247 -1.8129 -0.1682  0.5368
 1435TIP3    H225797   0.719   4.669  11.143  0.3549  0.0737  0.4617
 1436TIP3   OH225798   5.963   4.943   3.489 -0.4196 -0.1544 -0.4233
 1436TIP3    H125799   5.933   4.977   3.573 -0.6296  1.6745 -1.2005
 1436TIP3    H225800   5.888   4.895   3.454 -0.8968  0.5093 -0.3173
 1437TIP3   OH225801   3.852   6.477  14.844 -0.2497 -0.3441 -0.7613
 1437TIP3    H125802   3.767   6.491  14.886  0.3453 -0.3549  0.4612
 1437TIP3    H225803   3.845   6.390  14.805 -0.9500 -0.1609 -1.0768
 1438TIP3   OH225804   0.867   1.630  16.876 -0.5778 -0.4244  0.2291
 1438TIP3    H125805   0.773   1.631  16.858 -0.3506 -0.4644 -1.0817
 1438TIP3    H225806   0.885   1.541  16.907 -1.1274 -0.1066  1.5304
 1439TIP3   OH225807   0.613   5.199  11.403 -0.0961 -0.6879 -0.0424
 1439TIP3    H125808   0.662   5.185  11.484 -0.9346  0.8683  0.7727
 1439TIP3    H225809   0.667   5.260  11.352 -0.5147 -0.0681  0.2469
 1440TIP3   OH225810   0.738   6.519  16.582  0.0405 -0.0414  0.2204
 1440TIP3    H125811   0.804   6.464  16.540  0.4241 -0.0087  0.7746
 1440TIP3    H225812   0.736   6.488  16.672  0.2999  0.8991  0.5527
 1441TIP3   OH225813   5.235   0.834  11.961  0.2148 -0.2504  0.4921
 1441TIP3    H125814   5.144   0.864  11.966  0.4020  0.3380  0.5006
 1441TIP3    H225815   5.251   0.796  12.047 -0.0988 -0.5880  0.4052
 1442TIP3   OH225816   2.379   6.352   0.321  0.1383  0.8356  0.2059
 1442TIP3    H125817   2.463   6.357   0.275 -0.7140  0.8363 -1.4040
 1442TIP3    H225818   2.358   6.259   0.322 -1.2806  1.0524 -2.1919
 1443TIP3   OH225819   0.025   4.126   2.843 -0.5336 -0.7511  0.5824
 1443TIP3    H125820   0.067   4.097   2.924  0.1687  2.3968  1.4765
 1443TIP3    H225821  -0.063   4.155   2.871 -0.2837  0.3599  0.2661
 1444TIP3   OH225822   2.385   4.108   2.629  0.0988  0.1832  0.1275
 1444TIP3    H125823   2.328   4.116   2.705  0.4552  0.0639  0.4134
 1444TIP3    H225824   2.328   4.124   2.554 -1.0743 -3.1533  0.1574
 1445TIP3   OH225825   4.384   3.382  15.480  0.2861 -1.1311 -0.0218
 1445TIP3    H125826   4.456   3.429  15.438 -0.6207 -1.5095 -2.1522
 1445TIP3    H225827   4.335   3.449  15.527  1.0650 -0.5786  0.0078
 1446TIP3   OH225828   4.752   6.766   3.498  0.2635  0.4049  0.0223
 1446TIP3    H125829   4.818   6.824   3.462 -0.7741  1.2173 -0.6402
 1446TIP3    H225830   4.701   6.821   3.558  1.2886 -0.6626  1.9334
 1447TIP3   OH225831   5.209   4.063  12.543  0.0091  0.3224 -0.1811
 1447TIP3    H125832   5.291   4.039  12.587 -0.5943 -1.0724  0.2287
 1447TIP3    H225833   5.141   4.045  12.607 -0.5651  3.1677  0.1662
 1448TIP3   OH225834   4.339   1.388  16.472 -0.1775  0.4402  0.2303
 1448TIP3    H125835   4.386   1.323  16.525 -0.3655  0.8751  0.9437
 1448TIP3    H225836   4.309   1.339  16.395 -0.4051 -0.3555  0.8112
 1449TIP3   OH225837   0.131   5.399  14.178 -0.5126 -0.2550 -0.6183
 1449TIP3    H125838   0.184   5.327  14.146  1.6698  0.5672  0.9341
 1449TIP3    H225839   0.107   5.448  14.099 -1.2442 -2.1124 -1.5874
 1450TIP3   OH225840   3.151   4.895  10.738  0.9671 -0.0419 -0.1091
 1450TIP3    H125841   3.162   4.851  10.823 -0.2106  0.1777  0.1718
 1450TIP3    H225842   3.104   4.832  10.684  0.7068  0.2532 -0.2286
 1451TIP3   OH225843   1.500   4.762  12.111  0.3438  0.7503 -1.1152
 1451TIP3    H125844   1.572   4.715  12.069 -0.4059 -0.6578 -0.8863
 1451TIP3    H225845   1.422   4.710  12.090 -0.1548  0.3137  1.4436
 1452TIP3   OH225846   5.926   2.556   5.130 -0.5047  0.1316  0.6029
 1452TIP3    H125847   5.990   2.627   5.135 -0.7543  0.5619 -1.5814
 1452TIP3    H225848   5.895   2.545   5.220  1.2553  1.1755  1.3811
 1453TIP3   OH225849   0.990   3.110  10.656 -0.2656  0.3175 -0.2066
 1453TIP3    H125850   0.912   3.152  10.620 -0.6527  0.5650  0.8964
 1453TIP3    H225851   0.966   3.086  10.745  0.9875  0.6022  0.2248
 1454TIP3   OH225852   0.291   5.478   5.463 -0.0165  0.3056 -0.4581
 1454TIP3    H125853   0.209   5.442   5.498  0.1571 -0.9748 -1.3063
 1454TIP3    H225854   0.349   5.483   5.540 -0.7563  0.8568  0.0769
 1455TIP3   OH225855   2.688   4.858   0.623  0.1952  0.1350 -0.3192
 1455TIP3    H125856   2.619   4.817   0.675 -0.1449  0.7212 -0.3027
 1455TIP3    H225857   2.736   4.784   0.585 -0.2640 -0.2824 -0.1005
 1456TIP3   OH225858   5.927   2.471  14.253  0.6076  0.5202  1.0114
 1456TIP3    H125859   5.881   2.443  14.332  0.2336  1.3798  1.1140
 1456TIP3    H225860   5.858   2.478  14.187  1.1237 -1.6400  0.1729
 1457TIP3   OH225861   2.080   6.364  16.003  0.0299  0.0979 -0.5638
 1457TIP3    H125862   2.020   6.437  16.021 -0.9281 -0.7069 -0.4220
 1457TIP3    H225863   2.127   6.391  15.924 -1.9631 -0.1081 -1.8710
 1458TIP3   OH225864   4.434   0.328  13.678 -0.5535  0.0549 -0.5938
 1458TIP3    H125865   4.449   0.345  13.585  0.8743 -1.4815 -0.6958
 1458TIP3    H225866   4.414   0.413  13.715 -0.9264  0.7398 -2.2634
 1459TIP3   OH225867   3.095   6.308  10.951  0.1762 -0.3623 -0.5335
 1459TIP3    H125868   3.161   6.239  10.955  0.3929 -0.3454 -2.5513
 1459TIP3    H225869   3.145   6.389  10.942  0.0278  0.5050  4.1681
 1460TIP3   OH225870   2.020   6.290   3.783 -0.3478 -0.7125  0.0606
 1460TIP3    H125871   2.004   6.368   3.730  0.5582  0.3092  1.2085
 1460TIP3    H225872   2.046   6.324   3.869 -1.2684 -2.2995  1.0235
 1461TIP3   OH225873   1.097   5.241  15.141 -0.0036  0.1356 -0.8307
 1461TIP3    H125874   1.077   5.310  15.078 -0.2266  0.9153  0.0598
 1461TIP3    H225875   1.062   5.274  15.224  1.0922 -0.4443 -0.1124
 1462TIP3   OH225876   0.302   1.525  11.289 -0.2314 -0.2569 -0.1904
 1462TIP3    H125877   0.208   1.507  11.285 -0.2338 -0.3845  0.4050
 1462TIP3    H225878   0.311   1.594  11.354  0.0514  0.0216 -0.5219
 1463TIP3   OH225879   1.965   6.145  10.204 -0.0727  0.4562  0.3311
 1463TIP3    H125880   1.894   6.099  10.248 -0.9271  0.5914 -0.8432
 1463TIP3    H225881   1.993   6.086  10.134  1.4725  0.1074  1.2083
 1464TIP3   OH225882   2.767   1.443  11.954  0.0074 -0.8025  0.1132
 1464TIP3    H125883   2.860   1.419  11.953  0.4312  0.6909  0.9195
 1464TIP3    H225884   2.725   1.371  12.002  0.9948 -0.7399  1.1263
 1465TIP3   OH225885   1.516   4.071   5.079  0.2765  0.0850 -0.1529
 1465TIP3    H125886   1.524   3.989   5.128 -0.8622 -0.2712 -0.5387
 1465TIP3    H225887   1.423   4.079   5.059  0.3362  1.5927  0.0548
 1466TIP3   OH225888   1.927   3.412   2.345 -0.3068  0.0061 -0.5400
 1466TIP3    H125889   1.969   3.361   2.276 -3.1195 -2.5648 -0.5421
 1466TIP3    H225890   1.861   3.464   2.299 -2.1563 -1.6766  0.0632
 1467TIP3   OH225891   4.419   6.526   0.911  0.2354  0.1608 -0.2279
 1467TIP3    H125892   4.409   6.554   1.002  0.9208 -0.2950 -0.0055
 1467TIP3    H225893   4.357   6.453   0.901  0.3842  0.0092 -0.0382
 1468TIP3   OH225894   4.805   4.002   2.282  0.2336 -0.0319 -0.6549
 1468TIP3    H125895   4.814   4.093   2.254 -0.6878  0.8353  1.6428
 1468TIP3    H225896   4.874   3.955   2.234  1.7061  2.1237 -0.7772
 1469TIP3   OH225897   3.482   5.903   1.741  0.0028 -0.5510  0.1860
 1469TIP3    H125898   3.542   5.842   1.696  0.7585  1.0632 -1.0964
 1469TIP3    H225899   3.404   5.904   1.686  0.9730  1.5155 -1.2553
 1470TIP3   OH225900   2.527   5.355  12.990 -0.6457 -0.2192 -0.1911
 1470TIP3    H125901   2.576   5.277  12.965 -1.5092 -1.2697  1.2930
 1470TIP3    H225902   2.513   5.402  12.907  1.6538 -0.5580 -0.8325
 1471TIP3   OH225903   4.046   1.472   1.931  0.4555  0.2365 -0.1270
 1471TIP3    H125904   3.955   1.498   1.940 -0.3289 -2.0704 -0.6750
 1471TIP3    H225905   4.064   1.478   1.837  0.1975 -1.2654 -0.2897
 1472TIP3   OH225906   4.329   0.490  13.285 -0.4875  0.0484  0.1285
 1472TIP3    H125907   4.301   0.507  13.375  0.0843  1.1599  0.1107
 1472TIP3    H225908   4.255   0.521  13.231  0.1151  1.5903  0.1418
 1473TIP3   OH225909   5.138   4.425   4.838 -0.1518  0.5844 -0.1047
 1473TIP3    H125910   5.070   4.386   4.894  0.5947 -1.8581 -0.7923
 1473TIP3    H225911   5.148   4.364   4.765  2.4732  1.0676 -0.2555
 1474TIP3   OH225912   1.525   2.743  11.301 -0.7945  0.5442 -0.3448
 1474TIP3    H125913   1.494   2.811  11.242  0.0315  0.6801 -0.6411
 1474TIP3    H225914   1.596   2.785  11.350  0.6660 -0.4853 -1.4999
 1475TIP3   OH225915   0.987   6.458   9.842  0.0765 -0.1166 -0.3826
 1475TIP3    H125916   1.043   6.510   9.784  0.7121 -0.1751  0.1751
 1475TIP3    H225917   0.899   6.495   9.829  0.5550  1.3516  0.2523
 1476TIP3   OH225918   0.246   2.172  14.645  0.8809 -0.2759 -0.1403
 1476TIP3    H125919   0.313   2.233  14.616  0.8468  0.8293  1.9033
 1476TIP3    H225920   0.163   2.215  14.623  0.8382 -0.4719 -0.3745
 1477TIP3   OH225921   6.509   6.765  11.270  0.0464 -0.2224 -0.1847
 1477TIP3    H125922   6.422   6.727  11.267  0.8472 -2.3711  1.2365
 1477TIP3    H225923   6.553   6.732  11.191 -0.6886  1.7535 -1.4922
 1478TIP3   OH225924   2.800   4.757  10.618 -0.2218  0.4345  0.1502
 1478TIP3    H125925   2.793   4.807  10.537 -1.1972 -1.2490 -0.8705
 1478TIP3    H225926   2.866   4.690  10.600  0.4496  0.7768  1.1938
 1479TIP3   OH225927   5.550   5.876   1.139  0.6153  0.5562  0.1008
 1479TIP3    H125928   5.560   5.970   1.123  0.4753  0.4807 -0.4666
 1479TIP3    H225929   5.639   5.843   1.151  0.7270  0.6224 -0.5359
 1480TIP3   OH225930   5.279   1.516  12.703  0.1973  0.0643  0.5317
 1480TIP3    H125931   5.314   1.427  12.694 -0.9147 -0.3537  0.1782
 1480TIP3    H225932   5.192   1.504  12.740  0.4772  1.0985  1.6153
 1481TIP3   OH225933   6.537   1.511  16.300 -0.2541  0.2000  0.6333
 1481TIP3    H125934   6.604   1.449  16.270 -0.6012 -0.7752  1.7807
 1481TIP3    H225935   6.490   1.464  16.369 -1.0974  1.4453  0.9456
 1482TIP3   OH225936   1.860   6.743  12.393  0.2267  0.2238  0.0743
 1482TIP3    H125937   1.784   6.741  12.451 -0.3238 -1.3638 -0.6490
 1482TIP3    H225938   1.913   6.668  12.420 -0.1080 -0.6318 -1.5275
 1483TIP3   OH225939   3.876   1.540  11.967  0.0097  0.2178  0.0785
 1483TIP3    H125940   3.822   1.504  12.037  0.8148  0.8624  1.0544
 1483TIP3    H225941   3.851   1.490  11.889 -1.9293  0.4536  0.5082
 1484TIP3   OH225942   4.286   4.181   1.616 -0.1396  0.5125  0.7033
 1484TIP3    H125943   4.355   4.123   1.645 -0.1288  0.2492  0.1696
 1484TIP3    H225944   4.226   4.187   1.690  0.6248  1.0180  1.2872
 1485TIP3   OH225945   1.285   5.687   2.573 -0.4050  0.3601 -0.4160
 1485TIP3    H125946   1.281   5.592   2.585  1.5562  0.2794 -0.0466
 1485TIP3    H225947   1.194   5.715   2.574 -0.9612 -1.3135  1.2529
 1486TIP3   OH225948   0.346   4.336   3.871 -0.2314  0.5512  0.2586
 1486TIP3    H125949   0.397   4.255   3.865  0.5606  1.0321  0.3346
 1486TIP3    H225950   0.379   4.390   3.799 -0.9583  0.6959  0.0294
 1487TIP3   OH225951   1.900   3.955  13.762  0.5541 -0.2464 -0.5938
 1487TIP3    H125952   1.928   4.016  13.694  0.9922  0.3820  0.1405
 1487TIP3    H225953   1.978   3.940  13.815  0.4835 -1.5338 -0.8137
 1488TIP3   OH225954   2.475   0.297  16.723 -0.6485 -0.4658  0.0802
 1488TIP3    H125955   2.435   0.231  16.666  0.5755 -1.0379 -0.1424
 1488TIP3    H225956   2.568   0.277  16.722 -0.5881 -0.5074  2.3385
 1489TIP3   OH225957   3.369   0.217   5.108 -0.3662  0.0941  0.1852
 1489TIP3    H125958   3.300   0.214   5.174  0.0784 -1.1412  0.6251
 1489TIP3    H225959   3.416   0.134   5.119  2.1311  1.4850  0.9399
 1490TIP3   OH225960   2.224   3.268  11.045  0.6436 -0.5907 -0.4594
 1490TIP3    H125961   2.162   3.340  11.036 -1.2054 -1.9679  0.5182
 1490TIP3    H225962   2.285   3.298  11.112  0.6282  0.5233 -0.9209
 1491TIP3   OH225963   5.290   5.435   5.667  0.8821  0.3000  0.2928
 1491TIP3    H125964   5.203   5.396   5.670  0.6765  0.7259 -0.0755
 1491TIP3    H225965   5.350   5.360   5.668  0.4738 -0.1582 -2.1903
 1492TIP3   OH225966   1.864   2.511  13.310  0.2678  0.0882 -0.3178
 1492TIP3    H125967   1.818   2.433  13.280 -0.5971  0.6804 -0.5412
 1492TIP3    H225968   1.819   2.584  13.268 -0.3748  0.8824  1.6362
 1493TIP3   OH225969   3.449   3.174   2.605 -0.6140  0.2977 -0.3041
 1493TIP3    H125970   3.443   3.233   2.680 -0.3166  0.3994 -0.3573
 1493TIP3    H225971   3.458   3.232   2.529 -0.5288  0.1884 -0.3787
 1494TIP3   OH225972   5.714   3.427  15.478 -0.1303  0.3881 -0.2098
 1494TIP3    H125973   5.689   3.514  15.509 -0.6815  0.2339 -0.2097
 1494TIP3    H225974   5.639   3.397  15.427 -0.0263 -0.1694 -0.0441
 1495TIP3   OH225975   3.306   3.534  12.255  0.3816  0.2359 -0.2182
 1495TIP3    H125976   3.216   3.504  12.244  1.0752 -2.2049  0.0075
 1495TIP3    H225977   3.311   3.565  12.345  0.0672 -0.9887  0.2470
 1496TIP3   OH225978   2.679   1.695   0.876 -0.6042  0.1687 -0.0962
 1496TIP3    H125979   2.743   1.724   0.941  0.0453  0.2443 -0.7619
 1496TIP3    H225980   2.696   1.601   0.865 -2.3562 -0.4403  1.6638
 1497TIP3   OH225981   0.917   6.419   0.329  0.4092 -0.6207 -0.2244
 1497TIP3    H125982   0.961   6.504   0.326 -0.5424 -0.1116 -0.1668
 1497TIP3    H225983   0.855   6.420   0.256  2.2401 -2.3610 -1.9413
 1498TIP3   OH225984   0.980   2.206   1.833  0.1075 -0.4180 -0.1999
 1498TIP3    H125985   0.947   2.294   1.849 -0.1705 -0.5254 -0.1811
 1498TIP3    H225986   0.938   2.152   1.900 -0.0667 -0.6431 -0.4899
 1499TIP3   OH225987   5.448   2.643   3.583  0.4658 -0.2343 -0.0442
 1499TIP3    H125988   5.500   2.649   3.663 -1.0721  0.5235  0.9692
 1499TIP3    H225989   5.442   2.733   3.552  0.9576 -0.5146 -0.9639
 1500TIP3   OH225990   2.426   2.011   4.997  0.3680 -0.0528 -0.2076
 1500TIP3    H125991   2.484   2.032   5.070  0.0738  3.4734 -0.8321
 1500TIP3    H225992   2.476   2.032   4.919 -0.3987 -0.7497 -0.9050
 1501TIP3   OH225993   2.301   6.381   2.880  0.0392 -0.0187 -0.0639
 1501TIP3    H125994   2.214   6.363   2.915 -0.5992  0.4664 -1.3305
 1501TIP3    H225995   2.346   6.426   2.951 -0.5707 -0.7064  0.7804
 1502TIP3   OH225996   6.024   0.180   2.452 -0.4811  0.4081  0.0638
 1502TIP3    H125997   6.104   0.129   2.458 -0.8744 -0.1243  0.9652
 1502TIP3    H225998   6.053   0.269   2.434  0.3378  0.3038  0.8250
 1503TIP3   OH225999   1.297   2.226  16.828  0.5449  0.1923  0.4091
 1503TIP3    H126000   1.262   2.248  16.742  0.6057  0.1975  0.3862
 1503TIP3    H226001   1.233   2.259  16.890 -0.1163 -0.9191  0.3440
 1504TIP3   OH226002   1.896   2.691   5.579 -0.4795 -0.0930 -0.4224
 1504TIP3    H126003   1.882   2.779   5.545 -0.7069 -0.2300 -0.6825
 1504TIP3    H226004   1.971   2.658   5.530 -0.7060 -0.2302 -0.6755
 1505TIP3   OH226005   5.434   1.873  13.371 -0.6554 -0.5179 -0.2062
 1505TIP3    H126006   5.386   1.793  13.393  0.2097 -0.9961 -0.0125
 1505TIP3    H226007   5.487   1.891  13.448  0.2061 -0.5598 -0.7692
 1506TIP3   OH226008   2.142   5.602   3.122 -0.2921  0.0014  0.2487
 1506TIP3    H126009   2.121   5.554   3.042  0.4562 -1.8991  1.1253
 1506TIP3    H226010   2.173   5.534   3.183  1.5584  1.6959  1.3106
 1507TIP3   OH226011   4.146   1.629  13.066  0.0753  0.5168 -0.1282
 1507TIP3    H126012   4.192   1.580  13.134  0.8415 -0.1826 -1.1120
 1507TIP3    H226013   4.111   1.706  13.111  2.5386  1.2950  0.6396
 1508TIP3   OH226014   3.865   6.216   3.227 -0.2542  0.1970 -0.1396
 1508TIP3    H126015   3.825   6.137   3.264 -1.3371  0.5001 -0.6128
 1508TIP3    H226016   3.953   6.218   3.264  0.5938 -2.3969 -1.7055
 1509TIP3   OH226017   6.895   6.829  10.904  0.0735 -0.0640  0.3159
 1509TIP3    H126018   6.881   6.801  10.814  0.6347  0.2419  0.1290
 1509TIP3    H226019   6.806   6.836  10.941 -0.2780  1.4221 -0.7052
 1510TIP3   OH226020   4.620   1.921   5.816 -0.1023 -0.0622 -0.2096
 1510TIP3    H126021   4.647   2.002   5.859 -1.2744  0.0527  0.3580
 1510TIP3    H226022   4.699   1.866   5.817  0.8066  1.1797 -0.9096
 1511TIP3   OH226023   5.913   4.829   1.021  0.0749 -0.4326  0.3463
 1511TIP3    H126024   5.952   4.769   0.958 -0.2666  0.4755 -0.7608
 1511TIP3    H226025   5.892   4.907   0.970 -0.4028  0.2479  1.5470
 1512TIP3   OH226026   1.654   0.998   3.984 -0.0261  0.3036 -0.0363
 1512TIP3    H126027   1.723   0.951   4.032 -0.4678  0.4265  0.7370
 1512TIP3    H226028   1.593   1.027   4.052 -0.2919  1.1189 -0.6091
 1513TIP3   OH226029   2.680   5.718   0.234  0.0504 -0.1096  0.0600
 1513TIP3    H126030   2.634   5.755   0.309  0.8679  0.5188  0.2622
 1513TIP3    H226031   2.664   5.779   0.162  0.0910 -0.1936 -0.0218
 1514TIP3   OH226032   1.756   5.426   3.348 -0.0433  0.4211  0.1237
 1514TIP3    H126033   1.696   5.359   3.315  1.7201 -0.9361 -0.4985
 1514TIP3    H226034   1.699   5.497   3.377 -1.9567 -0.9825  0.0081
 1515TIP3   OH226035   2.986   3.333   5.219 -0.2017  0.1077  0.1768
 1515TIP3    H126036   2.940   3.251   5.236  1.5708 -0.9787 -0.0364
 1515TIP3    H226037   3.012   3.328   5.127 -1.0420  1.4532 -0.1728
 1516TIP3   OH226038   1.104   6.829   3.343  1.0673  0.1536 -0.3282
 1516TIP3    H126039   1.010   6.817   3.331  1.0850 -0.3883  0.0365
 1516TIP3    H226040   1.126   6.773   3.418  1.9262 -0.8108 -1.2773
 1517TIP3   OH226041   2.286   1.997   5.589 -0.0816 -0.3962 -0.2408
 1517TIP3    H126042   2.219   2.048   5.634  0.7912  1.5075 -1.0267
 1517TIP3    H226043   2.317   1.934   5.654  0.2857  1.4498  1.4248
 1518TIP3   OH226044   0.134   6.313   0.193  0.5239 -0.6194 -0.6946
 1518TIP3    H126045   0.091   6.330   0.277  1.8106  1.5152 -0.3808
 1518TIP3    H226046   0.070   6.263   0.143 -1.1562 -0.0548  0.7641
 1519TIP3   OH226047   2.429   1.524   1.734 -0.3414  0.6693  0.0901
 1519TIP3    H126048   2.449   1.613   1.705 -0.5327  0.7229  0.1196
 1519TIP3    H226049   2.344   1.532   1.779  0.1512  0.6605  1.0370
 1520TIP3   OH226050   1.259   5.018  15.363 -0.2607  0.0273 -0.7825
 1520TIP3    H126051   1.179   5.056  15.399  0.8425  1.8154 -0.0402
 1520TIP3    H226052   1.283   4.949  15.425 -0.4375  0.5173 -0.1476
 1521TIP3   OH226053   6.356   6.234  16.800  0.5719  0.0799  0.1011
 1521TIP3    H126054   6.282   6.273  16.847  1.3759  1.0072  0.6374
 1521TIP3    H226055   6.318   6.160  16.752 -0.7935  0.8255 -0.0239
 1522TIP3   OH226056   0.481   6.808   1.231  0.1778  0.0874  0.2460
 1522TIP3    H126057   0.422   6.881   1.215  0.0324  0.2030  1.2398
 1522TIP3    H226058   0.531   6.833   1.309  0.0792 -0.8789  0.6424
 1523TIP3   OH226059   5.983   1.510  14.475  0.1199  0.0233 -0.6970
 1523TIP3    H126060   5.993   1.415  14.471  1.0489  0.0748  0.0789
 1523TIP3    H226061   5.982   1.538  14.384  1.8169 -0.5487 -0.9135
 1524TIP3   OH226062   3.622   2.057  15.474 -0.2546  0.2885 -0.3282
 1524TIP3    H126063   3.578   2.004  15.540  0.2042  0.9888  0.5564
 1524TIP3    H226064   3.588   2.024  15.391 -0.3897 -1.0202  0.2145
 1525TIP3   OH226065   5.439   0.643   0.365  0.2127  0.1419  0.4079
 1525TIP3    H126066   5.401   0.598   0.440  1.4280  0.5675  1.3177
 1525TIP3    H226067   5.532   0.652   0.386  0.3885  1.2331 -0.6588
 1526TIP3   OH226068   0.152   1.113  14.313 -0.0395 -0.1127 -0.4935
 1526TIP3    H126069   0.238   1.136  14.279  0.0264 -0.9621 -0.9239
 1526TIP3    H226070   0.167   1.090  14.405  0.2964 -0.8263 -0.7210
 1527TIP3   OH226071   3.177   6.893   2.896  0.9392 -0.2519  0.0716
 1527TIP3    H126072   3.196   6.799   2.898  0.8801 -0.2645  1.7729
 1527TIP3    H226073   3.259   6.934   2.869  1.2736 -0.7430  0.3187
 1528TIP3   OH226074   4.008   0.758  16.490  0.5726  0.4638  0.1731
 1528TIP3    H126075   3.929   0.793  16.448  0.6222 -1.1076 -1.3321
 1528TIP3    H226076   3.985   0.753  16.583 -1.5505 -1.0309 -0.3635
 1529TIP3   OH226077   1.482   1.775  14.647  0.7013  0.6340  0.2285
 1529TIP3    H126078   1.530   1.708  14.598 -1.6627 -0.5477 -0.6306
 1529TIP3    H226079   1.453   1.838  14.581 -0.7038  0.1605  0.3507
 1530TIP3   OH226080   5.767   0.025  14.410 -0.6012  0.2338  0.2120
 1530TIP3    H126081   5.816  -0.033  14.352 -1.3397  0.0684 -0.2615
 1530TIP3    H226082   5.767   0.110  14.366  0.6571  0.6751  1.0044
 1531TIP3   OH226083   5.942   3.610   0.519 -0.1756 -0.2441  0.6550
 1531TIP3    H126084   5.907   3.677   0.579  0.3235  0.4287  0.2189
 1531TIP3    H226085   5.891   3.622   0.438 -0.7437 -1.0457  0.8907
 1532TIP3   OH226086   3.382   2.935   1.734  0.1405 -0.1743 -0.4469
 1532TIP3    H126087   3.460   2.977   1.771 -0.1972  1.4931 -1.4925
 1532TIP3    H226088   3.309   2.980   1.778 -0.2432 -1.0224 -0.2067
 1533TIP3   OH226089   4.326   4.197  13.451  0.4327  0.1718  0.0533
 1533TIP3    H126090   4.232   4.216  13.456  0.1492 -0.4178 -1.9838
 1533TIP3    H226091   4.343   4.140  13.526 -1.2817 -1.2979 -0.6121
 1534TIP3   OH226092   5.604   4.377   1.828  0.4759  0.5163 -0.0651
 1534TIP3    H126093   5.569   4.289   1.838 -0.2968  0.8154 -0.1019
 1534TIP3    H226094   5.669   4.385   1.898 -1.5079  0.9384  1.7998
 1535TIP3   OH226095   1.512   2.092   5.532  0.1248 -0.1755  0.1486
 1535TIP3    H126096   1.571   2.105   5.606  0.9679  2.1056 -0.8342
 1535TIP3    H226097   1.432   2.139   5.556 -0.5565 -1.4772  0.5716
 1536TIP3   OH226098   3.843   0.654  14.716  0.0157 -0.3584  0.3010
 1536TIP3    H126099   3.803   0.714  14.653  1.5607  1.4487  0.9331
 1536TIP3    H226100   3.937   0.669  14.706  0.4374 -2.4388  0.7645
 1537TIP3   OH226101   0.498   3.710   5.971  0.2537 -0.0363 -0.6216
 1537TIP3    H126102   0.545   3.638   5.930  0.5901  0.4618 -1.1249
 1537TIP3    H226103   0.561   3.782   5.972 -0.1552  0.3211 -0.3420
 1538TIP3   OH226104   5.902   1.065  10.537  0.0534 -0.3546  1.0044
 1538TIP3    H126105   5.964   1.019  10.480  2.2754  1.1228  2.0877
 1538TIP3    H226106   5.889   1.150  10.494 -3.0478 -1.3809 -0.3476
 1539TIP3   OH226107   2.800   1.392   6.261 -0.6684 -0.0368 -0.4431
 1539TIP3    H126108   2.850   1.317   6.294 -0.9555  0.4311  1.1268
 1539TIP3    H226109   2.722   1.353   6.221 -0.2895 -0.6376 -0.6034
 1540TIP3   OH226110   6.663   0.398   2.919  0.1143  0.1588 -0.0916
 1540TIP3    H126111   6.570   0.419   2.919  0.2968  1.0608  1.0187
 1540TIP3    H226112   6.701   0.458   2.855  0.1032  0.7074  0.4040
 1541TIP3   OH226113   2.581   5.906  16.148  0.2954  0.1349 -0.0296
 1541TIP3    H126114   2.598   5.945  16.233  1.5771 -1.7953  0.6591
 1541TIP3    H226115   2.486   5.906  16.140  0.1418  4.4709 -0.6885
 1542TIP3   OH226116   6.415   4.463  11.787 -0.2586  0.6645 -0.2001
 1542TIP3    H126117   6.372   4.512  11.717 -0.5259  0.8115  0.0641
 1542TIP3    H226118   6.361   4.384  11.796  0.4007  0.1194 -0.9016
 1543TIP3   OH226119   0.200   3.262  12.416 -0.4112 -0.2853  0.2071
 1543TIP3    H126120   0.292   3.238  12.422 -0.1104  0.9504  0.9523
 1543TIP3    H226121   0.153   3.181  12.437  0.5489 -0.4438  1.9469
 1544TIP3   OH226122   2.201   2.866   2.239 -0.4360 -0.0129 -0.3650
 1544TIP3    H126123   2.148   2.815   2.300 -0.6324 -2.0822 -2.1597
 1544TIP3    H226124   2.201   2.955   2.276 -2.1542 -0.7309  1.5606
 1545TIP3   OH226125   0.231   0.587   0.110  0.6143 -0.2397 -0.3155
 1545TIP3    H126126   0.326   0.595   0.098  0.3744  1.9477 -1.3510
 1545TIP3    H226127   0.202   0.677   0.127 -1.4427 -0.6329 -1.4735
 1546TIP3   OH226128   2.070   4.718  14.065  0.4372 -0.1624 -0.2587
 1546TIP3    H126129   2.107   4.714  14.153  0.9398 -1.5857 -0.5124
 1546TIP3    H226130   1.976   4.728  14.079  0.7669  4.1283  0.4046
 1547TIP3   OH226131   3.999   2.773   2.498 -0.1513  0.0240  0.4087
 1547TIP3    H126132   3.921   2.785   2.443 -0.0820 -2.4764 -0.3551
 1547TIP3    H226133   4.071   2.808   2.445 -0.3283 -0.7417 -0.3664
 1548TIP3   OH226134   0.376   3.566  13.239  0.4266  0.8199 -0.2186
 1548TIP3    H126135   0.316   3.550  13.311  0.5237  0.8783 -0.1242
 1548TIP3    H226136   0.462   3.539  13.273  0.3003 -0.2592 -0.6976
 1549TIP3   OH226137   2.978   2.867   3.975 -0.1649  0.0189 -0.5934
 1549TIP3    H126138   2.894   2.837   3.941 -0.9534  0.7230  0.6486
 1549TIP3    H226139   3.010   2.794   4.029  0.9712 -1.0007 -2.5222
 1550TIP3   OH226140   5.808   0.323   0.794 -0.5265 -0.4835  0.5040
 1550TIP3    H126141   5.819   0.326   0.699  0.8365  0.2894  0.6721
 1550TIP3    H226142   5.726   0.370   0.810 -1.1907 -1.3241 -0.3347
 1551TIP3   OH226143   6.699   1.414   2.141 -0.1649  0.1133  0.0692
 1551TIP3    H126144   6.692   1.406   2.236 -1.2146 -0.9017 -0.0646
 1551TIP3    H226145   6.611   1.439   2.112  0.5763  2.2721 -0.5115
 1552TIP3   OH226146   0.156   0.193   1.480  0.3471 -0.0972 -0.1037
 1552TIP3    H126147   0.236   0.144   1.503 -0.2077 -1.0893 -0.2082
 1552TIP3    H226148   0.087   0.148   1.530  0.0353  1.5994  1.0669
 1553TIP3   OH226149   5.002   2.104  14.081  0.2324 -0.0903  0.1008
 1553TIP3    H126150   5.074   2.132  14.025 -0.9369  0.1785 -1.3285
 1553TIP3    H226151   4.924   2.111  14.025 -0.6588 -2.2311  0.9798
 1554TIP3   OH226152   5.997   5.991  14.346  0.4257 -0.2738  0.1001
 1554TIP3    H126153   6.034   5.958  14.428 -0.9974  2.6522  2.0837
 1554TIP3    H226154   6.044   6.072  14.329  0.2096 -0.4847 -1.6560
 1555TIP3   OH226155   5.667   3.378   5.535 -0.5585  0.4246 -0.6058
 1555TIP3    H126156   5.690   3.468   5.558 -0.7800  0.5038 -0.6915
 1555TIP3    H226157   5.649   3.335   5.618  0.0172  0.3306 -0.5298
 1556TIP3   OH226158   4.117   0.108  16.594 -0.4537  0.4680 -0.2454
 1556TIP3    H126159   4.138   0.098  16.501  0.0524  1.5123 -0.2581
 1556TIP3    H226160   4.043   0.049  16.608 -0.7848  0.5821 -1.4053
 1557TIP3   OH226161   2.771   0.113  16.118 -0.2260 -0.3445 -0.1403
 1557TIP3    H126162   2.831   0.062  16.064  0.0994  1.7907 -1.9188
 1557TIP3    H226163   2.715   0.159  16.056 -0.5557  1.3895  1.3353
 1558TIP3   OH226164   1.381   2.936  15.460  0.3585 -0.0623 -0.0684
 1558TIP3    H126165   1.354   3.019  15.497  1.0795 -0.7969  2.2719
 1558TIP3    H226166   1.301   2.898  15.424 -0.1227  1.2398 -0.4334
 1559TIP3   OH226167   6.053   5.384  16.474 -0.4982 -0.0351  0.2462
 1559TIP3    H126168   6.025   5.347  16.390 -1.3715 -0.7909  0.8551
 1559TIP3    H226169   6.108   5.459  16.449 -2.4409  1.0751 -1.0176
 1560TIP3   OH226170   6.064   3.583  14.153 -0.5881  0.0995  0.3147
 1560TIP3    H126171   6.011   3.547  14.083 -0.8229  0.6929  0.1776
 1560TIP3    H226172   6.055   3.678  14.144 -0.8604  0.1860  1.3286
 1561TIP3   OH226173   5.353   3.812   0.104  0.0459  0.5547 -0.1119
 1561TIP3    H126174   5.313   3.862   0.175 -0.0157  0.6883 -0.2407
 1561TIP3    H226175   5.343   3.867   0.027  1.7125  1.2047  0.1066
 1562TIP3   OH226176   0.662   1.770   0.849  0.1099 -0.0889 -0.3197
 1562TIP3    H126177   0.671   1.786   0.943  1.5616 -0.8280 -0.2962
 1562TIP3    H226178   0.636   1.678   0.843  1.0491 -0.3474 -0.6467
 1563TIP3   OH226179   1.098   2.280  15.413  0.0842  0.0185 -0.3950
 1563TIP3    H126180   1.037   2.219  15.372 -0.9511  1.8401 -1.7459
 1563TIP3    H226181   1.045   2.359  15.429  2.0986  1.7718 -1.8917
 1564TIP3   OH226182   1.161   5.993  12.733 -0.2367 -0.1831 -0.0230
 1564TIP3    H126183   1.238   6.051  12.731 -0.4905  0.4073  2.7126
 1564TIP3    H226184   1.197   5.906  12.750 -0.1014  0.3007  2.7500
 1565TIP3   OH226185   3.371   4.964   5.645 -0.3893  0.0428 -0.1163
 1565TIP3    H126186   3.420   4.890   5.680  0.6161  1.1514  0.9045
 1565TIP3    H226187   3.287   4.961   5.690  0.1338  0.2553  0.9146
 1566TIP3   OH226188   3.847   1.221   4.551  0.4460  0.1470 -0.0695
 1566TIP3    H126189   3.813   1.168   4.479 -0.5206  1.1109 -0.3524
 1566TIP3    H226190   3.941   1.202   4.552 -0.0760 -3.1249  1.1717
 1567TIP3   OH226191   1.432   0.577  16.399 -0.3038 -0.1113 -0.3857
 1567TIP3    H126192   1.423   0.506  16.336 -2.4966  0.7200 -1.1159
 1567TIP3    H226193   1.427   0.657  16.346  1.7613  0.6535  0.4496
 1568TIP3   OH226194   1.165   6.856   1.100  0.5449  0.1347  0.4474
 1568TIP3    H126195   1.252   6.865   1.137  0.3623  2.2923  0.5323
 1568TIP3    H226196   1.108   6.904   1.161 -0.8075 -1.6222  0.6503
 1569TIP3   OH226197   4.134   3.275   4.123  0.2522 -0.7101 -0.2387
 1569TIP3    H126198   4.148   3.296   4.031  0.7380  2.8179  0.5039
 1569TIP3    H226199   4.045   3.305   4.142 -0.1044 -2.0302  0.3526
 1570TIP3   OH226200   6.179   3.365  13.183  0.2724 -0.1488 -0.4350
 1570TIP3    H126201   6.106   3.305  13.196  0.0499 -0.1028 -1.4224
 1570TIP3    H226202   6.150   3.448  13.222 -0.9412  0.3925 -2.3692
 1571TIP3   OH226203   4.051   5.827   2.202 -0.3625  0.3042  0.4674
 1571TIP3    H126204   4.098   5.759   2.154 -0.8979  1.2505 -1.4643
 1571TIP3    H226205   3.978   5.781   2.243 -1.3447 -0.1627 -1.6940
 1572TIP3   OH226206   3.347   5.299  15.664  0.1261  0.0945  0.0527
 1572TIP3    H126207   3.426   5.247  15.649 -0.3733 -0.4678 -0.6674
 1572TIP3    H226208   3.275   5.238  15.651 -0.4568  0.7945 -0.0646
 1573TIP3   OH226209   0.615   0.004   1.647 -0.0479  0.0967  0.1164
 1573TIP3    H126210   0.619   0.072   1.579  1.0622  0.0537  0.1188
 1573TIP3    H226211   0.649   0.046   1.726  1.2138 -0.5980 -0.0210
 1574TIP3   OH226212   6.855   0.505   5.315 -0.3346  0.6324  0.1229
 1574TIP3    H126213   6.925   0.441   5.306 -0.7898  0.4059 -2.8595
 1574TIP3    H226214   6.897   0.584   5.348  1.0026 -0.0044 -0.0259
 1575TIP3   OH226215   2.008   1.061   1.728  0.0551 -0.0108  0.2612
 1575TIP3    H126216   2.094   1.025   1.749 -0.7238 -1.7810  0.5559
 1575TIP3    H226217   2.012   1.079   1.634  0.6033 -0.4576  0.1931
 1576TIP3   OH226218   2.626   2.295   6.659 -0.4417 -0.3148  0.5660
 1576TIP3    H126219   2.678   2.271   6.736 -0.8023  0.2703  1.0040
 1576TIP3    H226220   2.688   2.338   6.601 -0.1408 -0.8605  0.4756
 1577TIP3   OH226221   1.324   5.910  11.731  0.3942  0.0623  0.3619
 1577TIP3    H126222   1.369   5.982  11.776  0.8210  0.0735 -0.0606
 1577TIP3    H226223   1.395   5.854  11.700  0.1342  0.1564 -0.4437
 1578TIP3   OH226224   1.066   4.716  15.996  0.4142  0.0861 -0.7005
 1578TIP3    H126225   1.097   4.631  16.026  0.3935  0.0762 -0.7069
 1578TIP3    H226226   0.990   4.697  15.942  0.3044  0.1207 -0.5594
 1579TIP3   OH226227   0.223   6.738  12.006  0.0188  0.9795 -0.0404
 1579TIP3    H126228   0.164   6.663  12.007  0.9809  0.1896 -0.7348
 1579TIP3    H226229   0.198   6.787  11.927  0.7001  0.2935 -0.6941
 1580TIP3   OH226230   4.005   0.180   5.283 -0.2931  0.8802  0.3221
 1580TIP3    H126231   4.063   0.106   5.268 -2.3520 -0.7057 -0.1634
 1580TIP3    H226232   3.992   0.219   5.197 -0.5571  0.7682  0.3117
 1581TIP3   OH226233   1.048   0.428   5.286 -0.2874  0.1938  0.1294
 1581TIP3    H126234   1.027   0.469   5.202  0.2693 -1.5444 -0.9198
 1581TIP3    H226235   1.002   0.344   5.284  0.9343 -0.5392  0.8813
 1582TIP3   OH226236   0.254   2.432   0.094 -0.3654 -0.1853 -0.1950
 1582TIP3    H126237   0.323   2.412   0.158 -0.2523  1.7491  0.3531
 1582TIP3    H226238   0.213   2.347   0.076 -0.5313 -0.7995  2.6004
 1583TIP3   OH226239   5.811   5.318  16.875 -0.2651  0.4229 -0.3523
 1583TIP3    H126240   5.755   5.361  16.940  0.3185 -0.4675  0.7885
 1583TIP3    H226241   5.750   5.265  16.823 -0.4229 -1.9085  1.9778
 1584TIP3   OH226242   4.288   0.045   1.056 -0.2460  0.1018 -0.4744
 1584TIP3    H126243   4.312   0.100   0.982 -3.1609  0.0527 -1.5734
 1584TIP3    H226244   4.206   0.082   1.088 -0.1510 -1.1738  1.3791
 1585TIP3   OH226245   5.961   0.314  13.003 -0.2899  0.0907 -0.0929
 1585TIP3    H126246   5.902   0.390  13.006 -1.0991 -0.5342  0.5690
 1585TIP3    H226247   6.040   0.344  13.048 -1.0078  0.2290  1.1510
 1586TIP3   OH226248   6.135   6.411  15.352  0.5109  0.1466 -0.3162
 1586TIP3    H126249   6.053   6.451  15.383  0.6646  0.8130 -0.7366
 1586TIP3    H226250   6.151   6.339  15.412 -0.0189  0.4479  0.1992
 1587TIP3   OH226251   6.030   2.498  12.363  0.0976  0.6306  0.1249
 1587TIP3    H126252   6.088   2.568  12.331  0.2273  0.0671 -0.9334
 1587TIP3    H226253   5.972   2.481  12.288 -1.3145  1.0434  1.0887
 1588TIP3   OH226254   1.126   1.497   0.308 -0.7279 -0.1897 -0.8137
 1588TIP3    H126255   1.092   1.524   0.394  0.2504  1.4848 -0.9069
 1588TIP3    H226256   1.059   1.525   0.246  0.1153  1.8658 -0.8735
 1589TIP3   OH226257   4.560   4.937  14.666  0.4719 -0.1392  0.1326
 1589TIP3    H126258   4.617   4.902  14.597 -1.0290 -1.6438 -0.4169
 1589TIP3    H226259   4.525   5.018  14.630 -0.1216 -0.7981 -0.8230
 1590TIP3   OH226260   3.531   4.094   1.827 -0.9029 -0.1234 -0.2026
 1590TIP3    H126261   3.575   4.179   1.826  0.9465 -1.0421 -0.8759
 1590TIP3    H226262   3.534   4.066   1.918  4.0504 -2.1246 -0.7115
 1591TIP3   OH226263   1.671   6.520  13.540 -0.1205  0.2083  0.5279
 1591TIP3    H126264   1.619   6.592  13.578 -3.0284 -2.0283  1.1820
 1591TIP3    H226265   1.733   6.496  13.609 -0.7280  0.5905  1.2236
 1592TIP3   OH226266   4.609   4.491  12.379  0.2786  0.1422 -0.1049
 1592TIP3    H126267   4.696   4.530  12.380 -0.0601  0.8802  1.0377
 1592TIP3    H226268   4.562   4.540  12.312 -0.5081  2.5933  2.0951
 1593TIP3   OH226269   3.211   5.948   0.939 -0.8681  0.2752  0.1222
 1593TIP3    H126270   3.245   5.877   0.885  0.9626  1.2211 -0.0317
 1593TIP3    H226271   3.254   5.937   1.024  2.3542  3.1531 -0.9119
 1594TIP3   OH226272   1.733   5.163   0.642 -0.0229 -0.2455 -0.2639
 1594TIP3    H126273   1.660   5.111   0.608  0.2371 -0.1402 -0.9907
 1594TIP3    H226274   1.738   5.139   0.735  0.1458 -1.5861 -0.5998
 1595TIP3   OH226275   0.464   0.830   5.833  0.5912  0.0735  0.3687
 1595TIP3    H126276   0.493   0.894   5.768  0.3917 -0.5736 -0.3706
 1595TIP3    H226277   0.447   0.750   5.783 -2.4211  0.3630  0.7482
 1596TIP3   OH226278   3.069   4.266  12.135 -0.2235  0.3482 -0.3218
 1596TIP3    H126279   3.161   4.282  12.113 -0.5523 -0.1629 -2.1775
 1596TIP3    H226280   3.050   4.328  12.205  1.4633  0.6164 -0.0549
 1597TIP3   OH226281   0.556   1.768   1.151  0.0672 -0.3736  0.0739
 1597TIP3    H126282   0.461   1.778   1.144  0.1523  0.0158 -0.6768
 1597TIP3    H226283   0.569   1.686   1.198 -0.6416 -0.2802  0.4349
 1598TIP3   OH226284   3.568   5.240  12.740 -0.4862  0.1211  0.6865
 1598TIP3    H126285   3.575   5.203  12.828 -1.2200  0.2694  0.8086
 1598TIP3    H226286   3.625   5.185  12.686 -0.0019  0.0564  1.2582
 1599TIP3   OH226287   0.413   5.108  12.374  0.2290  0.1004  0.2421
 1599TIP3    H126288   0.495   5.156  12.384  0.0345  0.6510 -0.6406
 1599TIP3    H226289   0.388   5.083  12.463  0.5379  1.3205  0.6974
 1600TIP3   OH226290   6.352   5.131   1.860  0.1709  0.1727 -0.1315
 1600TIP3    H126291   6.357   5.049   1.910 -0.5254  1.1841  1.7008
 1600TIP3    H226292   6.402   5.194   1.913 -0.6449  1.3049 -0.6818
 1601TIP3   OH226293   1.231   1.230  11.801  0.0736 -0.4698  0.2940
 1601TIP3    H126294   1.258   1.276  11.721 -1.2686 -0.4021 -0.1517
 1601TIP3    H226295   1.295   1.256  11.867  1.6811 -1.1404 -0.9279
 1602TIP3   OH226296   3.967   3.364   5.979  0.2426 -0.3417  0.1806
 1602TIP3    H126297   3.967   3.324   6.066 -1.4676  0.2587  0.4940
 1602TIP3    H226298   3.923   3.449   5.992  1.3442  0.4432 -0.9879
 1603TIP3   OH226299   2.585   3.221   4.022 -0.0507 -0.1238  0.2874
 1603TIP3    H126300   2.495   3.209   3.994  0.1285 -0.3789 -0.1953
 1603TIP3    H226301   2.637   3.204   3.944  0.3790  0.8597  0.3393
 1604TIP3   OH226302   0.667   2.662  16.801  0.4770  1.1378  0.0814
 1604TIP3    H126303   0.657   2.577  16.758  1.7522  1.6132 -1.2577
 1604TIP3    H226304   0.604   2.719  16.757  1.3224  1.4581 -0.7689
 1605TIP3   OH226305   2.823   1.330  14.515 -0.3652  0.6550 -0.0188
 1605TIP3    H126306   2.807   1.303  14.605 -1.5973  1.0548 -0.1036
 1605TIP3    H226307   2.904   1.284  14.490 -0.3294  0.0949  1.0887
 1606TIP3   OH226308   3.437   2.526   1.881 -0.0234  0.0629 -0.0003
 1606TIP3    H126309   3.466   2.435   1.875 -1.5885 -0.4950  0.4039
 1606TIP3    H226310   3.414   2.549   1.792  0.6311  0.1712 -0.1499
 1607TIP3   OH226311   1.278   0.740  11.886  0.5323 -0.2311 -0.1067
 1607TIP3    H126312   1.296   0.823  11.930 -0.8123  1.0653 -1.8702
 1607TIP3    H226313   1.287   0.759  11.793 -4.1323 -0.7150 -0.9344
 1608TIP3   OH226314   6.522   2.819  15.454 -0.3049  0.3625  0.0536
 1608TIP3    H126315   6.549   2.786  15.369 -2.2790  1.0192 -0.8943
 1608TIP3    H226316   6.440   2.865  15.437  0.4493  2.6126  1.9062
 1609TIP3   OH226317   4.788   2.940  16.284  0.2391  0.2036  0.0564
 1609TIP3    H126318   4.882   2.953  16.282  0.3760 -0.6650  0.2644
 1609TIP3    H226319   4.766   2.904  16.198  0.0444  0.7450 -0.1209
 1610TIP3   OH226320   1.263   1.917   2.059 -0.1227 -0.0698  0.2561
 1610TIP3    H126321   1.227   1.996   2.098 -2.1956 -0.8121 -0.0506
 1610TIP3    H226322   1.352   1.911   2.094 -0.1077  2.0859  0.6863
 1611TIP3   OH226323   6.160   0.610   4.541  0.3004  0.5519 -0.0823
 1611TIP3    H126324   6.229   0.677   4.541  2.6898 -1.7415  0.2597
 1611TIP3    H226325   6.136   0.601   4.449  1.1434  0.7526 -0.3352
 1612TIP3   OH226326   1.362   5.861   4.174  0.2550 -0.0982  0.0677
 1612TIP3    H126327   1.446   5.825   4.201  0.7864  0.5156 -0.7055
 1612TIP3    H226328   1.350   5.939   4.229 -0.0642 -0.4725  0.5365
 1613TIP3   OH226329   6.634   4.399  14.823 -0.0670 -0.5762  0.0647
 1613TIP3    H126330   6.701   4.352  14.873  1.4465 -1.2770 -2.4625
 1613TIP3    H226331   6.583   4.330  14.780  2.7390 -0.2720 -4.4194
 1614TIP3   OH226332   4.880   2.136   3.935  0.1624 -0.3250  0.1734
 1614TIP3    H126333   4.939   2.108   4.005  2.1829 -0.8676 -1.6663
 1614TIP3    H226334   4.911   2.223   3.911  1.3196 -1.2502 -1.8865
 1615TIP3   OH226335   4.037   6.494  13.414  0.2232 -0.4099  0.2853
 1615TIP3    H126336   3.973   6.554  13.453  0.7156 -0.0325  0.5234
 1615TIP3    H226337   4.071   6.444  13.487  0.8348 -0.0016  0.2848
 1616TIP3   OH226338   2.105   2.660  13.275 -0.6780 -0.2917  0.7361
 1616TIP3    H126339   2.126   2.722  13.345 -0.5682  0.8537 -0.2647
 1616TIP3    H226340   2.020   2.623  13.300 -1.0566  0.7559  1.0553
 1617TIP3   OH226341   6.284   6.370   0.813  0.0116 -0.2412  0.3433
 1617TIP3    H126342   6.215   6.382   0.747  0.9204  1.7811 -0.3260
 1617TIP3    H226343   6.308   6.458   0.838  0.8285 -0.9605  2.2467
 1618TIP3   OH226344   6.064   3.691  14.921 -0.1228 -0.5257  0.0085
 1618TIP3    H126345   6.135   3.628  14.919 -1.1832 -1.7461 -1.3981
 1618TIP3    H226346   6.049   3.707  15.015  1.1541 -1.1835  0.3464
 1619TIP3   OH226347   3.180   4.006   2.815  0.1309  0.6718  0.1636
 1619TIP3    H126348   3.112   3.940   2.828  1.1709 -0.1474  1.7187
 1619TIP3    H226349   3.153   4.079   2.871  0.2686  0.5434  0.3998
 1620TIP3   OH226350   5.901   4.040  11.679  0.1596 -0.4216 -0.6599
 1620TIP3    H126351   5.892   3.978  11.752  2.3295  1.1510  1.0994
 1620TIP3    H226352   5.842   4.112  11.702  0.9397  0.1331 -0.3367
 1621TIP3   OH226353   2.418   2.042  11.208 -0.3405  0.5426  0.0033
 1621TIP3    H126354   2.507   2.014  11.229 -0.2197  1.0658  0.1878
 1621TIP3    H226355   2.426   2.133  11.181 -0.9195  0.8488  0.7970
 1622TIP3   OH226356   2.607   2.589   0.958  0.8678 -0.3145  0.5107
 1622TIP3    H126357   2.673   2.525   0.932  3.5588  1.9731  1.3397
 1622TIP3    H226358   2.618   2.661   0.897  0.7391  1.1061  2.1100
 1623TIP3   OH226359   4.838   0.068   3.974  0.1767  0.3716 -0.4670
 1623TIP3    H126360   4.841   0.163   3.975  0.5599  0.3697 -1.1636
 1623TIP3    H226361   4.927   0.041   3.949 -0.1688 -0.1405 -1.1827
 1624TIP3   OH226362   4.433   0.073  11.184 -0.0978 -0.3002  0.4123
 1624TIP3    H126363   4.527   0.081  11.163  0.3327  0.4096  2.4059
 1624TIP3    H226364   4.401   0.008  11.122  1.3033  0.7365 -1.5407
 1625TIP3   OH226365   1.234   6.846  11.156 -0.5026  0.2685 -0.0915
 1625TIP3    H126366   1.173   6.901  11.204 -0.3466  0.4344 -0.0829
 1625TIP3    H226367   1.179   6.780  11.114 -0.7968  0.9798 -0.8587
 1626TIP3   OH226368   6.451   0.950  11.219  0.7940  0.3381  0.2962
 1626TIP3    H126369   6.509   0.906  11.156  0.5177  1.4093 -0.7439
 1626TIP3    H226370   6.497   1.032  11.239 -0.0675  0.9223 -0.0774
 1627TIP3   OH226371   2.579   2.308   1.204  0.2699 -0.0712  0.5497
 1627TIP3    H126372   2.533   2.225   1.189  2.2503 -0.9981 -0.8997
 1627TIP3    H226373   2.517   2.375   1.178 -0.8376 -1.1722  0.2398
 1628TIP3   OH226374   3.841   3.865  16.615 -0.7792 -0.5806  0.4746
 1628TIP3    H126375   3.787   3.811  16.557 -0.1750 -2.1998  1.3594
 1628TIP3    H226376   3.818   3.955  16.592 -0.7022 -1.1549 -2.1227
 1629TIP3   OH226377   3.572   1.880  15.218 -0.2845  0.4224  0.2333
 1629TIP3    H126378   3.549   1.946  15.152 -1.7847  0.2357  0.5271
 1629TIP3    H226379   3.660   1.850  15.193 -0.2256  1.4090 -0.8111
 1630TIP3   OH226380   4.720   4.273  14.798 -0.0378  0.3177  0.3630
 1630TIP3    H126381   4.777   4.276  14.721 -0.9879  0.4753 -0.3561
 1630TIP3    H226382   4.778   4.289  14.872  0.8319  0.5843 -0.3610
 1631TIP3   OH226383   5.067   3.555   2.762 -0.0340  0.0908 -0.4774
 1631TIP3    H126384   5.017   3.619   2.812  1.9435  0.5433  1.0325
 1631TIP3    H226385   5.158   3.577   2.779  0.7100 -1.7352 -1.7841
 1632TIP3   OH226386   6.163   3.588   0.178 -0.0591  0.3711 -0.4039
 1632TIP3    H126387   6.255   3.611   0.169 -0.2572  0.8988 -1.1942
 1632TIP3    H226388   6.116   3.672   0.175 -0.5102  0.1999  0.9963
 1633TIP3   OH226389   0.670   2.114  12.063 -0.4091 -0.2624  0.7853
 1633TIP3    H126390   0.698   2.105  11.972  1.5326 -0.1446  1.3137
 1633TIP3    H226391   0.709   2.197  12.092  1.7658 -1.7828  2.5751
 1634TIP3   OH226392   1.422   4.451  16.250 -0.1501  0.0990  0.3033
 1634TIP3    H126393   1.341   4.489  16.285  0.2083 -0.6091  1.9854
 1634TIP3    H226394   1.418   4.359  16.275  0.8157 -0.1144 -0.2949
 1635TIP3   OH226395   6.253   0.077   0.750 -0.5005 -0.2241  0.2808
 1635TIP3    H126396   6.187   0.076   0.681 -2.5432 -0.9853  2.1215
 1635TIP3    H226397   6.224   0.147   0.809  1.3978  0.6439  0.2425
 1636TIP3   OH226398   5.169   2.016  16.277  0.0351 -0.2362  0.0379
 1636TIP3    H126399   5.165   1.989  16.368  0.5120 -0.1113  0.1011
 1636TIP3    H226400   5.089   2.065  16.262 -0.6791 -1.3598  0.0242
 1637TIP3   OH226401   6.429   4.662   0.111  0.4274 -0.5508  0.0533
 1637TIP3    H126402   6.427   4.718   0.188  0.1827 -1.5762  0.8098
 1637TIP3    H226403   6.508   4.609   0.122 -0.0426 -1.2654  0.0073
 1638TIP3   OH226404   0.479   1.599   5.113  0.1532 -0.1173  0.6456
 1638TIP3    H126405   0.472   1.681   5.163  1.8808  0.3108  0.2477
 1638TIP3    H226406   0.423   1.614   5.036  1.1388  1.0881  0.1132
 1639TIP3   OH226407   6.515   3.537  11.234  0.4902 -0.1387  0.3268
 1639TIP3    H126408   6.590   3.587  11.267  2.0557 -1.9607 -0.2658
 1639TIP3    H226409   6.552   3.452  11.210 -1.8856 -1.2890  0.4608
 1640TIP3   OH226410   5.632   1.786  11.598 -0.4172 -0.2850 -0.2447
 1640TIP3    H126411   5.590   1.769  11.683 -1.2982 -0.4513 -0.7040
 1640TIP3    H226412   5.593   1.722  11.539  0.6939 -0.6259 -0.6371
 1641TIP3   OH226413   3.142   0.266  16.876 -0.5339  0.3834 -0.4547
 1641TIP3    H126414   3.147   0.222  16.961 -1.8768  0.1602 -0.4717
 1641TIP3    H226415   3.147   0.195  16.812 -0.4013  0.4701 -0.5409
 1642TIP3   OH226416   5.832   1.583  12.767  0.4821 -0.1011  0.0728
 1642TIP3    H126417   5.834   1.675  12.744 -1.4190 -0.4986 -1.9734
 1642TIP3    H226418   5.740   1.563  12.782  0.8831 -1.6344  0.7369
 1643TIP3   OH226419   4.486   0.430   6.108 -0.2699 -0.1968 -0.1851
 1643TIP3    H126420   4.501   0.447   6.201  0.8739  0.1255 -0.4114
 1643TIP3    H226421   4.511   0.338   6.095 -0.3468 -0.2169 -0.1940
 1644TIP3   OH226422   4.989   2.872  15.626 -0.4337 -0.2069 -0.2685
 1644TIP3    H126423   4.922   2.938  15.643  1.1207  1.4627 -0.4232
 1644TIP3    H226424   4.966   2.838  15.539 -1.2370  0.1536 -0.2051
 1645TIP3   OH226425   4.211   4.473  14.643  0.4279 -0.3209 -0.1493
 1645TIP3    H126426   4.299   4.438  14.635  1.0390  1.1659 -0.2195
 1645TIP3    H226427   4.178   4.439  14.726  1.0517 -0.9214 -0.1468
 1646TIP3   OH226428   2.649   0.232  11.612  0.6667 -0.0938 -0.2090
 1646TIP3    H126429   2.610   0.219  11.699 -1.2759  0.5435 -0.9263
 1646TIP3    H226430   2.575   0.253  11.555  1.8242 -0.9933 -2.1588
 1647TIP3   OH226431   1.479   0.694   2.667  0.7387 -0.4301  0.4004
 1647TIP3    H126432   1.570   0.723   2.672  0.5397  0.0110  2.4469
 1647TIP3    H226433   1.484   0.598   2.668  1.1901 -0.4216 -0.3998
 1648TIP3   OH226434   2.311   6.757   5.567  0.7314  0.2228  0.4836
 1648TIP3    H126435   2.327   6.678   5.619  0.8018  0.1381  0.3353
 1648TIP3    H226436   2.397   6.781   5.532  0.6933  0.3073  0.4476
 1649TIP3   OH226437   0.806   4.877   1.331  0.1367 -0.1679 -0.0787
 1649TIP3    H126438   0.805   4.898   1.425  0.3944 -0.5183  0.0060
 1649TIP3    H226439   0.797   4.781   1.328  0.7239 -0.2203 -0.3853
 1650TIP3   OH226440   0.795   0.966  12.281 -0.0908 -0.8486  0.0844
 1650TIP3    H126441   0.885   0.947  12.308 -0.3444 -0.9213  0.9057
 1650TIP3    H226442   0.783   1.059  12.301 -1.3596 -1.6046  3.5480
 1651TIP3   OH226443   0.441   2.066   5.960 -1.0762 -0.6420  0.4976
 1651TIP3    H126444   0.530   2.049   5.928 -1.1083  0.1851 -0.0511
 1651TIP3    H226445   0.455   2.116   6.041 -1.0503 -0.2613  0.2567
 1652TIP3   OH226446   3.917   2.055   5.792  0.4604  0.1447  0.0940
 1652TIP3    H126447   3.995   2.065   5.847  0.4979 -0.3021  0.1251
 1652TIP3    H226448   3.918   1.963   5.766 -0.3200  0.0241  0.4804
 1653TIP3   OH226449   1.688   2.648  12.152  0.5656 -0.1364 -0.0395
 1653TIP3    H126450   1.689   2.656  12.247 -0.2324 -0.3661  0.0008
 1653TIP3    H226451   1.715   2.557  12.135 -1.3191 -0.7633  0.0948
 1654TIP3   OH226452   3.921   5.261   3.018  0.5280 -0.5814 -0.1014
 1654TIP3    H126453   3.863   5.238   2.945  0.5452  0.0831 -0.3354
 1654TIP3    H226454   3.873   5.234   3.096 -0.0890 -0.0695 -0.2924
 1655TIP3   OH226455   0.022   3.865   5.997  1.2519 -0.3645  0.0861
 1655TIP3    H126456   0.010   3.784   5.947  1.3987 -0.0414 -0.4874
 1655TIP3    H226457   0.033   3.836   6.088 -1.3216 -0.8256  0.3285
 1656TIP3   OH226458   4.821   4.863  11.766 -0.7329  0.5986  0.5067
 1656TIP3    H126459   4.751   4.919  11.731 -2.1621  0.4008  2.8357
 1656TIP3    H226460   4.876   4.923  11.817  0.5014  0.6343 -0.7912
 1657TIP3   OH226461   5.013   2.406   0.557  0.0481 -0.7790  0.4716
 1657TIP3    H126462   5.020   2.408   0.653 -0.7342 -0.2304  0.5288
 1657TIP3    H226463   5.084   2.349   0.529  2.9623  2.2507  1.0861
 1658TIP3   OH226464   6.056   5.290  13.216 -0.1615 -0.0426 -0.2199
 1658TIP3    H126465   6.112   5.213  13.223  0.0083  0.1068  0.0995
 1658TIP3    H226466   6.108   5.361  13.253 -0.5731  0.0895  0.1127
 1659TIP3   OH226467   0.371   3.712   2.108 -0.2463 -0.1308 -0.4066
 1659TIP3    H126468   0.313   3.788   2.106  2.2216  1.8987  0.0014
 1659TIP3    H226469   0.330   3.653   2.172 -2.0794  0.9469 -0.4991
 1660TIP3   OH226470   2.776   6.804   5.114 -0.0008  0.0317 -0.2758
 1660TIP3    H126471   2.736   6.722   5.143 -4.6958  2.0148 -0.2851
 1660TIP3    H226472   2.800   6.849   5.195 -2.4026  0.7235  0.1456
 1661TIP3   OH226473   4.296   0.986  12.138  0.0215  0.3658 -0.4391
 1661TIP3    H126474   4.350   1.063  12.123 -0.1854  0.3747 -1.1628
 1661TIP3    H226475   4.355   0.924  12.181  0.0019  1.1640  0.7719
 1662TIP3   OH226476   5.448   5.148   1.147 -0.4673 -0.4955 -0.8673
 1662TIP3    H126477   5.367   5.170   1.101 -0.4623  2.6355  0.4291
 1662TIP3    H226478   5.422   5.137   1.238  0.6698  2.0370 -0.1573
 1663TIP3   OH226479   1.095   0.922  14.149  0.3336  0.3951 -0.8301
 1663TIP3    H126480   1.046   0.954  14.073 -0.6830 -2.5420 -1.5407
 1663TIP3    H226481   1.084   0.827  14.146  2.5528 -0.0314  1.4760
 1664TIP3   OH226482   6.834   6.065   2.225 -0.0569 -0.1507 -0.1211
 1664TIP3    H126483   6.848   6.135   2.161 -0.8604 -0.6157 -0.8125
 1664TIP3    H226484   6.921   6.048   2.261  0.3090  0.5001 -0.6804
 1665TIP3   OH226485   5.216   5.175  16.478 -0.2365 -0.1818  0.2855
 1665TIP3    H126486   5.235   5.100  16.421 -1.8501 -0.8961  0.6374
 1665TIP3    H226487   5.160   5.232  16.425 -0.2473  0.0504  0.5433
 1666TIP3   OH226488   5.757   3.793  16.556 -0.1908  0.1084  0.1134
 1666TIP3    H126489   5.841   3.793  16.511  0.0012 -2.9704  0.2397
 1666TIP3    H226490   5.777   3.829  16.643  0.8528  0.0775 -0.0937
 1667TIP3   OH226491   2.677   6.199  11.901 -0.4468  0.1074 -0.0597
 1667TIP3    H126492   2.603   6.144  11.926 -1.9599  2.0618  0.0137
 1667TIP3    H226493   2.688   6.259  11.974  1.0507  0.0246 -0.1992
 1668TIP3   OH226494   1.308   0.256  13.464 -0.2995 -0.0425 -0.6154
 1668TIP3    H126495   1.240   0.321  13.483 -0.3531 -0.0923 -0.6347
 1668TIP3    H226496   1.389   0.306  13.459 -0.2576 -0.0528 -0.0720
 1669TIP3   OH226497   4.538   3.393   3.087 -0.4770  0.1787  0.0499
 1669TIP3    H126498   4.562   3.317   3.033  0.8138 -1.5144  2.7587
 1669TIP3    H226499   4.589   3.465   3.050 -0.2664 -0.6846 -1.4423
 1670TIP3   OH226500   1.505   4.265  11.263  0.0452  0.3354 -0.4166
 1670TIP3    H126501   1.530   4.281  11.172 -1.5429  0.3103 -0.8932
 1670TIP3    H226502   1.550   4.333  11.312 -0.1799  1.2324 -1.4086
 1671TIP3   OH226503   3.468   1.650   5.423  0.1888  0.7985  0.4533
 1671TIP3    H126504   3.510   1.669   5.507 -1.9752  0.3333  1.7032
 1671TIP3    H226505   3.470   1.555   5.416 -0.1189  0.8073  0.2414
 1672TIP3   OH226506   5.030   1.869  16.459 -0.0082  0.3249  0.3433
 1672TIP3    H126507   4.957   1.821  16.420  0.7895 -0.7297  0.1079
 1672TIP3    H226508   4.988   1.928  16.523 -1.1210  0.3415 -0.3708
 1673TIP3   OH226509   0.386   3.336  12.738 -0.1645  0.0006  0.1027
 1673TIP3    H126510   0.363   3.309  12.827 -0.1325 -1.7507 -0.4049
 1673TIP3    H226511   0.345   3.422  12.728  0.6251  0.6727  2.1321
 1674TIP3   OH226512   3.275   0.366  12.821 -0.1556  0.0749 -0.2333
 1674TIP3    H126513   3.339   0.434  12.800 -0.0040 -0.1962 -0.6611
 1674TIP3    H226514   3.244   0.336  12.736 -0.5311 -0.1014 -0.0344
 1675TIP3   OH226515   3.300   2.970  13.335 -0.3137 -0.0207 -0.0296
 1675TIP3    H126516   3.327   2.887  13.374 -1.1941 -0.6183 -0.6569
 1675TIP3    H226517   3.335   2.967  13.246  1.1132  1.0449  0.4486
 1676TIP3   OH226518   3.261   2.734  15.344  0.3937 -0.1485  0.4282
 1676TIP3    H126519   3.350   2.769  15.332  0.1219  0.5641  0.4399
 1676TIP3    H226520   3.273   2.639  15.349  1.2231 -0.0174  1.0709
 1677TIP3   OH226521   2.378   3.580   3.648  0.6891 -0.0074  0.3221
 1677TIP3    H126522   2.320   3.586   3.573 -0.9588  2.7614  1.6488
 1677TIP3    H226523   2.462   3.613   3.616  0.1976  0.4760 -0.4998
 1678TIP3   OH226524   6.579   4.781   4.993  0.4176 -0.2831  0.0503
 1678TIP3    H126525   6.612   4.710   5.048  0.1892 -1.3385 -1.1215
 1678TIP3    H226526   6.656   4.832   4.970  0.6266 -0.3044  0.6787
 1679TIP3   OH226527   2.352   6.684  11.361  0.4950  0.4582 -0.2774
 1679TIP3    H126528   2.385   6.653  11.445 -0.4458  0.3162  0.0456
 1679TIP3    H226529   2.318   6.606  11.318 -1.2432  0.8862  0.2452
 1680TIP3   OH226530   6.869   5.627   5.388 -0.2964 -0.0548  0.0355
 1680TIP3    H126531   6.820   5.699   5.428 -0.2430 -1.2954  2.4808
 1680TIP3    H226532   6.961   5.650   5.401 -0.2652 -1.0791  1.9709
 1681TIP3   OH226533   5.607   4.905   5.464 -0.4381  0.1593  0.4652
 1681TIP3    H126534   5.562   4.926   5.546 -1.2860 -0.8889  0.2963
 1681TIP3    H226535   5.557   4.952   5.397 -0.4954  0.0355  0.4207
 1682TIP3   OH226536   5.560   4.205   4.655  0.1812  0.1719 -0.1443
 1682TIP3    H126537   5.579   4.284   4.706  0.5707 -0.6391  1.0081
 1682TIP3    H226538   5.465   4.206   4.643  0.2909  1.4424 -1.2483
 1683TIP3   OH226539   4.737   0.107  11.186 -0.2445 -0.0023  0.3370
 1683TIP3    H126540   4.756   0.148  11.271 -1.2985 -0.2212  0.6965
 1683TIP3    H226541   4.799   0.148  11.125 -0.8374  1.6602  0.8081
 1684TIP3   OH226542   3.651   4.899   0.026  0.2437 -0.1100 -0.2554
 1684TIP3    H126543   3.603   4.909  -0.056  1.7678  0.6505 -1.1068
 1684TIP3    H226544   3.676   4.807   0.028 -1.3211 -0.5612  0.2885
 1685TIP3   OH226545   3.239   5.060  14.947  0.1548  0.1123  0.5404
 1685TIP3    H126546   3.260   5.138  14.895 -0.1654 -0.4267 -0.4206
 1685TIP3    H226547   3.143   5.056  14.947  0.1023  0.7143  2.1201
 1686TIP3   OH226548   3.899   0.699  15.640  0.4489 -0.4114  0.1643
 1686TIP3    H126549   3.875   0.720  15.730 -3.2374  2.0035 -1.1650
 1686TIP3    H226550   3.977   0.752  15.623  0.6232 -0.1565  1.6132
 1687TIP3   OH226551   6.082   4.159   4.881 -0.3975 -0.9670 -0.4133
 1687TIP3    H126552   6.106   4.200   4.798  0.1477  2.7302  1.3343
 1687TIP3    H226553   6.163   4.119   4.913  0.3961  0.7469 -0.1350
 1688TIP3   OH226554   1.323   5.275   1.757  0.3797 -0.5466 -0.2398
 1688TIP3    H126555   1.277   5.270   1.673  0.9433 -2.9681 -0.4963
 1688TIP3    H226556   1.281   5.347   1.803 -1.0046 -0.1492 -1.9844
 1689TIP3   OH226557   6.318   4.748   1.576  0.4866  0.1637  0.3564
 1689TIP3    H126558   6.270   4.804   1.637  1.2280 -0.3162  1.4230
 1689TIP3    H226559   6.400   4.795   1.560  0.3383  0.2382 -0.1962
 1690TIP3   OH226560   2.822   5.403  12.364  0.2813  0.2602  0.5871
 1690TIP3    H126561   2.829   5.364  12.277  0.0834  1.0819  0.1863
 1690TIP3    H226562   2.770   5.483  12.350  1.3280  1.0815  1.2377
 1691TIP3   OH226563   1.352   3.607   0.882  0.3181  0.5588  0.6587
 1691TIP3    H126564   1.318   3.521   0.858 -1.7597  1.5259 -0.0935
 1691TIP3    H226565   1.299   3.633   0.957  1.0779  1.1056  1.0191
 1692TIP3   OH226566   5.193   5.519  11.106 -0.6820 -1.1363 -0.4776
 1692TIP3    H126567   5.279   5.517  11.147 -0.4169  0.5519 -0.8556
 1692TIP3    H226568   5.205   5.472  11.023  0.5019  0.8865 -1.5398
 1693TIP3   OH226569   3.120   2.417  15.064  0.1859 -0.9020 -0.1423
 1693TIP3    H126570   3.165   2.498  15.086  1.2608 -1.6858  0.6322
 1693TIP3    H226571   3.185   2.364  15.019 -0.2390 -1.6764  0.1241
 1694TIP3   OH226572   3.841   1.089  12.669 -0.5850 -0.6296  0.0684
 1694TIP3    H126573   3.751   1.077  12.640 -0.7877 -2.5356  1.3384
 1694TIP3    H226574   3.834   1.135  12.753 -0.4054 -1.0700  0.3282
 1695TIP3   OH226575   3.690   0.749   4.142  0.4117  0.7363 -0.4749
 1695TIP3    H126576   3.747   0.752   4.219  0.3301  1.4302 -0.4366
 1695TIP3    H226577   3.679   0.656   4.124  0.0979  0.5544  0.6068
 1696TIP3   OH226578   3.690   5.181   2.841  0.4710  0.5301 -0.5467
 1696TIP3    H126579   3.642   5.099   2.852  0.2824  0.7827  0.5636
 1696TIP3    H226580   3.690   5.195   2.746  1.4315 -1.2955 -0.8570
 1697TIP3   OH226581   2.303   0.610   2.970  0.0012 -0.3503  0.0850
 1697TIP3    H126582   2.332   0.688   2.923 -1.0835 -0.5943 -1.0168
 1697TIP3    H226583   2.382   0.579   3.014  0.2453  1.9790  1.4941
 1698TIP3   OH226584   6.687   1.307  10.377  0.0433  0.1935 -0.0836
 1698TIP3    H126585   6.670   1.350  10.293 -0.1694  2.3257  0.9968
 1698TIP3    H226586   6.620   1.340  10.436 -0.4917 -2.0974  0.7195
 1699TIP3   OH226587   2.412   1.683   3.955 -0.1779  0.0370 -0.2059
 1699TIP3    H126588   2.507   1.694   3.958 -0.0719 -0.9057  0.1677
 1699TIP3    H226589   2.396   1.635   3.874 -0.3227  0.0819 -0.2036
 1700TIP3   OH226590   1.024   5.462   2.385  0.4836 -0.5511 -0.8781
 1700TIP3    H126591   1.042   5.373   2.355  1.0155 -0.5791 -0.4843
 1700TIP3    H226592   1.101   5.513   2.357  0.6064 -0.4078 -0.3014
 1701TIP3   OH226593   3.593   4.981  14.424 -0.0193 -0.1133 -0.1058
 1701TIP3    H126594   3.562   4.917  14.360 -1.1209 -0.2325  0.5188
 1701TIP3    H226595   3.518   5.040  14.437  1.0724  1.5413 -0.9142
 1702TIP3   OH226596   4.149   6.467  12.911 -0.3390  0.4113 -0.6246
 1702TIP3    H126597   4.159   6.416  12.831  0.1150  0.7627 -0.7938
 1702TIP3    H226598   4.199   6.547  12.896 -2.8566  1.9869 -1.2665
 1703TIP3   OH226599   3.138   1.156  12.608  0.0636 -0.1984 -0.2795
 1703TIP3    H126600   3.150   1.076  12.557 -0.6067  1.2649 -2.9095
 1703TIP3    H226601   3.200   1.218  12.569  0.6321  0.5872  1.7632
 1704TIP3   OH226602   1.335   6.587   4.628 -0.4730 -0.6821  0.3987
 1704TIP3    H126603   1.345   6.506   4.679 -1.2333 -1.2507 -0.3438
 1704TIP3    H226604   1.247   6.617   4.649 -0.5174 -0.5260 -0.0185
 1705TIP3   OH226605   1.523   3.635  10.610  0.2216  0.3724  0.0688
 1705TIP3    H126606   1.553   3.622  10.520 -0.1579  1.3463 -0.2126
 1705TIP3    H226607   1.428   3.624  10.605  0.1403  0.9917  0.2414
 1706TIP3   OH226608   2.084   6.467   4.133 -0.3999 -0.1455 -0.5132
 1706TIP3    H126609   2.069   6.396   4.196 -1.2461  0.6542  0.2231
 1706TIP3    H226610   1.997   6.489   4.101 -0.3388  1.4322  0.2670
 1707TIP3   OH226611   2.996   5.015  13.398 -0.6727  0.2303 -0.0743
 1707TIP3    H126612   3.019   5.104  13.369  0.2876 -0.0920 -0.3187
 1707TIP3    H226613   2.900   5.018  13.408 -0.6430  1.3298  0.0622
 1708TIP3   OH226614   1.585   2.816   0.525  0.2081 -0.6191 -0.7083
 1708TIP3    H126615   1.575   2.908   0.550 -0.7495 -0.9164  0.0483
 1708TIP3    H226616   1.671   2.812   0.483  1.3648  0.1528  1.4594
 1709TIP3   OH226617   5.289   3.307   4.125 -0.7726  0.1842 -0.1723
 1709TIP3    H126618   5.349   3.264   4.186  2.5057  2.5126 -1.4281
 1709TIP3    H226619   5.266   3.389   4.168  0.2202  1.0760 -1.2547
 1710TIP3   OH226620   1.311   1.316   0.977  0.3697 -0.0179 -0.2018
 1710TIP3    H126621   1.273   1.237   1.017  0.8424  1.3927  3.4286
 1710TIP3    H226622   1.254   1.387   1.005  1.8807  1.3306 -0.4313
 1711TIP3   OH226623   1.763   5.255   4.380  0.0330  0.4369 -0.1629
 1711TIP3    H126624   1.755   5.290   4.291  0.2927 -1.0177 -0.7805
 1711TIP3    H226625   1.679   5.211   4.396  0.0148  0.6298  0.2843
 1712TIP3   OH226626   2.868   3.800  14.619 -0.3073 -0.6903  0.6565
 1712TIP3    H126627   2.894   3.733  14.682 -1.0574 -0.6411  1.0296
 1712TIP3    H226628   2.772   3.803  14.625 -0.2461  1.2228  1.5255
 1713TIP3   OH226629   1.721   4.793  15.837 -0.5258  0.3127 -0.1436
 1713TIP3    H126630   1.742   4.709  15.796  0.2377  0.5187 -0.1864
 1713TIP3    H226631   1.656   4.833  15.778 -1.1111 -0.3581  0.0234
 1714TIP3   OH226632   0.962   2.014   0.911 -0.2759 -0.0739  0.6726
 1714TIP3    H126633   1.024   2.065   0.963 -0.5943  0.7859  0.2361
 1714TIP3    H226634   0.904   2.080   0.872 -0.4858 -0.7525 -0.1885
 1715TIP3   OH226635   4.590   6.340   1.295  0.2094 -0.1060 -0.2536
 1715TIP3    H126636   4.626   6.403   1.233  0.6669 -1.3601 -1.2831
 1715TIP3    H226637   4.666   6.296   1.333 -0.0371  0.9282  1.5566
 1716TIP3   OH226638   1.031   2.165  14.256  0.0088  0.1362  0.5164
 1716TIP3    H126639   1.081   2.233  14.211  0.9251 -1.0254 -0.2931
 1716TIP3    H226640   0.970   2.212  14.312  0.1974  1.6237 -0.4875
 1717TIP3   OH226641   0.342   6.398  11.399 -0.0394  0.3200 -0.2776
 1717TIP3    H126642   0.257   6.419  11.437 -0.2346  0.7063 -0.9128
 1717TIP3    H226643   0.366   6.314  11.439  0.1187  1.0529  1.2589
 1718TIP3   OH226644   1.736   6.888  13.753  0.3355 -0.0835  0.0848
 1718TIP3    H126645   1.769   6.930  13.832  0.0017  0.5210 -0.0932
 1718TIP3    H226646   1.784   6.931  13.682 -2.0746  2.1252 -0.3364
 1719TIP3   OH226647   4.274   2.669   2.300 -0.7754  0.3999 -0.0096
 1719TIP3    H126648   4.224   2.595   2.267 -0.1724 -0.6404  1.3218
 1719TIP3    H226649   4.218   2.745   2.285 -2.2697 -0.5833  0.4338
 1720TIP3   OH226650   3.670   1.888   5.010 -0.0735 -0.0963  0.3583
 1720TIP3    H126651   3.735   1.956   5.029 -0.1588 -0.3308  1.5969
 1720TIP3    H226652   3.586   1.928   5.036 -0.4419  0.1945 -1.1995
 1721TIP3   OH226653   6.154   6.678  15.051 -0.3423 -0.3115  0.0136
 1721TIP3    H126654   6.218   6.622  15.094 -0.0538 -0.6898 -0.8730
 1721TIP3    H226655   6.107   6.619  14.992 -2.3779 -0.3055  1.5466
 1722TIP3   OH226656   1.717   1.314   1.098 -0.4919 -0.0588  0.0966
 1722TIP3    H126657   1.714   1.407   1.119  2.4971  0.1470  0.0453
 1722TIP3    H226658   1.685   1.308   1.008 -1.2765  0.8165  0.3042
 1723TIP3   OH226659   0.471   3.198   3.822 -0.2568  0.3703  0.6371
 1723TIP3    H126660   0.419   3.148   3.759 -0.9068 -1.4498  2.4737
 1723TIP3    H226661   0.557   3.207   3.782 -0.8184 -0.2041 -0.7383
 1724TIP3   OH226662   5.186   2.727  15.791 -0.3508  0.5429  0.4103
 1724TIP3    H126663   5.240   2.700  15.865 -0.5784 -0.0841  0.3608
 1724TIP3    H226664   5.157   2.644  15.752 -1.7397  0.8568  0.7251
 1725TIP3   OH226665   0.269   3.902   1.366 -0.1243  0.2168  0.2871
 1725TIP3    H126666   0.281   3.997   1.368 -1.5728  0.4704 -0.9492
 1725TIP3    H226667   0.181   3.888   1.403 -0.2642 -0.5456 -0.2886
 1726TIP3   OH226668   6.232   1.478   1.906  0.0880  0.2144  0.1300
 1726TIP3    H126669   6.261   1.402   1.956 -2.2184 -0.7133  0.1315
 1726TIP3    H226670   6.273   1.467   1.820  2.1944  0.6162  1.0025
 1727TIP3   OH226671   5.646   3.646   2.356 -0.4965 -0.0421 -0.3323
 1727TIP3    H126672   5.661   3.741   2.364 -0.4670 -0.1747  1.5966
 1727TIP3    H226673   5.734   3.608   2.357 -0.5701 -0.2450  1.8553
 1728TIP3   OH226674   2.586   0.083   4.986  0.3765 -0.0402 -0.4417
 1728TIP3    H126675   2.615   0.157   4.931  0.7543  0.9704  1.0718
 1728TIP3    H226676   2.667   0.049   5.023  0.0873 -0.5065 -0.2403
 1729TIP3   OH226677   2.258   2.285  15.336  0.7021 -0.4143 -0.3428
 1729TIP3    H126678   2.270   2.364  15.389 -3.9052  0.4195 -0.1451
 1729TIP3    H226679   2.240   2.317  15.248 -1.5565 -1.0798 -0.1976
 1730TIP3   OH226680   5.719   0.739  15.073 -0.5903 -0.1011 -0.5289
 1730TIP3    H126681   5.654   0.680  15.112  0.8842 -0.8962  0.8667
 1730TIP3    H226682   5.745   0.796  15.146 -0.2597  0.6958 -1.2568
 1731TIP3   OH226683   3.392   2.341  14.462  0.5497 -0.0777 -0.0795
 1731TIP3    H126684   3.339   2.277  14.510  1.3674  0.6458  1.8979
 1731TIP3    H226685   3.391   2.420  14.517  1.2911  0.9197 -1.4193
 1732TIP3   OH226686   2.249   4.375  15.756 -0.5574 -0.1305 -0.0977
 1732TIP3    H126687   2.223   4.413  15.672 -1.3980 -2.2116 -0.8437
 1732TIP3    H226688   2.189   4.302  15.769  2.1323 -2.4241  0.2644
 1733TIP3   OH226689   4.784   6.426  12.716  0.2582  0.1065  0.5892
 1733TIP3    H126690   4.750   6.476  12.643  0.3801  0.1394  0.5547
 1733TIP3    H226691   4.712   6.421  12.778  0.2422  0.3154  0.5884
 1734TIP3   OH226692   6.054   0.202  12.065 -0.2326 -0.1818  0.4211
 1734TIP3    H126693   6.108   0.269  12.106  0.2799  0.1359 -0.7228
 1734TIP3    H226694   6.014   0.246  11.990 -0.5044 -0.9456  0.1109
 1735TIP3   OH226695   2.847   5.477   5.239  0.0139 -0.8474 -0.1481
 1735TIP3    H126696   2.791   5.401   5.256 -1.3735 -0.3957 -2.2684
 1735TIP3    H226697   2.908   5.447   5.171  0.6972 -0.5869  0.3377
 1736TIP3   OH226698   1.693   4.426  11.745  0.1980 -1.0099  0.1864
 1736TIP3    H126699   1.673   4.503  11.691 -1.2830  0.8229  3.0919
 1736TIP3    H226700   1.635   4.358  11.712 -1.0911  0.2317 -0.2079
 1737TIP3   OH226701   0.953   1.604  14.002  0.6995  0.4633 -0.3584
 1737TIP3    H126702   0.943   1.531  13.940 -1.0900 -0.0887  0.5042
 1737TIP3    H226703   0.881   1.663  13.980 -0.6851 -0.2750  1.8136
 1738TIP3   OH226704   6.780   5.106  14.079 -0.2610  0.2408  0.0808
 1738TIP3    H126705   6.860   5.081  14.125 -1.6077 -0.5863  2.1440
 1738TIP3    H226706   6.788   5.067  13.992  0.7271 -1.5043  0.9203
 1739TIP3   OH226707   4.499   2.610  12.656  0.6590 -0.6615  0.1972
 1739TIP3    H126708   4.584   2.654  12.655  0.8056 -0.9568 -0.2363
 1739TIP3    H226709   4.494   2.568  12.742  0.2795  0.6594  0.8509
 1740TIP3   OH226710   0.251   3.827   0.977  0.3076 -0.3496 -0.1477
 1740TIP3    H126711   0.342   3.813   0.951  0.6894 -0.7192  1.2772
 1740TIP3    H226712   0.243   3.922   0.987  1.0273 -0.4066  1.2620
 1741TIP3   OH226713   6.263   4.104   0.645  0.4409 -0.0702 -0.4549
 1741TIP3    H126714   6.270   4.180   0.703  1.4311 -0.1827 -0.4100
 1741TIP3    H226715   6.297   4.031   0.697 -0.5593 -0.5588 -0.4801
 1742TIP3   OH226716   4.707   1.525  14.202  0.1419  0.7583  0.5411
 1742TIP3    H126717   4.735   1.434  14.193 -0.3224  0.5804  0.8405
 1742TIP3    H226718   4.787   1.573  14.222  0.7422  0.7330 -1.5395
 1743TIP3   OH226719   3.353   3.349  10.494 -0.3620 -0.2546  0.0563
 1743TIP3    H126720   3.273   3.301  10.469 -0.2186 -1.1653  1.2616
 1743TIP3    H226721   3.369   3.407  10.421  1.9757 -5.0340 -3.8083
 1744TIP3   OH226722   3.200   1.865  13.928  0.7181 -0.3003  0.0931
 1744TIP3    H126723   3.152   1.886  13.848  0.5844  1.1609  0.5248
 1744TIP3    H226724   3.258   1.940  13.941  1.9785 -1.3159  0.4422
 1745TIP3   OH226725   3.375   2.227   4.059 -0.1539  0.1510 -0.5272
 1745TIP3    H126726   3.329   2.285   4.120 -0.6210 -2.9200  2.3430
 1745TIP3    H226727   3.321   2.148   4.056  3.3563 -2.6014  0.9165
 1746TIP3   OH226728   1.148   4.905  14.025 -0.1181 -0.2835 -0.9837
 1746TIP3    H126729   1.130   4.902  14.119  1.8816 -0.0286 -0.5491
 1746TIP3    H226730   1.064   4.927  13.985 -0.7634  0.7950  0.8362
 1747TIP3   OH226731   0.747   0.665   6.138 -0.7018 -0.2148  0.0935
 1747TIP3    H126732   0.811   0.692   6.072 -1.1514 -0.7522 -0.5813
 1747TIP3    H226733   0.783   0.698   6.221  1.2682 -1.8486 -0.0189
 1748TIP3   OH226734   1.312   1.120  14.209  0.1409  0.1133 -0.1767
 1748TIP3    H126735   1.229   1.079  14.185 -0.0708  0.5228 -0.1609
 1748TIP3    H226736   1.340   1.166  14.129  0.3064  0.0569 -0.1534
 1749TIP3   OH226737   6.445   3.899   3.024 -0.0370  0.2282 -1.0187
 1749TIP3    H126738   6.397   3.831   3.071  0.6237 -0.2977 -1.0924
 1749TIP3    H226739   6.412   3.981   3.060 -1.4026 -0.1013 -1.4706
 1750TIP3   OH226740   3.842   0.229  16.105  0.5737  0.1226 -0.3953
 1750TIP3    H126741   3.766   0.276  16.070 -0.8271 -0.6303  1.4702
 1750TIP3    H226742   3.870   0.172  16.033 -0.4517  0.6125 -1.2150
 1751TIP3   OH226743   6.264   1.957   4.324  0.9630  0.1385 -0.0024
 1751TIP3    H126744   6.281   2.020   4.253 -1.0028  1.5910  0.7127
 1751TIP3    H226745   6.309   1.995   4.400  0.1838  0.4616  0.3119
 1752TIP3   OH226746   1.497   6.693   4.862 -0.0692  0.1757  0.3777
 1752TIP3    H126747   1.543   6.764   4.816 -0.9766 -0.8655 -2.3107
 1752TIP3    H226748   1.420   6.675   4.807 -1.3866 -1.0304  2.4840
 1753TIP3   OH226749   1.017   5.023  13.086  0.7179 -0.2239 -0.3108
 1753TIP3    H126750   1.055   4.935  13.085  1.0864 -0.0902  0.7822
 1753TIP3    H226751   1.088   5.081  13.060  1.1677 -0.0197  1.2976
 1754TIP3   OH226752   2.637   1.197  13.144 -0.2126 -0.1681  0.0796
 1754TIP3    H126753   2.562   1.257  13.140 -0.8125 -0.8578  0.6853
 1754TIP3    H226754   2.711   1.253  13.166 -0.1791  0.8199 -2.2549
 1755TIP3   OH226755   5.680   3.531   1.220  0.2274  0.1707 -0.6593
 1755TIP3    H126756   5.653   3.572   1.138 -0.7349  0.6533 -0.1229
 1755TIP3    H226757   5.601   3.533   1.275  0.9145  0.0705  0.3558
 1756TIP3   OH226758   3.100   4.452  13.070 -0.3591 -0.3252 -0.0735
 1756TIP3    H126759   3.066   4.540  13.056 -1.2033 -0.4890  0.8358
 1756TIP3    H226760   3.045   4.415  13.139 -0.4676 -1.8299 -0.9205
 1757TIP3   OH226761   2.896   3.289   4.321 -0.2500 -0.1025 -0.1210
 1757TIP3    H126762   2.987   3.294   4.292  0.1327  0.0446  1.0506
 1757TIP3    H226763   2.847   3.335   4.253  0.4280 -0.9753 -1.2347
 1758TIP3   OH226764   0.326   2.662  13.310 -0.1804 -0.5931  0.3347
 1758TIP3    H126765   0.379   2.684  13.386  3.9353  0.2958 -2.4633
 1758TIP3    H226766   0.303   2.747  13.271  0.5301 -1.0075 -1.0591
 1759TIP3   OH226767   6.532   0.557  13.593 -0.5506 -0.1722  0.9534
 1759TIP3    H126768   6.552   0.532  13.683 -0.0779 -1.8928  0.3968
 1759TIP3    H226769   6.442   0.590  13.596 -0.3837  0.2165  2.1138
 1760TIP3   OH226770   2.614   3.599  12.840 -0.0447 -0.0770 -0.0892
 1760TIP3    H126771   2.588   3.644  12.760  1.6822  0.2136 -0.5282
 1760TIP3    H226772   2.623   3.507  12.815 -2.0471 -0.4622  0.4366
 1761TIP3   OH226773   2.401   6.480   0.548  0.7546 -0.3760  0.4329
 1761TIP3    H126774   2.376   6.422   0.476  0.6489 -0.5099  0.5782
 1761TIP3    H226775   2.496   6.488   0.541  0.7934 -0.7353  0.5412
 1762TIP3   OH226776   2.017   3.724   2.129 -0.0757 -0.1156  0.2884
 1762TIP3    H126777   2.016   3.653   2.064  0.8743 -0.3518  0.5061
 1762TIP3    H226778   1.932   3.767   2.119 -0.2002 -0.5449 -0.6719
 1763TIP3   OH226779   6.044   5.260  11.668 -0.4643 -0.1520 -0.6127
 1763TIP3    H126780   6.073   5.305  11.589 -0.5329 -0.8260 -1.0369
 1763TIP3    H226781   6.109   5.282  11.734  0.8067 -1.2987 -1.4289
 1764TIP3   OH226782   5.041   5.335   5.683  0.2943 -0.5168  0.0578
 1764TIP3    H126783   4.998   5.250   5.683 -2.5231  0.7516  2.2725
 1764TIP3    H226784   4.970   5.399   5.675  1.9801  1.6782  1.3092
 1765TIP3   OH226785   0.005   4.322  16.159 -0.7260 -0.5389 -0.9130
 1765TIP3    H126786  -0.090   4.322  16.155 -0.7859 -0.2038  0.1396
 1765TIP3    H226787   0.027   4.248  16.215 -0.4024 -0.3481 -0.7819
 1766TIP3   OH226788   2.666   4.986  11.493 -0.3502  0.0890  0.2227
 1766TIP3    H126789   2.742   5.033  11.458  1.4877 -0.8864  2.5784
 1766TIP3    H226790   2.624   4.947  11.416  1.5165  0.7059 -1.1858
 1767TIP3   OH226791   2.395   5.635   1.066  0.1536 -0.3154  0.2908
 1767TIP3    H126792   2.385   5.584   1.146 -0.9500 -1.6277 -0.6313
 1767TIP3    H226793   2.383   5.726   1.094 -0.1338 -0.7334  1.6065
 1768TIP3   OH226794   2.646   4.133  15.560  0.8843  0.2310  0.0346
 1768TIP3    H126795   2.567   4.188  15.557  0.0522 -0.9381 -0.3281
 1768TIP3    H226796   2.706   4.180  15.617  0.0931  1.3779 -0.0513
 1769TIP3   OH226797   0.470   4.652  13.140  0.1271  0.6558 -0.1351
 1769TIP3    H126798   0.409   4.675  13.210 -0.6994  0.2333 -0.7004
 1769TIP3    H226799   0.417   4.652  13.061  0.6442 -0.7256 -0.5026
 1770TIP3   OH226800   3.637   3.866   3.878  0.7664 -0.4443  0.5010
 1770TIP3    H126801   3.659   3.774   3.859 -1.7651 -1.2199  0.8517
 1770TIP3    H226802   3.613   3.866   3.970 -1.9051 -0.0978 -0.1073
 1771TIP3   OH226803   0.955   0.860   1.629  0.2698  0.5707  0.3322
 1771TIP3    H126804   1.007   0.903   1.561 -0.6368  1.8696  0.4309
 1771TIP3    H226805   0.986   0.899   1.711  0.1851  0.2426  0.5215
 1772TIP3   OH226806   1.590   0.694  14.290  0.3977  0.4463 -0.7727
 1772TIP3    H126807   1.544   0.611  14.277  1.1328 -0.2859  0.9839
 1772TIP3    H226808   1.682   0.669  14.298  1.0255  1.7552 -2.9416
 1773TIP3   OH226809   1.158   4.970  15.984  0.0554  0.5766 -0.2356
 1773TIP3    H126810   1.143   4.880  16.015 -0.2915  0.7431  0.0906
 1773TIP3    H226811   1.185   4.959  15.893 -1.3495  0.1888 -0.6432
 1774TIP3   OH226812   1.046   5.297   4.362 -0.4029 -0.0043  0.4751
 1774TIP3    H126813   1.110   5.231   4.391  0.4084  0.1425 -0.9065
 1774TIP3    H226814   1.071   5.376   4.409 -1.0435 -0.5208  1.7277
 1775TIP3   OH226815   2.219   2.649   6.074 -0.2573 -0.1145 -0.1993
 1775TIP3    H126816   2.311   2.640   6.051 -0.6360  0.7441 -2.3613
 1775TIP3    H226817   2.174   2.586   6.018 -1.0245 -0.1340  0.4248
 1776TIP3   OH226818   0.765   4.572  12.287  0.1084  0.0460  0.1462
 1776TIP3    H126819   0.717   4.639  12.238 -0.1487 -0.5069 -0.3724
 1776TIP3    H226820   0.702   4.541  12.352 -1.0645 -2.2365 -1.9370
 1777TIP3   OH226821   5.667   0.535  13.738 -0.6508  0.6308 -0.0961
 1777TIP3    H126822   5.659   0.526  13.643  0.6205  0.8029 -0.2345
 1777TIP3    H226823   5.666   0.629  13.753 -1.0599  0.5981  0.0826
 1778TIP3   OH226824   4.925   5.396   2.400  0.1786  0.0896  0.5042
 1778TIP3    H126825   4.975   5.418   2.478  1.1020  1.4183 -0.4191
 1778TIP3    H226826   4.834   5.417   2.423  0.6471  2.1200  0.6991
 1779TIP3   OH226827   5.685   4.567   3.940  0.3556  0.0944  0.3071
 1779TIP3    H126828   5.664   4.494   3.998 -1.8903  1.1300  0.9128
 1779TIP3    H226829   5.729   4.527   3.865 -1.8268 -2.0858  0.0689
 1780TIP3   OH226830   2.860   6.687   2.512 -0.8088 -0.4675  0.2150
 1780TIP3    H126831   2.823   6.773   2.536 -0.4084 -0.4009  0.6148
 1780TIP3    H226832   2.795   6.648   2.455 -1.2121 -0.0869  0.4077
 1781TIP3   OH226833   2.166   1.016   1.406 -0.1708 -0.0859 -0.0189
 1781TIP3    H126834   2.258   1.044   1.410 -0.4251  0.8741 -0.5884
 1781TIP3    H226835   2.167   0.937   1.352  0.3145 -0.0229 -0.1080
 1782TIP3   OH226836   3.742   6.124   2.250  0.1293 -0.5358  0.1428
 1782TIP3    H126837   3.716   6.043   2.205 -1.0517  0.4407 -0.9955
 1782TIP3    H226838   3.673   6.187   2.229  1.3435  0.9711  0.4630
 1783TIP3   OH226839   4.726   4.765   1.331 -0.4133  0.3087  0.1250
 1783TIP3    H126840   4.727   4.838   1.269  2.1413  0.3279  0.0572
 1783TIP3    H226841   4.678   4.695   1.286 -3.0827  1.9291  0.2716
 1784TIP3   OH226842   5.210   0.295  16.044 -0.6879 -0.2072 -0.4606
 1784TIP3    H126843   5.206   0.202  16.023 -0.0262 -0.8117  1.8139
 1784TIP3    H226844   5.147   0.306  16.115  0.9475  0.5650  0.9212
 1785TIP3   OH226845   3.828   1.276  16.630  0.2547 -0.5511  0.0027
 1785TIP3    H126846   3.774   1.282  16.552  0.3163 -0.9030 -0.0677
 1785TIP3    H226847   3.773   1.230  16.694 -0.2271  0.7294  0.5496
 1786TIP3   OH226848   6.792   4.809  11.099 -0.0356 -0.0360  0.8819
 1786TIP3    H126849   6.804   4.714  11.099  0.8758 -0.0488 -2.3958
 1786TIP3    H226850   6.857   4.842  11.162  1.4597 -1.4651  0.1568
 1787TIP3   OH226851   0.774   3.511  14.396  0.0029 -0.2633  0.4488
 1787TIP3    H126852   0.826   3.487  14.319 -0.3422  1.5352 -0.3889
 1787TIP3    H226853   0.836   3.507  14.469  0.9311  0.2441 -0.2886
 1788TIP3   OH226854   0.427   6.769   2.959  0.2262 -0.3542 -0.0988
 1788TIP3    H126855   0.421   6.750   2.865 -0.0183 -1.5728  0.1506
 1788TIP3    H226856   0.511   6.732   2.986  0.9434  1.2051 -0.0839
 1789TIP3   OH226857   3.713   5.341   4.856  0.1193 -0.2024  0.9124
 1789TIP3    H126858   3.659   5.332   4.778  1.3054 -0.0335  0.0549
 1789TIP3    H226859   3.687   5.426   4.893  0.2622  0.1758  0.1508
 1790TIP3   OH226860   1.109   0.865   0.356 -0.3004  0.2343  0.2779
 1790TIP3    H126861   1.065   0.920   0.291  2.4163  1.5067 -0.6428
 1790TIP3    H226862   1.039   0.834   0.413 -2.5394  0.8005 -1.9827
 1791TIP3   OH226863   4.339   6.608   4.701  0.6151  0.1440 -0.4490
 1791TIP3    H126864   4.375   6.519   4.702 -0.7249 -0.4379  0.3581
 1791TIP3    H226865   4.370   6.648   4.782  0.2396 -0.0321 -0.2122
 1792TIP3   OH226866   5.406   2.536  15.572 -0.6235  0.0227 -0.1641
 1792TIP3    H126867   5.447   2.468  15.518 -1.4162 -0.6984  0.1218
 1792TIP3    H226868   5.466   2.547  15.646 -0.8192 -0.8636  0.1369
 1793TIP3   OH226869   0.336   6.238   1.740 -0.1147  0.0699  0.3536
 1793TIP3    H126870   0.385   6.156   1.742  1.3755  0.9473  2.0100
 1793TIP3    H226871   0.249   6.212   1.709  0.4911 -2.0246  0.2257
 1794TIP3   OH226872   5.712   6.017  12.354  0.2289  0.1787  0.0840
 1794TIP3    H126873   5.671   5.990  12.272 -2.5535 -0.5383  1.5908
 1794TIP3    H226874   5.644   6.067  12.400  1.9253  1.1631  1.6854
 1795TIP3   OH226875   6.813   1.427   1.422 -0.5628  0.3937 -0.0948
 1795TIP3    H126876   6.838   1.340   1.393 -1.1011  0.5713 -1.1525
 1795TIP3    H226877   6.847   1.434   1.511  0.3391 -0.5209 -0.3545
 1796TIP3   OH226878   6.442   3.284   2.215 -0.3910  0.5685 -0.3896
 1796TIP3    H126879   6.533   3.301   2.238 -0.3148  0.4198 -0.5796
 1796TIP3    H226880   6.447   3.230   2.135 -0.6252 -0.4803  0.2883
 1797TIP3   OH226881   0.065   3.668   4.099 -0.6074 -0.0162 -0.0974
 1797TIP3    H126882   0.001   3.679   4.029 -0.0854  1.2651 -0.4127
 1797TIP3    H226883   0.018   3.691   4.179 -1.0671 -1.0013 -0.0699
 1798TIP3   OH226884   6.753   3.926   0.024  0.5849  0.1958 -0.3666
 1798TIP3    H126885   6.841   3.890   0.032  0.0003 -1.0863  0.5637
 1798TIP3    H226886   6.738   3.934  -0.071  1.2731 -0.6508 -0.5529
 1799TIP3   OH226887   4.140   6.668   2.965  0.5739  0.3640  0.3092
 1799TIP3    H126888   4.153   6.736   2.899  1.7006 -0.2603 -0.1339
 1799TIP3    H226889   4.193   6.696   3.040 -0.9504  1.2348  1.1142
 1800TIP3   OH226890   3.343   6.028  10.249  0.1423 -0.1312  0.8241
 1800TIP3    H126891   3.402   5.953  10.251 -0.4377 -0.5759  1.6812
 1800TIP3    H226892   3.384   6.089  10.187  1.4172 -0.4927  1.2875
 1801TIP3   OH226893   6.566   6.749   3.735 -0.0336  0.3297 -0.3551
 1801TIP3    H126894   6.546   6.832   3.690 -1.0972  0.9024  1.0860
 1801TIP3    H226895   6.605   6.776   3.818  0.0852 -0.6426 -0.0849
 1802TIP3   OH226896   3.705   3.241   0.611  0.0646 -0.2926  0.9633
 1802TIP3    H126897   3.640   3.276   0.551  0.2858 -1.0644  0.2519
 1802TIP3    H226898   3.761   3.316   0.633  0.1159 -0.0476  0.0216
 1803TIP3   OH226899   2.810   2.317  11.715  0.3867  0.0427  0.2143
 1803TIP3    H126900   2.892   2.366  11.710  1.1334 -0.9620  1.7185
 1803TIP3    H226901   2.773   2.342  11.800 -0.1643 -0.5633  0.1605
 1804TIP3   OH226902   3.243   1.573  11.210 -0.2048 -0.2326  0.3297
 1804TIP3    H126903   3.222   1.506  11.145 -0.8878 -1.0525  1.3554
 1804TIP3    H226904   3.176   1.640  11.198 -0.8515 -0.7877  0.7206
 1805TIP3   OH226905   1.018   2.021  13.833  0.7192  0.1277 -0.0832
 1805TIP3    H126906   1.054   1.986  13.914  0.3893 -1.7928 -0.7026
 1805TIP3    H226907   1.045   2.113  13.831 -0.5111  0.6706  2.9085
 1806TIP3   OH226908   4.845   0.599   3.512  0.1920  0.0080  0.0678
 1806TIP3    H126909   4.862   0.630   3.601 -0.2916  1.9103 -0.4636
 1806TIP3    H226910   4.925   0.621   3.464 -0.7321  1.9551 -0.6701
 1807TIP3   OH226911   2.925   0.817   2.526  0.4118 -0.3598  0.5862
 1807TIP3    H126912   2.932   0.755   2.599 -0.8321  0.3517  1.3326
 1807TIP3    H226913   2.852   0.873   2.549 -0.3353 -0.4260 -1.4673
 1808TIP3   OH226914   6.397   1.013   0.885 -0.5089 -0.2424  0.4100
 1808TIP3    H126915   6.454   1.073   0.837 -1.0623  0.2669  0.3867
 1808TIP3    H226916   6.322   0.999   0.828 -1.2272  0.4560  1.1634
 1809TIP3   OH226917   0.747   4.889   0.033  0.0847 -0.0317 -1.0596
 1809TIP3    H126918   0.689   4.825  -0.007  0.0540 -0.9872  0.4589
 1809TIP3    H226919   0.827   4.886  -0.020  0.1805 -1.5256 -0.8609
 1810TIP3   OH226920   5.502   1.063   5.216 -0.2252 -0.3991  0.5987
 1810TIP3    H126921   5.420   1.033   5.257 -0.9182  0.0549 -0.4070
 1810TIP3    H226922   5.541   0.983   5.181 -0.8146 -0.4878  0.1113
 1811TIP3   OH226923   2.112   1.671  16.291 -0.0858  0.1521  0.2185
 1811TIP3    H126924   2.020   1.659  16.267 -0.3217  0.4647  0.9212
 1811TIP3    H226925   2.121   1.765  16.307  0.0733 -0.0106  1.1881
 1812TIP3   OH226926   3.949   2.750  12.972  0.4785 -0.5766  0.2978
 1812TIP3    H126927   3.894   2.707  12.906  0.4280 -0.1894  0.0846
 1812TIP3    H226928   4.011   2.683  12.999 -0.7368 -1.3549  1.2927
 1813TIP3   OH226929   5.246   3.013  10.390 -0.0399 -0.6323  0.2218
 1813TIP3    H126930   5.319   3.047  10.337  1.9488 -1.7803  2.0767
 1813TIP3    H226931   5.244   3.069  10.467 -2.1300  0.2676 -0.4162
 1814TIP3   OH226932   5.419   2.627  12.714 -0.2325 -0.1644 -0.3905
 1814TIP3    H126933   5.500   2.594  12.677 -0.8688 -1.4458 -0.6796
 1814TIP3    H226934   5.354   2.617  12.645 -0.8137  0.0834  0.1037
 1815TIP3   OH226935   4.392   3.251  11.703 -0.3203 -0.4648 -0.5141
 1815TIP3    H126936   4.425   3.236  11.614 -0.5520  1.7009 -1.0357
 1815TIP3    H226937   4.448   3.319  11.738 -2.4258  1.3288 -0.3997
 1816TIP3   OH226938   4.405   3.162   5.003 -0.1871  0.6455 -0.1059
 1816TIP3    H126939   4.370   3.214   5.075 -0.1849 -1.2137  1.3158
 1816TIP3    H226940   4.350   3.185   4.928 -1.3815  1.2781  0.9180
 1817TIP3   OH226941   0.800   3.799  16.561 -0.0554  0.3124  0.3925
 1817TIP3    H126942   0.850   3.766  16.486 -1.6670  1.0264 -1.0955
 1817TIP3    H226943   0.800   3.728  16.624  0.8415 -0.5589 -0.5647
 1818TIP3   OH226944   0.118   1.306  16.644 -0.0631  0.7008  0.1556
 1818TIP3    H126945   0.121   1.383  16.587  1.9421  0.4799 -0.1332
 1818TIP3    H226946   0.145   1.338  16.730  0.6923  0.3660  0.0558
 1819TIP3   OH226947   0.068   0.542   3.427 -0.1163 -0.0853 -0.3354
 1819TIP3    H126948   0.137   0.585   3.377  0.2550  0.3461  0.5309
 1819TIP3    H226949   0.013   0.613   3.460  0.0256 -0.3039  0.4126
 1820TIP3   OH226950   3.250   1.005  10.918  0.0724  0.1775 -0.5819
 1820TIP3    H126951   3.251   1.042  10.829 -0.3041 -0.2655 -0.7750
 1820TIP3    H226952   3.266   1.080  10.975 -0.4276  0.5983 -0.9805
 1821TIP3   OH226953   0.744   3.907   9.950 -0.4393 -0.4209 -0.0420
 1821TIP3    H126954   0.709   3.849   9.882 -0.1162 -1.8203  0.9353
 1821TIP3    H226955   0.703   3.992   9.933 -0.2732 -0.7002 -2.0322
 1822TIP3   OH226956   0.815   4.216   4.577  0.5103 -0.4722 -0.1109
 1822TIP3    H126957   0.879   4.210   4.647 -1.7999 -2.9279  2.0038
 1822TIP3    H226958   0.733   4.241   4.620 -0.2623  1.7721 -2.5730
 1823TIP3   OH226959   4.351   0.738  15.528  0.1166  0.4592  0.1351
 1823TIP3    H126960   4.321   0.692  15.606  0.7070  0.9901  0.6819
 1823TIP3    H226961   4.272   0.777  15.491  0.0589  1.5550  1.3692
 1824TIP3   OH226962   5.819   3.621   2.076 -0.1057 -0.3483  0.5189
 1824TIP3    H126963   5.836   3.567   2.153  0.2942  0.1392  0.7820
 1824TIP3    H226964   5.904   3.629   2.034 -0.2008 -0.0798  0.3772
 1825TIP3   OH226965   2.819   3.127   5.226  0.0698  0.1324  0.5118
 1825TIP3    H126966   2.768   3.085   5.295 -0.7802  0.6920  0.2416
 1825TIP3    H226967   2.788   3.086   5.145 -1.0335  1.4784  0.2091
 1826TIP3   OH226968   5.769   0.912   1.082 -0.1904  0.0656  0.6961
 1826TIP3    H126969   5.683   0.889   1.117 -0.1831  0.3606  0.9142
 1826TIP3    H226970   5.816   0.948   1.157 -0.3897  1.2875  0.2614
 1827TIP3   OH226971   3.453   5.448  13.991  0.1609 -0.1691 -0.1904
 1827TIP3    H126972   3.379   5.508  13.998 -0.0935 -0.4137 -0.7589
 1827TIP3    H226973   3.506   5.466  14.069  0.6617  1.5644 -0.8932
 1828TIP3   OH226974   2.815   3.523   1.111 -0.1413  0.1421  0.0644
 1828TIP3    H126975   2.749   3.495   1.175 -0.2294  2.4147  1.0586
 1828TIP3    H226976   2.771   3.516   1.026 -1.3304  0.6334  0.6137
 1829TIP3   OH226977   6.405   3.215   5.757  0.0154 -0.1191  0.0885
 1829TIP3    H126978   6.482   3.271   5.762  0.1808 -0.3271 -0.0920
 1829TIP3    H226979   6.366   3.234   5.672  0.1649 -0.3943 -0.0444
 1830TIP3   OH226980   3.791   0.774  11.183  0.4126  0.0207  0.3874
 1830TIP3    H126981   3.706   0.772  11.139  0.0435 -0.0034  1.0849
 1830TIP3    H226982   3.773   0.815  11.267  1.4712  1.8748 -0.2434
 1831TIP3   OH226983   2.040   1.471  14.650 -0.3492 -0.0350  0.1614
 1831TIP3    H126984   2.058   1.400  14.711  2.2376  0.1257 -0.2923
 1831TIP3    H226985   1.986   1.532  14.700 -0.8862 -1.3383  1.2402
 1832TIP3   OH226986   6.663   1.825   0.868 -0.5313  0.1492 -0.0878
 1832TIP3    H126987   6.664   1.861   0.957  0.0552  2.5386 -0.9993
 1832TIP3    H226988   6.650   1.901   0.811  0.7865 -1.0756 -2.1589
 1833TIP3   OH226989   3.401   6.407  15.657  0.6494 -0.3454  0.2445
 1833TIP3    H126990   3.497   6.404  15.657  0.6891 -1.1322  2.5568
 1833TIP3    H226991   3.376   6.371  15.743 -1.6473  1.8875  0.6271
 1834TIP3   OH226992   3.335   5.767   1.535 -0.4137  0.1937  0.5792
 1834TIP3    H126993   3.397   5.697   1.513  0.3167  0.5747  1.3520
 1834TIP3    H226994   3.276   5.770   1.460 -0.2561 -1.0156  0.3747
 1835TIP3   OH226995   3.496   2.022   0.356 -0.8578  0.8389  0.0854
 1835TIP3    H126996   3.469   2.095   0.300  1.5476  1.0219 -0.9394
 1835TIP3    H226997   3.439   1.950   0.331 -1.8928  1.7790 -0.3578
 1836TIP3   OH226998   1.864   4.757   4.158 -0.1209  0.0998  0.0146
 1836TIP3    H126999   1.823   4.782   4.241 -0.2463 -2.3874  0.7688
 1836TIP3    H227000   1.867   4.662   4.160  1.8305  0.0354 -1.9232
 1837TIP3   OH227001   2.242   6.695  10.977 -0.2037  0.0962 -0.6862
 1837TIP3    H127002   2.205   6.618  11.020  1.9049 -0.8973 -0.4955
 1837TIP3    H227003   2.258   6.757  11.049  0.7453 -0.4689 -0.3802
 1838TIP3   OH227004   2.645   6.326   2.072  0.0384  0.0135 -0.2164
 1838TIP3    H127005   2.659   6.335   2.166  1.1025  0.8854 -0.4403
 1838TIP3    H227006   2.729   6.293   2.038 -0.5183 -0.8569 -0.7949
 1839TIP3   OH227007   1.481   5.063   5.144 -0.0576  0.4993 -0.2702
 1839TIP3    H127008   1.538   5.028   5.076 -0.0026  0.8764 -0.4208
 1839TIP3    H227009   1.396   5.022   5.127  0.4206 -0.9721  0.6533
 1840TIP3   OH227010   5.875   3.945  14.910  0.0553 -0.7762  0.0533
 1840TIP3    H127011   5.956   3.994  14.922 -0.2670 -0.5076  1.3273
 1840TIP3    H227012   5.895   3.858  14.944  0.3751 -1.3024 -1.4303
 1841TIP3   OH227013   3.922   2.476  11.775  0.0920 -0.0248  0.4359
 1841TIP3    H127014   3.829   2.456  11.780 -0.2822  1.6633  0.6459
 1841TIP3    H227015   3.957   2.412  11.713 -1.5874  0.6011 -1.2595
 1842TIP3   OH227016   5.593   5.560  14.774 -0.2458 -0.0004 -0.2726
 1842TIP3    H127017   5.587   5.604  14.859 -1.0794 -0.8470  0.1252
 1842TIP3    H227018   5.685   5.570  14.749  0.2483 -0.5563  1.1910
 1843TIP3   OH227019   5.392   0.699   3.811  0.0460  0.2097 -0.7201
 1843TIP3    H127020   5.384   0.742   3.896 -0.8490 -1.8217  0.2805
 1843TIP3    H227021   5.408   0.771   3.749 -0.2050  1.8247  1.0125
 1844TIP3   OH227022   0.091   5.983   0.577  0.4994 -0.2560 -0.1382
 1844TIP3    H127023   0.053   6.043   0.642  0.2232 -1.8038  1.1979
 1844TIP3    H227024   0.025   5.915   0.567 -0.5727  1.0771 -3.9147
 1845TIP3   OH227025   5.412   1.216   2.601 -0.1618 -0.1940  0.0044
 1845TIP3    H127026   5.437   1.305   2.578 -1.8121  0.1245 -0.6872
 1845TIP3    H227027   5.478   1.161   2.558 -0.3634  0.6092 -1.3658
 1846TIP3   OH227028   5.406   6.324   4.580 -0.0856  0.0316 -0.4454
 1846TIP3    H127029   5.480   6.385   4.590 -0.8935  1.0540 -0.5832
 1846TIP3    H227030   5.382   6.331   4.488  0.7838 -1.6786 -0.8449
 1847TIP3   OH227031   0.824   5.630   3.308 -0.1205  0.4634 -0.5040
 1847TIP3    H127032   0.865   5.561   3.360  1.0573  0.0247 -1.9457
 1847TIP3    H227033   0.862   5.711   3.342  1.0851  0.1430 -1.0156
 1848TIP3   OH227034   6.813   4.764  16.010  0.2085 -0.1219 -0.5220
 1848TIP3    H127035   6.907   4.781  16.006  0.0879  1.5074  1.8323
 1848TIP3    H227036   6.775   4.821  15.943  0.8919 -1.2644 -1.9352
 1849TIP3   OH227037   0.463   5.184  11.071 -0.3044  0.2260  0.3134
 1849TIP3    H127038   0.543   5.145  11.106  0.0156  0.4599 -0.1612
 1849TIP3    H227039   0.407   5.196  11.149  0.7651  1.6184  0.8995
 1850TIP3   OH227040   3.656   6.782  11.318  0.0815 -0.0886  0.0577
 1850TIP3    H127041   3.594   6.741  11.379 -0.7359  0.5819 -0.3019
 1850TIP3    H227042   3.738   6.735  11.332 -0.6790 -1.4760  0.0379
 1851TIP3   OH227043   0.831   0.870  14.382 -0.0067  0.4719 -0.7352
 1851TIP3    H127044   0.835   0.938  14.449 -0.6168 -1.5685  1.4824
 1851TIP3    H227045   0.921   0.863  14.350  1.2941 -1.2133  2.8187
 1852TIP3   OH227046   4.067   4.584   5.155 -0.7395  0.1881  0.5472
 1852TIP3    H127047   3.977   4.590   5.122 -0.1354 -0.7195 -1.4552
 1852TIP3    H227048   4.096   4.498   5.126  1.1860  0.9726  0.0021
 1853TIP3   OH227049   4.997   4.694  15.063  0.0855  0.2015 -0.0916
 1853TIP3    H127050   4.921   4.672  15.009  1.2027 -1.9100 -0.9362
 1853TIP3    H227051   5.047   4.755  15.009 -0.2274  0.3603 -0.2079
 1854TIP3   OH227052   2.862   4.550  11.349 -0.1259  0.2991 -0.4513
 1854TIP3    H127053   2.939   4.585  11.393  0.8913  0.1245 -2.0000
 1854TIP3    H227054   2.897   4.501  11.274 -1.6453 -1.5177 -0.0601
 1855TIP3   OH227055   4.520   1.620  13.775 -0.3803  0.0281  0.5394
 1855TIP3    H127056   4.481   1.653  13.856 -0.1223  1.4895  0.1118
 1855TIP3    H227057   4.477   1.670  13.706  1.7715  1.3083  0.0086
 1856TIP3   OH227058   3.631   1.041   4.386 -0.2952 -0.5276  0.5085
 1856TIP3    H127059   3.628   1.071   4.295 -0.1892 -0.0831  0.6491
 1856TIP3    H227060   3.669   0.953   4.381 -0.0197 -0.3905  0.1494
 1857TIP3   OH227061   6.645   2.075   0.391 -0.5387 -0.6629  0.1478
 1857TIP3    H127062   6.561   2.108   0.423 -0.5515 -0.6251  0.0760
 1857TIP3    H227063   6.675   2.142   0.329  0.7892  0.6231  2.0666
 1858TIP3   OH227064   5.385   4.816   4.959  0.1345 -0.5972  0.0318
 1858TIP3    H127065   5.295   4.818   4.990  0.2963  0.8338  0.4908
 1858TIP3    H227066   5.390   4.888   4.896  1.2584  0.1888  0.9688
 1859TIP3   OH227067   5.375   4.790  15.519  0.0640 -0.1750  0.3989
 1859TIP3    H127068   5.294   4.792  15.570 -0.6567  0.8377 -0.7308
 1859TIP3    H227069   5.402   4.882  15.514 -1.5244  0.2480 -3.4948
 1860TIP3   OH227070   6.775   4.982   5.313 -0.3940 -0.0295 -0.1271
 1860TIP3    H127071   6.705   5.044   5.292 -0.1699  0.5146  0.6678
 1860TIP3    H227072   6.847   5.037   5.345 -0.6732 -0.7552  1.9221
 1861TIP3   OH227073   6.370   5.425  13.063  0.5324 -0.9200 -0.0884
 1861TIP3    H127074   6.442   5.424  13.000 -0.2775 -1.0334 -1.0319
 1861TIP3    H227075   6.295   5.456  13.013  0.0484 -0.2597  1.0315
 1862TIP3   OH227076   1.987   4.459  12.979 -0.2390 -0.1981 -0.2658
 1862TIP3    H127077   2.044   4.446  13.055 -0.6070  0.0303  0.0504
 1862TIP3    H227078   1.900   4.469  13.015 -0.5587 -1.0475 -0.7887
 1863TIP3   OH227079   1.800   1.170   1.867  0.0275  0.2418 -0.0326
 1863TIP3    H127080   1.883   1.136   1.832 -0.2478  0.1734 -0.6267
 1863TIP3    H227081   1.827   1.224   1.941  0.4357 -1.7180  1.3168
 1864TIP3   OH227082   4.430   0.334   2.771 -0.4819  0.0768 -0.0878
 1864TIP3    H127083   4.444   0.258   2.714 -0.1061  1.4332 -1.9081
 1864TIP3    H227084   4.436   0.299   2.860 -0.6961 -2.0731 -0.8607
 1865TIP3   OH227085   6.573   1.486  11.069 -0.1558  0.6405  0.2356
 1865TIP3    H127086   6.532   1.572  11.060  0.0896  0.6720 -0.6950
 1865TIP3    H227087   6.666   1.504  11.083 -0.2850  0.5426  1.3738
 1866TIP3   OH227088   3.169   1.047   2.076 -0.6957 -0.3976 -0.2389
 1866TIP3    H127089   3.155   0.968   2.023  3.4614 -1.8549  0.4933
 1866TIP3    H227090   3.141   1.021   2.164 -1.4849 -0.2216 -0.4301
 1867TIP3   OH227091   4.355   2.121  11.069 -0.5621  0.0681 -0.0362
 1867TIP3    H127092   4.432   2.152  11.022  0.1682 -1.0711  0.3655
 1867TIP3    H227093   4.382   2.118  11.160 -0.9118 -0.8006  0.0513
 1868TIP3   OH227094   4.934   1.530  12.163  0.2981  0.2604 -0.1376
 1868TIP3    H127095   4.935   1.439  12.193  1.3130  0.5921  0.9303
 1868TIP3    H227096   4.841   1.551  12.154  0.0078 -1.5616 -2.7169
 1869TIP3   OH227097   4.346   5.676  16.740  0.3210  0.8497 -0.1022
 1869TIP3    H127098   4.283   5.746  16.722 -0.9944 -0.7418 -2.2732
 1869TIP3    H227099   4.395   5.667  16.658  0.5505 -0.6253  0.1643
 1870TIP3   OH227100   2.765   3.226  15.016  0.5508 -0.6868 -0.1365
 1870TIP3    H127101   2.839   3.283  14.994 -0.6705  0.7243 -0.6987
 1870TIP3    H227102   2.688   3.280  15.003 -0.5644 -1.8330  1.3705
 1871TIP3   OH227103   0.326   3.422   4.960  1.3057 -0.4945  0.2216
 1871TIP3    H127104   0.349   3.372   4.882  2.2567  1.0570 -0.5313
 1871TIP3    H227105   0.231   3.415   4.966  1.1602 -0.2535 -1.3573
 1872TIP3   OH227106   4.385   5.831   0.198 -0.1154  0.0440 -0.5161
 1872TIP3    H127107   4.426   5.838   0.285  0.0177  0.2278 -0.5923
 1872TIP3    H227108   4.298   5.795   0.216  0.7943 -2.3089 -0.5459
 1873TIP3   OH227109   4.009   3.710   6.275 -0.1123 -0.0715  0.3179
 1873TIP3    H127110   4.067   3.644   6.312  0.2193 -0.8174 -1.4219
 1873TIP3    H227111   3.929   3.661   6.254  0.3987 -0.1455 -1.6532
 1874TIP3   OH227112   2.851   2.113  15.040  0.1367 -0.5306  0.6475
 1874TIP3    H127113   2.766   2.092  15.002  0.4467 -0.8777  0.1224
 1874TIP3    H227114   2.914   2.083  14.974  0.7744 -2.9500  2.2394
 1875TIP3   OH227115   2.447   2.025  15.860  0.0241 -0.2643  0.2772
 1875TIP3    H127116   2.488   2.071  15.934 -0.8340  0.6645  0.1983
 1875TIP3    H227117   2.361   2.000  15.893  0.2964 -1.4306  0.1549
 1876TIP3   OH227118   2.083   3.713  12.628 -0.6770  0.5241  0.7165
 1876TIP3    H127119   2.172   3.742  12.651 -0.8837  0.7793  1.2027
 1876TIP3    H227120   2.062   3.646  12.692 -0.9926  0.7492  0.8492
 1877TIP3   OH227121   4.265   4.571   2.534 -0.1215  0.1547  0.0892
 1877TIP3    H127122   4.182   4.617   2.539  0.5189  1.3704 -0.1732
 1877TIP3    H227123   4.310   4.592   2.615  0.5082  0.6557 -0.3814
 1878TIP3   OH227124   0.984   1.796   2.931  0.1188  0.1096  0.7046
 1878TIP3    H127125   1.079   1.803   2.926  0.2864 -0.3783  2.5001
 1878TIP3    H227126   0.952   1.844   2.854  1.7766  0.9036  0.4690
 1879TIP3   OH227127   2.770   1.831   4.632  0.7787 -0.2768  0.0460
 1879TIP3    H127128   2.774   1.882   4.551 -0.3921  2.8060  1.7467
 1879TIP3    H227129   2.858   1.839   4.669  0.3794  1.4954  0.7458
 1880TIP3   OH227130   2.531   3.033   2.891 -0.0644  0.3763 -0.2109
 1880TIP3    H127131   2.443   3.030   2.930  0.3154  0.6780  0.6938
 1880TIP3    H227132   2.551   2.941   2.872  0.3030  0.0169  1.6595
 1881TIP3   OH227133   2.077   2.614  13.692  0.2510  0.1497 -0.1754
 1881TIP3    H127134   2.076   2.695  13.643 -0.5047  0.2609  0.0069
 1881TIP3    H227135   2.104   2.547  13.629 -2.0943  0.0505 -1.1648
 1882TIP3   OH227136   2.310   0.677   0.459 -0.5639  0.2800 -0.0044
 1882TIP3    H127137   2.230   0.673   0.405 -0.9613  0.0672  0.5918
 1882TIP3    H227138   2.283   0.724   0.538 -0.0085  0.4926  0.0644
 1883TIP3   OH227139   3.122   5.281  13.721  0.8755  0.1401 -0.1007
 1883TIP3    H127140   3.136   5.202  13.773  0.6172 -0.0995 -0.3887
 1883TIP3    H227141   3.038   5.266  13.676  1.7108 -0.2280 -1.6093
 1884TIP3   OH227142   4.408   5.133   3.077 -0.5444  0.0906  0.4375
 1884TIP3    H127143   4.446   5.219   3.094  1.9058 -1.0736  1.4371
 1884TIP3    H227144   4.461   5.073   3.130 -1.7150 -2.1131 -0.7513
 1885TIP3   OH227145   3.035   4.774   2.672 -0.6173 -0.9365  0.6689
 1885TIP3    H127146   3.003   4.864   2.669 -0.7351 -0.9611  1.1431
 1885TIP3    H227147   3.129   4.783   2.689  0.5788 -0.6899 -4.3670
 1886TIP3   OH227148   3.224   6.366   9.727  0.0723 -0.1011  0.4562
 1886TIP3    H127149   3.262   6.279   9.737 -0.0723 -0.1402  0.6798
 1886TIP3    H227150   3.267   6.403   9.651  2.0487  0.6569  1.8717
 1887TIP3   OH227151   4.707   1.841  15.290 -0.4725  0.1829 -0.1919
 1887TIP3    H127152   4.700   1.935  15.273  0.3557  0.1644 -0.6870
 1887TIP3    H227153   4.658   1.800  15.220 -2.5412  0.2765  1.1255
 1888TIP3   OH227154   1.945   6.895   5.697  0.0289 -0.4864  0.0561
 1888TIP3    H127155   1.929   6.926   5.786 -0.0468 -3.1910  1.0759
 1888TIP3    H227156   2.029   6.849   5.702  0.1576 -0.4652 -1.3413
 1889TIP3   OH227157   2.323   5.090   4.636 -0.4139  0.5061 -0.0567
 1889TIP3    H127158   2.319   5.107   4.730 -1.8417  1.2703 -0.2272
 1889TIP3    H227159   2.319   4.995   4.628 -1.5231  0.4875  0.6137
 1890TIP3   OH227160   6.781   6.183  12.473 -0.1478  0.1054 -0.0189
 1890TIP3    H127161   6.845   6.213  12.409 -0.3577  0.5965 -0.0038
 1890TIP3    H227162   6.815   6.213  12.558 -1.7528  2.8511 -0.2487
 1891TIP3   OH227163   5.982   4.260   3.514  0.3993 -0.1126 -0.1256
 1891TIP3    H127164   5.918   4.330   3.503 -1.0512 -1.5842 -1.4584
 1891TIP3    H227165   6.041   4.269   3.439  1.6821  1.1034  0.9817
 1892TIP3   OH227166   5.647   4.791  14.901  0.2058  0.0211  0.1631
 1892TIP3    H127167   5.688   4.817  14.984 -2.1390 -0.3483  1.5411
 1892TIP3    H227168   5.661   4.866  14.843  0.7835  0.8348  1.3105
 1893TIP3   OH227169   3.064   3.596  11.259  0.3023 -0.0053  0.6623
 1893TIP3    H127170   2.969   3.609  11.249  0.4205  0.9284  0.6499
 1893TIP3    H227171   3.072   3.508  11.297 -0.5566 -0.1817  0.4695
 1894TIP3   OH227172   6.595   2.711  13.441  0.2717  0.1448  0.3676
 1894TIP3    H127173   6.519   2.684  13.389  0.4703 -1.8870  1.0410
 1894TIP3    H227174   6.595   2.651  13.516  2.3991  0.2310  0.4994
 1895TIP3   OH227175   1.188   2.016   4.886  0.3614  0.3517 -0.5162
 1895TIP3    H127176   1.276   2.013   4.849 -0.3464  4.6017 -3.2681
 1895TIP3    H227177   1.200   2.055   4.973  1.1742  2.7771 -1.6377
 1896TIP3   OH227178   6.731   1.050  16.226  0.1087 -0.1368  0.1188
 1896TIP3    H127179   6.737   0.988  16.153 -1.6783 -0.5955  0.3237
 1896TIP3    H227180   6.761   1.133  16.190 -1.5947 -0.1415 -1.4390
 1897TIP3   OH227181   1.675   6.624   3.224 -0.5013 -0.4781  0.2459
 1897TIP3    H127182   1.681   6.716   3.200 -2.3190 -0.5548 -0.5839
 1897TIP3    H227183   1.710   6.577   3.149 -0.8418 -0.5139  0.1097
 1898TIP3   OH227184   3.630   1.476  16.870  0.2203 -0.2087  0.2282
 1898TIP3    H127185   3.658   1.384  16.861  1.5200  0.2179 -0.3608
 1898TIP3    H227186   3.700   1.526  16.828 -1.0486  0.9975 -0.5162
 1899TIP3   OH227187   4.476   3.729  11.982  0.4020  0.3690  0.2471
 1899TIP3    H127188   4.481   3.786  12.059  2.0768  0.8496 -0.1706
 1899TIP3    H227189   4.445   3.645  12.016  3.0543 -0.0738  1.8785
 1900TIP3   OH227190   4.624   6.408  11.741  0.2287 -0.1433  0.1530
 1900TIP3    H127191   4.698   6.349  11.727 -0.8533 -1.7686  0.9116
 1900TIP3    H227192   4.623   6.463  11.663  1.2753 -1.1683 -0.6269
 1901TIP3   OH227193   2.177   4.792   1.581  0.4281 -0.4544 -0.4873
 1901TIP3    H127194   2.262   4.760   1.550 -0.1567 -0.2243 -2.4163
 1901TIP3    H227195   2.179   4.886   1.562 -0.4104 -0.5239 -0.9389
 1902TIP3   OH227196   1.934   5.764   4.297 -0.4970 -0.0761  0.0419
 1902TIP3    H127197   1.887   5.695   4.343 -1.5413 -0.1687 -1.1168
 1902TIP3    H227198   2.004   5.790   4.357 -0.4827 -1.6853  0.7556
 1903TIP3   OH227199   2.754   4.166  11.886 -0.8000  0.6048 -0.1945
 1903TIP3    H127200   2.810   4.099  11.847 -0.2834  0.3914  0.8711
 1903TIP3    H227201   2.692   4.189  11.817 -2.3865 -2.5014 -0.0038
 1904TIP3   OH227202   2.161   5.997  12.132  0.5161  0.2998 -0.7395
 1904TIP3    H127203   2.094   5.951  12.082  1.3169 -0.3661 -1.2240
 1904TIP3    H227204   2.167   6.083  12.091 -0.5333  0.6288 -0.2365
 1905TIP3   OH227205   6.651   6.251   1.006 -0.1427  0.5910 -0.4781
 1905TIP3    H127206   6.697   6.335   0.995 -0.1929  0.5543 -0.9709
 1905TIP3    H227207   6.590   6.247   0.932 -0.6367  0.4395 -0.0707
 1906TIP3   OH227208   5.022   3.988  16.524 -0.2465  0.4232  0.2747
 1906TIP3    H127209   4.939   4.011  16.483 -0.0822  0.0260 -0.2866
 1906TIP3    H227210   5.041   4.062  16.582 -0.8687  0.6248  0.2258
 1907TIP3   OH227211   5.806   2.282   2.548  0.2058 -0.0789 -0.5764
 1907TIP3    H127212   5.750   2.347   2.505 -1.6098 -0.3685  1.1960
 1907TIP3    H227213   5.764   2.199   2.530  0.6366 -0.4191 -0.0497
 1908TIP3   OH227214   1.049   2.736  14.214 -0.3793 -0.5711  0.0791
 1908TIP3    H127215   1.096   2.792  14.276  0.6627  0.5154 -1.6223
 1908TIP3    H227216   0.993   2.796  14.164 -2.5555 -1.6542  1.0658
 1909TIP3   OH227217   1.487   0.043   4.393 -0.3238  0.1881  1.3431
 1909TIP3    H127218   1.551   0.086   4.337  1.3837 -0.5638  2.6471
 1909TIP3    H227219   1.482  -0.047   4.360 -3.1963  0.9732 -0.7862
 1910TIP3   OH227220   2.091   2.726   0.457 -0.6818 -0.1981  0.1737
 1910TIP3    H127221   2.108   2.816   0.486 -0.1784 -0.5258  0.9492
 1910TIP3    H227222   2.139   2.672   0.520 -0.7081 -0.9986 -0.4804
 1911TIP3   OH227223   5.179   3.899  11.809  0.5000 -0.5140 -0.2615
 1911TIP3    H127224   5.245   3.841  11.848  0.4517  0.2478  1.0154
 1911TIP3    H227225   5.139   3.943  11.884 -1.2416 -0.7133 -1.0294
 1912TIP3   OH227226   5.221   1.330   2.192 -0.3990 -0.6240 -0.2702
 1912TIP3    H127227   5.163   1.393   2.236  0.3265 -0.4145  0.4251
 1912TIP3    H227228   5.237   1.263   2.258  1.3365  0.0947  0.0971
 1913TIP3   OH227229   4.163   5.310   1.331 -0.3394 -0.6098  0.2911
 1913TIP3    H127230   4.170   5.242   1.265 -0.7592 -0.6724  0.3059
 1913TIP3    H227231   4.134   5.388   1.283  2.2108  0.1726 -0.0955
 1914TIP3   OH227232   2.431   3.195  15.308 -0.0560  0.1415  0.4075
 1914TIP3    H127233   2.388   3.277  15.332 -2.0581 -1.0209  1.0170
 1914TIP3    H227234   2.378   3.127  15.349  1.9773 -1.4556  0.5605
 1915TIP3   OH227235   5.161   1.987   5.120 -0.2271  0.6392 -0.2132
 1915TIP3    H127236   5.087   1.950   5.072 -0.0851  0.0935 -0.0187
 1915TIP3    H227237   5.238   1.952   5.076 -0.0747 -1.4815  1.5684
 1916TIP3   OH227238   4.402   0.364   3.494 -0.2882 -0.1558 -0.2362
 1916TIP3    H127239   4.496   0.378   3.479 -0.6441  0.9084 -1.7407
 1916TIP3    H227240   4.369   0.450   3.518 -1.1721 -0.1106 -1.5257
 1917TIP3   OH227241   0.870   3.152  13.845  0.0799  0.3406  0.0154
 1917TIP3    H127242   0.889   3.132  13.754 -1.2500  0.0441 -0.2139
 1917TIP3    H227243   0.889   3.071  13.892  0.4305  0.3895 -0.0350
 1918TIP3   OH227244   2.628   6.560  14.405 -0.0345  0.2439  0.0708
 1918TIP3    H127245   2.567   6.594  14.471  0.5252 -0.2576  0.8743
 1918TIP3    H227246   2.670   6.485  14.448 -0.6868 -1.0012 -1.3865
 1919TIP3   OH227247   4.272   6.064  13.998  0.2677 -0.3845 -0.7182
 1919TIP3    H127248   4.333   6.070  13.924 -0.1867  0.2729 -1.0569
 1919TIP3    H227249   4.198   6.013  13.963 -1.0979  1.9998 -1.5841
 1920TIP3   OH227250   4.990   6.302  11.225  0.3123 -0.2941 -0.1935
 1920TIP3    H127251   4.902   6.318  11.191 -0.6307  1.0843  2.5596
 1920TIP3    H227252   5.047   6.356  11.170 -0.9070  0.7488 -0.4879
 1921TIP3   OH227253   4.458   4.861  11.614  0.3627 -0.0906  0.2395
 1921TIP3    H127254   4.364   4.858  11.632  0.2198  1.0988 -0.2411
 1921TIP3    H227255   4.468   4.811  11.533 -0.1798  1.5471 -0.8773
 1922TIP3   OH227256   0.809   3.607  10.215 -0.4083  0.6545  0.3388
 1922TIP3    H127257   0.760   3.575  10.290 -0.2361 -1.0164 -0.2412
 1922TIP3    H227258   0.814   3.702  10.229  0.7223  0.2916  3.1169
 1923TIP3   OH227259   1.687   4.120  11.464  0.1568  1.0667  0.3769
 1923TIP3    H127260   1.766   4.102  11.413 -0.0081 -0.2872  0.5675
 1923TIP3    H227261   1.650   4.199  11.423 -0.9213 -0.9010 -2.8190
 1924TIP3   OH227262   6.348   4.964   5.047 -0.1180 -0.6738 -0.1053
 1924TIP3    H127263   6.413   4.898   5.024  0.1343 -0.4759  0.0302
 1924TIP3    H227264   6.269   4.914   5.067 -0.2525 -0.8740 -1.0589
 1925TIP3   OH227265   5.424   0.435   3.499  0.2585 -0.0034 -0.2502
 1925TIP3    H127266   5.451   0.416   3.589  1.4121 -1.3358 -0.8356
 1925TIP3    H227267   5.493   0.397   3.444 -0.0575  1.3806 -1.6980
 1926TIP3   OH227268   4.873   4.178   2.630  0.4811  0.1709 -0.1036
 1926TIP3    H127269   4.873   4.083   2.616 -0.8614  0.3483 -1.5836
 1926TIP3    H227270   4.805   4.193   2.695 -1.0422  0.2948 -1.6665
 1927TIP3   OH227271   4.890   3.621   1.961  0.1046 -0.6857  0.2286
 1927TIP3    H127272   4.905   3.624   2.056 -0.0894 -0.5891  0.2576
 1927TIP3    H227273   4.971   3.586   1.925 -0.5588 -2.8038  0.6238
 1928TIP3   OH227274   5.460   1.386   0.801  0.0254 -0.2201  0.7375
 1928TIP3    H127275   5.379   1.338   0.819  0.8095 -2.3977 -1.0744
 1928TIP3    H227276   5.480   1.367   0.709  0.4205  3.6998 -0.1744
 1929TIP3   OH227277   5.723   1.190   5.086 -0.3064 -0.3708 -0.0294
 1929TIP3    H127278   5.652   1.191   5.149 -0.4575  0.2831 -0.2037
 1929TIP3    H227279   5.680   1.197   5.001 -0.0818 -0.8050 -0.1798
 1930TIP3   OH227280   5.597   1.262  13.439 -0.0319  0.0759  0.3401
 1930TIP3    H127281   5.569   1.193  13.499  0.7621 -0.8689 -0.3543
 1930TIP3    H227282   5.525   1.269  13.376 -0.0528 -0.2177  0.3288
 1931TIP3   OH227283   2.732   2.058  15.790 -0.0235 -0.0822 -0.5492
 1931TIP3    H127284   2.815   2.011  15.789  0.8900  1.4444 -0.4691
 1931TIP3    H227285   2.713   2.071  15.883 -0.2519 -0.2581 -0.5708
 1932TIP3   OH227286   3.225   0.680   4.012  0.0722  0.2466  0.0295
 1932TIP3    H127287   3.137   0.697   4.043 -0.5640  1.7436 -2.3284
 1932TIP3    H227288   3.219   0.595   3.967 -0.1934  0.3603 -0.1518
 1933TIP3   OH227289   6.784   0.917  15.996  0.3086  0.0305  0.0191
 1933TIP3    H127290   6.736   0.892  15.916 -0.7028 -1.1086  0.9348
 1933TIP3    H227291   6.876   0.914  15.970  0.1014 -2.0806 -0.6923
 1934TIP3   OH227292   3.049   2.978   0.182  0.3184 -0.1538  0.1237
 1934TIP3    H127293   3.009   3.030   0.113 -0.2166  0.7337  1.0881
 1934TIP3    H227294   3.052   2.889   0.145 -0.2392  0.2346 -0.9161
 1935TIP3   OH227295   1.404   1.228  13.982  0.1478 -0.1346 -0.5656
 1935TIP3    H127296   1.469   1.297  13.992 -0.2231  0.5246 -2.3685
 1935TIP3    H227297   1.389   1.221  13.888 -1.2515 -1.3409 -0.3051
 1936TIP3   OH227298   3.310   4.606   2.892 -0.4457 -0.1498 -0.2187
 1936TIP3    H127299   3.272   4.685   2.854  2.7922  1.0814 -1.1717
 1936TIP3    H227300   3.316   4.544   2.819 -0.9545 -0.5214  0.0398
 1937TIP3   OH227301   0.792   3.892   4.745  0.0150  0.3267  0.2597
 1937TIP3    H127302   0.699   3.877   4.758 -0.1794  1.9505  0.8504
 1937TIP3    H227303   0.815   3.961   4.807  1.4113  0.6101 -0.5244
 1938TIP3   OH227304   6.232   6.634   4.051 -0.0511  0.3154  0.1613
 1938TIP3    H127305   6.164   6.585   4.097 -0.7649  1.9112  0.8706
 1938TIP3    H227306   6.184   6.686   3.986  0.5629  0.9040  0.1721
 1939TIP3   OH227307   4.928   5.529  15.333 -0.2823 -0.0403 -0.0426
 1939TIP3    H127308   5.002   5.573  15.290  0.0195 -0.1148  0.3948
 1939TIP3    H227309   4.946   5.436  15.321 -0.6335 -0.0503 -0.4858
 1940TIP3   OH227310   6.432   4.094   5.263 -0.7936  0.2386 -0.5073
 1940TIP3    H127311   6.389   4.180   5.259 -1.4527  0.0355  1.4836
 1940TIP3    H227312   6.461   4.085   5.353  0.7942 -0.9435 -1.0888
 1941TIP3   OH227313   6.361   3.023   1.461 -0.0042  0.1881  0.5363
 1941TIP3    H127314   6.362   3.119   1.459 -0.3291  0.1863  0.2909
 1941TIP3    H227315   6.318   3.002   1.543 -0.2894  0.2535  0.4047
 1942TIP3   OH227316   1.157   5.045   0.873 -0.0343 -0.3285 -0.0270
 1942TIP3    H127317   1.071   5.067   0.837  0.1583 -0.4166 -0.5462
 1942TIP3    H227318   1.141   5.032   0.967 -0.4603  0.3344 -0.0021
 1943TIP3   OH227319   1.525   2.418   0.074  0.3538  0.2533  0.2047
 1943TIP3    H127320   1.564   2.464   0.149  0.0959  0.1229  0.4225
 1943TIP3    H227321   1.432   2.442   0.077  0.0953 -0.7557  0.6834
 1944TIP3   OH227322   2.090   2.074   3.635  0.2945  0.4007 -0.2967
 1944TIP3    H127323   2.184   2.064   3.647  0.1015 -0.0041  0.9573
 1944TIP3    H227324   2.074   2.167   3.650  0.3395  0.2642  0.6013
 1945TIP3   OH227325   0.588   1.966   4.860  0.0862 -0.3918  0.8005
 1945TIP3    H127326   0.580   1.921   4.944  0.3432  0.3141  1.2014
 1945TIP3    H227327   0.619   2.053   4.881  2.6362 -0.9745 -0.2196
 1946TIP3   OH227328   5.306   1.640  11.176  0.0204 -0.2468  0.0917
 1946TIP3    H127329   5.355   1.660  11.256 -1.2252  0.5494  0.6762
 1946TIP3    H227330   5.345   1.558  11.144 -0.1029 -1.1046  2.0412
 1947TIP3   OH227331   0.908   4.924   2.139  0.1350  0.6532 -0.0724
 1947TIP3    H127332   0.863   4.840   2.138  0.5553  0.3894  1.1455
 1947TIP3    H227333   0.921   4.946   2.047  1.1199 -1.2039 -0.4230
 1948TIP3   OH227334   4.850   4.822  10.420 -0.2699  0.7637 -0.3290
 1948TIP3    H127335   4.773   4.809  10.365 -0.3533  0.0002 -0.0388
 1948TIP3    H227336   4.924   4.824  10.359 -0.5566  2.0831 -0.6668
 1949TIP3   OH227337   5.267   3.713  16.112 -0.2199 -0.4678 -0.1342
 1949TIP3    H127338   5.311   3.781  16.062  1.1099  0.0408  1.6361
 1949TIP3    H227339   5.182   3.751  16.135  1.1682  1.4543  2.3642
 1950TIP3   OH227340   6.267   6.891   1.525 -0.0170  0.2216  0.4255
 1950TIP3    H127341   6.330   6.921   1.591  1.5816 -1.6522 -0.1490
 1950TIP3    H227342   6.227   6.971   1.492  1.3189  1.4236  1.5514
 1951TIP3   OH227343   2.446   0.529  15.174  0.0800  0.5231 -0.1147
 1951TIP3    H127344   2.451   0.593  15.245  0.6395  1.2655 -0.7958
 1951TIP3    H227345   2.360   0.543  15.135 -0.3980 -0.1731  0.6605
 1952TIP3   OH227346   0.812   2.792   0.540  0.1501  0.6919 -0.0932
 1952TIP3    H127347   0.764   2.764   0.462 -0.1516 -0.2435  0.4087
 1952TIP3    H227348   0.759   2.862   0.578 -0.8945 -0.3738  0.4946
 1953TIP3   OH227349   5.801   5.129  15.159  0.3396  0.3151  0.5891
 1953TIP3    H127350   5.779   5.147  15.067 -1.4029  1.3598  1.1582
 1953TIP3    H227351   5.871   5.191  15.179 -0.7117  1.5791  0.5098
 1954TIP3   OH227352   0.799   4.550   1.091  0.0456  0.4022 -0.3712
 1954TIP3    H127353   0.715   4.585   1.059 -0.7434 -1.5545 -0.5405
 1954TIP3    H227354   0.786   4.543   1.186 -0.2519 -0.5699 -0.4795
 1955TIP3   OH227355   4.538   4.627  14.644  0.0849  0.1760  0.3477
 1955TIP3    H127356   4.506   4.717  14.648 -0.5195 -0.0197  0.0949
 1955TIP3    H227357   4.596   4.625  14.568 -1.6600 -0.1718 -1.0428
 1956TIP3   OH227358   6.839   3.525   0.134  0.0737 -0.3250 -0.3387
 1956TIP3    H127359   6.861   3.611   0.097 -0.0431  0.1907  0.7448
 1956TIP3    H227360   6.748   3.533   0.162 -0.7349 -1.5997 -2.3843
 1957TIP3   OH227361   0.527   3.278   2.128 -0.3144  0.1085  0.3414
 1957TIP3    H127362   0.553   3.255   2.217  0.5116 -1.8708 -0.3549
 1957TIP3    H227363   0.549   3.371   2.119 -1.3098  0.5924  2.4805
 1958TIP3   OH227364   0.025   2.822   0.652 -0.4579 -0.2286  0.5371
 1958TIP3    H127365  -0.007   2.821   0.562  0.5507  0.8431  0.1336
 1958TIP3    H227366  -0.050   2.849   0.704 -0.5869  1.0087 -0.2399
 1959TIP3   OH227367   3.059   1.563  14.211  0.2207 -0.1311  0.6728
 1959TIP3    H127368   3.062   1.476  14.250 -1.8379 -0.9538 -0.8088
 1959TIP3    H227369   3.012   1.616  14.274 -0.7603 -0.7711  0.5016
 1960TIP3   OH227370   3.743   2.208  11.867  0.2427 -0.1757  0.2967
 1960TIP3    H127371   3.800   2.141  11.830  0.1142  0.6914 -1.6417
 1960TIP3    H227372   3.792   2.243  11.941  1.2638 -0.9340  0.0055
 1961TIP3   OH227373   3.523   6.868  12.496  0.3705  0.6584 -0.2535
 1961TIP3    H127374   3.435   6.836  12.517  1.1596  0.7204  4.0093
 1961TIP3    H227375   3.565   6.794  12.453 -1.1283 -0.1085 -0.4829
 1962TIP3   OH227376   3.694   0.596   2.811  0.4552 -0.6556  0.4421
 1962TIP3    H127377   3.712   0.516   2.761  0.0955 -1.8856  2.2167
 1962TIP3    H227378   3.764   0.656   2.785 -0.0373 -1.0071 -1.9588
 1963TIP3   OH227379   1.616   4.609  16.161  0.1430  0.0847  0.2892
 1963TIP3    H127380   1.575   4.691  16.131 -1.4760 -0.5387  0.6690
 1963TIP3    H227381   1.544   4.561  16.202  1.0969 -1.4872  0.1731
 1964TIP3   OH227382   4.294   5.622   1.736 -0.3178 -0.4228  0.0947
 1964TIP3    H127383   4.245   5.608   1.655 -0.2242 -1.1136  0.1519
 1964TIP3    H227384   4.368   5.561   1.731  0.0127 -0.0592  0.4358
 1965TIP3   OH227385   2.807   5.850  15.839 -0.6686 -0.1106 -0.3886
 1965TIP3    H127386   2.883   5.865  15.784 -1.4782 -0.7292 -1.7395
 1965TIP3    H227387   2.733   5.881  15.787 -1.3052  1.2295  1.2119
 1966TIP3   OH227388   4.596   5.994   3.302  0.2791 -0.3473  0.0075
 1966TIP3    H127389   4.691   5.990   3.315  0.3317  0.9173  0.0819
 1966TIP3    H227390   4.560   5.943   3.374  0.8554  0.4050  0.8504
 1967TIP3   OH227391   0.056   6.638   3.999  0.4990 -0.1582  0.2134
 1967TIP3    H127392  -0.030   6.615   4.033 -0.0431 -0.7350 -1.4497
 1967TIP3    H227393   0.054   6.733   3.989  0.4281 -0.0595  1.1055
 1968TIP3   OH227394   6.701   4.195   3.001  0.3159  0.1268 -0.4047
 1968TIP3    H127395   6.605   4.196   2.992  0.1036  0.9997  1.4672
 1968TIP3    H227396   6.723   4.281   3.036  1.4654 -0.9120  1.6521
 1969TIP3   OH227397   6.702   0.870  14.799 -0.3312  0.6836  0.2451
 1969TIP3    H127398   6.616   0.899  14.830  0.8161  2.3642  2.1313
 1969TIP3    H227399   6.693   0.775  14.791 -1.9099  0.6159  1.9872
 1970TIP3   OH227400   2.041   6.027  14.826  0.2223  0.6137  0.2107
 1970TIP3    H127401   2.112   6.049  14.886 -1.2404 -0.1770  2.3820
 1970TIP3    H227402   1.962   6.061  14.870 -1.0846 -1.2999 -0.5413
 1971TIP3   OH227403   4.608   1.645   2.387 -0.2172 -0.2587 -0.2167
 1971TIP3    H127404   4.647   1.592   2.456  0.0797 -2.2736 -1.8326
 1971TIP3    H227405   4.535   1.592   2.355 -1.7283  1.6034 -0.0485
 1972TIP3   OH227406   6.187   3.072   2.996 -0.1728  0.1268 -0.2772
 1972TIP3    H127407   6.176   3.036   3.084 -0.1808 -1.0639 -0.7465
 1972TIP3    H227408   6.262   3.132   3.003  0.8594 -1.1753  0.2034
 1973TIP3   OH227409   3.932   5.525   5.009  0.1359 -0.3973 -0.2397
 1973TIP3    H127410   3.894   5.589   5.069  0.6812 -1.2680  1.0736
 1973TIP3    H227411   3.893   5.441   5.036  1.8567 -1.0882  0.1888
 1974TIP3   OH227412   4.748   5.891  15.243 -0.1596  0.7977 -0.4478
 1974TIP3    H127413   4.824   5.881  15.186  0.9153  1.4578  0.8313
 1974TIP3    H227414   4.706   5.972  15.214 -1.1413 -0.1968 -1.9688
 1975TIP3   OH227415   5.531   0.638  12.807 -0.2906 -0.0796 -0.2244
 1975TIP3    H127416   5.456   0.698  12.798  0.0498  0.4704  0.5391
 1975TIP3    H227417   5.607   0.691  12.782 -0.0647 -0.4102 -0.2430
 1976TIP3   OH227418   6.520   6.473   2.164  0.9196  0.1337  0.4570
 1976TIP3    H127419   6.603   6.522   2.164  0.8153  0.3249  1.4197
 1976TIP3    H227420   6.461   6.526   2.218  0.3723 -0.3474  0.3344
 1977TIP3   OH227421   0.631   4.078  14.305  0.2134  0.4080  0.5960
 1977TIP3    H127422   0.671   4.059  14.220 -0.1684 -2.2944  0.9246
 1977TIP3    H227423   0.537   4.064  14.291  0.2071 -0.6455  1.5606
 1978TIP3   OH227424   2.553   4.150   1.196 -0.4550 -0.0669 -0.1793
 1978TIP3    H127425   2.470   4.183   1.232 -0.0521  0.0935  0.6378
 1978TIP3    H227426   2.602   4.229   1.172  0.9277  0.0881  2.7132
 1979TIP3   OH227427   4.825   6.287  15.370  0.0476  0.0610 -0.4322
 1979TIP3    H127428   4.844   6.319  15.282 -2.1450  0.9691 -0.6502
 1979TIP3    H227429   4.792   6.364  15.417  1.4079 -0.3453  1.2888
 1980TIP3   OH227430   2.215   5.134   1.088  0.3360 -0.0577 -0.5170
 1980TIP3    H127431   2.215   5.222   1.124 -2.7585 -0.0363 -0.2886
 1980TIP3    H227432   2.146   5.135   1.022  0.2108 -2.3131 -0.5012
 1981TIP3   OH227433   1.718   3.519   1.896 -0.5139 -0.5240 -0.2918
 1981TIP3    H127434   1.768   3.491   1.819  1.6816  1.5007  0.2953
 1981TIP3    H227435   1.666   3.593   1.865  0.8681  0.7182  0.2440
 1982TIP3   OH227436   4.381   6.241  15.716 -0.3315  0.3379  0.0266
 1982TIP3    H127437   4.286   6.255  15.709 -0.4508  0.1289  1.0122
 1982TIP3    H227438   4.419   6.325  15.691 -0.7266  0.1884 -1.1614
 1983TIP3   OH227439   1.790   5.450   3.910 -0.0957  0.4509  0.5856
 1983TIP3    H127440   1.877   5.411   3.910 -1.1861 -2.3819 -1.9950
 1983TIP3    H227441   1.796   5.523   3.848  0.4680  0.3520  0.5227
 1984TIP3   OH227442   2.846   2.511  14.514 -0.2826 -0.1768 -0.3127
 1984TIP3    H127443   2.834   2.445  14.581  0.7022  0.6885  0.7575
 1984TIP3    H227444   2.757   2.542  14.494 -0.7505 -1.7483 -0.8150
 1985TIP3   OH227445   6.555   6.853   5.523  0.8623  0.0802  0.8425
 1985TIP3    H127446   6.630   6.805   5.556  0.5167 -0.8726  0.2689
 1985TIP3    H227447   6.573   6.862   5.429 -0.7724 -2.1511  0.2502
 1986TIP3   OH227448   1.225   4.029   4.653  0.0355  0.1504  0.4368
 1986TIP3    H127449   1.165   3.979   4.598  0.8965 -0.0431 -0.3365
 1986TIP3    H227450   1.172   4.104   4.683 -0.5591  0.0469 -0.3149
 1987TIP3   OH227451   3.868   2.278  12.108  0.1144  0.0411  0.2672
 1987TIP3    H127452   3.939   2.216  12.117 -0.7169 -0.9591  0.1402
 1987TIP3    H227453   3.804   2.252  12.175 -0.8166 -0.0576 -0.6269
 1988TIP3   OH227454   1.080   0.824  11.603  0.1404 -0.1953 -0.3883
 1988TIP3    H127455   1.174   0.825  11.585  0.0290 -1.9232 -1.2670
 1988TIP3    H227456   1.062   0.910  11.641  1.9003  0.5318 -1.0902
 1989TIP3   OH227457   0.530   0.868  11.778 -0.5593 -0.3951  0.2942
 1989TIP3    H127458   0.552   0.887  11.687 -0.2809 -1.0319  0.2238
 1989TIP3    H227459   0.583   0.791  11.800  0.7531  0.8288  1.5559
 1990TIP3   OH227460   6.020   6.009   4.341  0.5891  0.6902 -0.6429
 1990TIP3    H127461   5.954   5.982   4.278  1.8967 -1.2496 -1.2702
 1990TIP3    H227462   5.983   5.988   4.427  0.8401 -1.5720 -1.0418
 1991TIP3   OH227463   3.317   2.701  13.436  0.5238  0.2755  0.3114
 1991TIP3    H127464   3.298   2.695  13.342  0.2973 -0.7830  0.4131
 1991TIP3    H227465   3.407   2.671  13.444  1.1677  2.0900  0.2363
 1992TIP3   OH227466   4.221   4.134  13.957  0.4759  0.0045 -0.2115
 1992TIP3    H127467   4.140   4.184  13.951 -0.2040 -1.1903 -1.8681
 1992TIP3    H227468   4.213   4.085  14.040  0.4635  1.4086  0.6444
 1993TIP3   OH227469   6.874   3.227  14.392  0.1428  0.2031  0.1374
 1993TIP3    H127470   6.821   3.305  14.409  0.9514  0.6607  0.6389
 1993TIP3    H227471   6.955   3.261  14.353  0.8487 -0.2927  1.1155
 1994TIP3   OH227472   6.541   5.547   4.252  0.2331  0.2237  0.5489
 1994TIP3    H127473   6.607   5.559   4.320  0.0020 -0.0481  0.8286
 1994TIP3    H227474   6.470   5.500   4.296 -0.9688  2.1336  0.7532
 1995TIP3   OH227475   2.158   4.791   5.078 -0.4663 -0.1403  0.2121
 1995TIP3    H127476   2.101   4.748   5.142  0.2508 -0.3052  0.7563
 1995TIP3    H227477   2.244   4.752   5.092 -0.6969 -1.7180 -2.3265
 1996TIP3   OH227478   4.785   5.160  12.758 -0.6702 -0.7973 -0.3014
 1996TIP3    H127479   4.764   5.082  12.706 -3.0141  0.7696 -1.9218
 1996TIP3    H227480   4.846   5.129  12.825  0.8987 -3.3934 -2.6930
 1997TIP3   OH227481   0.370   5.553  15.651  0.2723  0.1262 -0.2107
 1997TIP3    H127482   0.389   5.522  15.562  1.5525  0.7264 -0.1657
 1997TIP3    H227483   0.283   5.593  15.645 -0.8545 -2.1787 -0.5783
 1998TIP3   OH227484   1.211   1.030  16.110 -0.0090  0.3496  0.4285
 1998TIP3    H127485   1.122   1.065  16.107  0.1927  1.1501  2.2639
 1998TIP3    H227486   1.255   1.083  16.176  1.4607 -0.8944  0.5002
 1999TIP3   OH227487   5.559   0.187  12.393  0.6027 -0.0779  0.6224
 1999TIP3    H127488   5.495   0.144  12.337  1.3530 -0.8953  0.3656
 1999TIP3    H227489   5.616   0.235  12.332 -1.6938  3.5197  1.0044
 2000TIP3   OH227490   4.687   4.470   3.668 -0.3535  0.2582 -0.1597
 2000TIP3    H127491   4.771   4.504   3.698 -0.2652  1.5221 -1.6822
 2000TIP3    H227492   4.705   4.379   3.644 -0.1895 -0.4626  2.3717
 2001TIP3   OH227493   1.967   0.297   0.559 -0.3725  0.2079  0.1723
 2001TIP3    H127494   2.023   0.336   0.493 -0.4068 -1.7853 -1.1348
 2001TIP3    H227495   2.027   0.248   0.616 -0.5023  0.5628  0.6198
 2002TIP3   OH227496   1.483   1.483  12.330 -0.0927  0.3573  0.3431
 2002TIP3    H127497   1.513   1.525  12.410  1.5280 -1.1279  0.5765
 2002TIP3    H227498   1.440   1.553  12.281  2.2089  2.2226  0.8167
 2003TIP3   OH227499   4.641   1.666  16.630 -0.4245 -0.6894 -0.5917
 2003TIP3    H127500   4.557   1.655  16.585 -1.2606  0.6835  0.5396
 2003TIP3    H227501   4.626   1.636  16.719  0.3132 -0.5185 -0.3963
 2004TIP3   OH227502   3.367   4.419   0.970  0.2870  0.3930  0.3660
 2004TIP3    H127503   3.458   4.418   0.998  0.1521 -1.0303  0.8411
 2004TIP3    H227504   3.347   4.327   0.949 -1.2896  0.5080  1.1914
 2005TIP3   OH227505   0.650   2.397  11.836  0.2028 -0.1987  0.0781
 2005TIP3    H127506   0.737   2.404  11.797  1.1514 -2.1431  1.6443
 2005TIP3    H227507   0.623   2.306  11.818 -1.3320  0.2443  0.0003
 2006TIP3   OH227508   1.266   6.356  16.029 -0.0506 -0.1506  0.1627
 2006TIP3    H127509   1.259   6.422  15.961 -1.0395  1.6689  1.9463
 2006TIP3    H227510   1.360   6.337  16.034  0.0548 -0.2693 -1.5806
 2007TIP3   OH227511   0.347   5.315   3.309  0.2203  0.7546 -0.4124
 2007TIP3    H127512   0.434   5.336   3.277  1.2961 -0.5583  1.4277
 2007TIP3    H227513   0.312   5.252   3.246  0.3893  1.6532 -1.4157
 2008TIP3   OH227514   4.580   5.111   4.815 -0.6573  0.0052  0.0394
 2008TIP3    H127515   4.555   5.090   4.725 -2.2626  1.6955  0.0238
 2008TIP3    H227516   4.549   5.037   4.867  0.3822 -1.0351 -0.7883
 2009TIP3   OH227517   2.335   4.024  12.309 -0.5878 -0.7470  0.3279
 2009TIP3    H127518   2.353   3.941  12.264  2.2580  0.0492 -0.2273
 2009TIP3    H227519   2.246   4.014  12.343  0.1805 -4.6801  1.7667
 2010TIP3   OH227520   3.207   4.301  15.060 -0.1879  0.0201  0.6423
 2010TIP3    H127521   3.157   4.339  14.989  1.5050  0.3088 -0.4551
 2010TIP3    H227522   3.188   4.357  15.136 -0.1272  1.1879 -0.1882
 2011TIP3   OH227523   1.676   2.059  14.560  0.0871 -0.3263 -0.2602
 2011TIP3    H127524   1.655   2.085  14.471 -1.3884 -0.3301  0.0616
 2011TIP3    H227525   1.692   1.964  14.554 -2.4422 -0.8291 -0.1783
 2012TIP3   OH227526   5.315   1.523   4.126 -0.0673 -0.0392  0.9326
 2012TIP3    H127527   5.234   1.490   4.165  0.3501  0.2247  2.0609
 2012TIP3    H227528   5.370   1.445   4.115 -0.7479 -0.3420 -0.5876
 2013TIP3   OH227529   3.066   2.265   1.816  0.1457 -0.0993 -0.2604
 2013TIP3    H127530   3.130   2.325   1.777  0.1061  0.3088  0.2982
 2013TIP3    H227531   2.992   2.320   1.841 -1.3288 -0.8226 -2.6963
 2014TIP3   OH227532   3.226   5.539   0.604 -0.0682 -0.6376 -0.9703
 2014TIP3    H127533   3.140   5.525   0.642 -1.1405 -1.4392 -3.4427
 2014TIP3    H227534   3.221   5.625   0.563  1.3926  0.6543  1.3793
 2015TIP3   OH227535   1.412   2.766  13.513 -0.1095  0.0914  0.0939
 2015TIP3    H127536   1.342   2.831  13.514  0.7637  1.0436  0.1412
 2015TIP3    H227537   1.448   2.770  13.425  1.6771  1.5842  0.8426
 2016TIP3   OH227538   4.079   1.286   1.480  0.0884 -0.6630 -0.0156
 2016TIP3    H127539   4.000   1.336   1.498  0.0219 -0.6579 -0.3182
 2016TIP3    H227540   4.050   1.215   1.422  0.6694  0.5711 -1.9188
 2017TIP3   OH227541   6.809   2.614  11.883 -0.3404  0.2501  0.4643
 2017TIP3    H127542   6.757   2.533  11.876  0.6675 -0.3961  0.2595
 2017TIP3    H227543   6.890   2.586  11.925  0.2667  1.0408 -0.1600
 2018TIP3   OH227544   6.064   5.292   0.702 -0.5066 -0.2966 -0.5994
 2018TIP3    H127545   5.994   5.357   0.699  1.3808  1.8251 -1.2152
 2018TIP3    H227546   6.111   5.310   0.783  0.5690 -0.2744 -1.2070
 2019TIP3   OH227547   6.819   4.981   1.963 -0.3132  0.0690  0.2999
 2019TIP3    H127548   6.743   4.922   1.960 -1.6871  1.5522  2.5719
 2019TIP3    H227549   6.893   4.926   1.938 -1.5336 -2.6411  2.1026
 2020TIP3   OH227550   0.343   3.674   5.068 -0.0002  0.4411 -0.4653
 2020TIP3    H127551   0.326   3.590   5.027  0.7602 -0.4125  0.8687
 2020TIP3    H227552   0.424   3.660   5.118 -1.1989  1.1759  1.8440
 2021TIP3   OH227553   4.200   6.121   4.875  0.0087  0.2374 -0.7137
 2021TIP3    H127554   4.117   6.077   4.857  0.1711 -0.2509 -0.2938
 2021TIP3    H227555   4.267   6.062   4.841  0.5925 -2.3696  4.0187
 2022TIP3   OH227556   2.111   0.315   0.965  0.0887 -0.3587  0.0788
 2022TIP3    H127557   2.033   0.261   0.976 -1.5421  1.5041 -1.5206
 2022TIP3    H227558   2.080   0.393   0.918  2.4741  1.5267  1.3738
 2023TIP3   OH227559   1.575   3.705  14.103  0.2904  0.0433 -0.0285
 2023TIP3    H127560   1.661   3.693  14.061 -0.0369  0.4733 -0.8432
 2023TIP3    H227561   1.580   3.652  14.183  1.6389  0.7680  0.4017
 2024TIP3   OH227562   3.557   3.752  12.351 -0.0142 -0.3929 -0.6177
 2024TIP3    H127563   3.507   3.680  12.311  1.5885 -1.6397 -0.4553
 2024TIP3    H227564   3.570   3.815  12.280 -1.3342 -0.2904 -0.7934
 2025TIP3   OH227565   6.336   1.028   3.851  0.3481 -0.0500  0.2030
 2025TIP3    H127566   6.387   0.964   3.899 -1.1981 -2.7055 -1.4581
 2025TIP3    H227567   6.375   1.030   3.764  0.9873  2.1056  0.4789
 2026TIP3   OH227568   1.152   3.652   4.993 -0.3984  0.2314 -0.6848
 2026TIP3    H127569   1.175   3.745   4.998 -0.1675  0.1391  0.5603
 2026TIP3    H227570   1.079   3.643   5.053  0.5550 -0.6386  0.3982
 2027TIP3   OH227571   6.395   5.908  15.920  0.5213  0.2341  0.2423
 2027TIP3    H127572   6.302   5.886  15.926  0.5511  0.3864  1.5607
 2027TIP3    H227573   6.407   5.978  15.985  1.9404 -1.1933  1.6182
 2028TIP3   OH227574   1.736   2.801   1.321 -0.3020 -0.2933 -0.0887
 2028TIP3    H127575   1.761   2.735   1.386  0.6799  0.4003  0.2589
 2028TIP3    H227576   1.755   2.759   1.237 -2.1604 -1.4322  0.0031
 2029TIP3   OH227577   0.046   4.555   3.950 -0.0183 -0.2111 -0.6959
 2029TIP3    H127578   0.064   4.462   3.966  2.0374  0.2178 -0.2421
 2029TIP3    H227579   0.068   4.568   3.858 -0.8501 -0.2785 -0.9096
 2030TIP3   OH227580   6.131   0.071  15.396  0.0704  0.3716 -0.0184
 2030TIP3    H127581   6.122   0.064  15.301 -1.2181 -0.3417  0.1271
 2030TIP3    H227582   6.220   0.103  15.410 -0.1405  1.7087 -1.5058
 2031TIP3   OH227583   5.701   2.341  16.119  0.4020  0.0515 -0.1040
 2031TIP3    H127584   5.620   2.383  16.147  0.6133  1.5258 -1.5192
 2031TIP3    H227585   5.729   2.289  16.194 -1.3339  0.2740  0.7474
 2032TIP3   OH227586   6.900   4.785  14.839  0.3065 -0.2099 -0.9825
 2032TIP3    H127587   6.959   4.842  14.789  0.3932 -0.8146 -1.5763
 2032TIP3    H227588   6.958   4.740  14.901  0.1503  0.7972 -0.0785
 2033TIP3   OH227589   0.790   6.464   5.096 -0.1457 -0.2733  0.1780
 2033TIP3    H127590   0.869   6.429   5.138  0.9074  1.1738 -0.5262
 2033TIP3    H227591   0.753   6.388   5.050  0.9848 -0.9198  0.2795
 2034TIP3   OH227592   1.071   0.022   6.272  0.3869 -0.0333  0.0726
 2034TIP3    H127593   1.157   0.058   6.246  1.0549 -0.4083  1.6682
 2034TIP3    H227594   1.016   0.099   6.285  0.8669  0.2743  0.3113
 2035TIP3   OH227595   4.965   0.109  15.839  0.3253 -0.3542 -0.5719
 2035TIP3    H127596   4.917   0.028  15.857  0.3942  0.2800  3.3624
 2035TIP3    H227597   5.052   0.094  15.875  0.7614  1.0205 -0.9820
 2036TIP3   OH227598   4.123   5.576  15.535 -0.5798  0.3052 -0.7070
 2036TIP3    H127599   4.094   5.561  15.445  2.8468  1.1692 -2.1259
 2036TIP3    H227600   4.141   5.670  15.539  0.3109  0.0970  0.5365
 2037TIP3   OH227601   6.732   5.663   5.766 -0.0562  0.7982  0.5494
 2037TIP3    H127602   6.669   5.716   5.814  0.0998  0.9206  0.6218
 2037TIP3    H227603   6.694   5.575   5.764 -0.9122  1.1773 -0.6662
 2038TIP3   OH227604   2.564   5.810   3.536 -0.3814  0.5396  0.0231
 2038TIP3    H127605   2.574   5.757   3.457  0.5151 -0.1356  0.5876
 2038TIP3    H227606   2.506   5.882   3.508 -1.2921 -0.4898 -0.8530
 2039TIP3   OH227607   3.199   4.276  13.376  0.0400  0.2154 -0.1397
 2039TIP3    H127608   3.219   4.238  13.291  1.0731 -0.0429  0.2031
 2039TIP3    H227609   3.146   4.210  13.420 -0.4381  0.3201 -0.5480
 2040TIP3   OH227610   5.302   6.791  16.796 -0.0804 -0.1542 -0.8090
 2040TIP3    H127611   5.291   6.854  16.867 -1.4102 -0.8249 -0.3849
 2040TIP3    H227612   5.332   6.711  16.840  1.7077  0.1681 -1.3562
 2041TIP3   OH227613   2.228   1.258  15.034  0.1803  0.4515 -0.4902
 2041TIP3    H127614   2.254   1.342  14.996  0.4735  0.0696 -1.1600
 2041TIP3    H227615   2.192   1.209  14.960  1.2121 -0.5030 -0.3824
 2042TIP3   OH227616   0.476   4.806   5.747 -0.0506  0.3120  0.3025
 2042TIP3    H127617   0.553   4.805   5.804  0.1584 -0.6545  0.0289
 2042TIP3    H227618   0.449   4.714   5.743  1.0777  0.0040 -2.6760
 2043TIP3   OH227619   3.160   4.770  16.396  0.2123  0.4751  0.2992
 2043TIP3    H127620   3.104   4.729  16.462 -3.3196  2.6406 -1.0505
 2043TIP3    H227621   3.194   4.849  16.438  0.2177  0.4316  0.3760
 2044TIP3   OH227622   4.154   5.301   5.415 -0.2132 -0.2078 -0.2932
 2044TIP3    H127623   4.215   5.277   5.484 -0.0665  0.9546 -0.0019
 2044TIP3    H227624   4.127   5.217   5.376  2.2098 -0.7452 -1.0024
 2045TIP3   OH227625   0.877   2.449  12.575  0.5862 -0.2250  0.5642
 2045TIP3    H127626   0.930   2.373  12.548  0.8480 -1.6289  4.3049
 2045TIP3    H227627   0.926   2.486  12.649  0.1847  3.4199 -0.7852
 2046TIP3   OH227628   1.000   1.802  14.824 -0.2570  0.0222  0.4248
 2046TIP3    H127629   0.934   1.754  14.874  0.5456 -1.3373  0.2157
 2046TIP3    H227630   0.954   1.831  14.745  0.0161 -3.4293 -1.1657
 2047TIP3   OH227631   4.041   3.904  14.875  0.0545 -0.0393  0.1250
 2047TIP3    H127632   4.125   3.943  14.901  0.9540 -2.0257  0.3758
 2047TIP3    H227633   4.014   3.956  14.799  0.7745  1.5416  0.8961
 2048TIP3   OH227634   5.688   4.733   0.843  0.3813  0.4145  0.0875
 2048TIP3    H127635   5.657   4.664   0.785 -0.2469  0.0489  0.8514
 2048TIP3    H227636   5.645   4.717   0.926  0.6982  1.3717  0.4557
 2049TIP3   OH227637   5.899   1.800  12.302  0.0117 -0.5847  0.2617
 2049TIP3    H127638   5.845   1.858  12.356 -0.2245  0.8187 -1.4159
 2049TIP3    H227639   5.964   1.857  12.261  0.2791 -1.6194 -0.8237
 2050TIP3   OH227640   3.843   1.465  15.909 -0.4509 -0.2680 -0.2422
 2050TIP3    H127641   3.794   1.539  15.874 -0.3090 -0.3081 -0.5310
 2050TIP3    H227642   3.776   1.402  15.934 -0.7498  0.9919  2.5191
 2051TIP3   OH227643   5.658   6.477   4.626 -0.2358 -0.0832 -0.0049
 2051TIP3    H127644   5.752   6.490   4.617 -0.4463  2.3708  0.7020
 2051TIP3    H227645   5.641   6.485   4.720 -1.1234 -0.8615 -0.0804
 2052TIP3   OH227646   2.799   1.181  14.747  0.1187 -0.1062 -0.6744
 2052TIP3    H127647   2.706   1.158  14.740 -0.2400  0.8535  0.5956
 2052TIP3    H227648   2.842   1.098  14.767 -0.8613 -0.1319  1.5806
 2053TIP3   OH227649   5.412   0.316  10.354 -0.1705 -0.8281 -0.5472
 2053TIP3    H127650   5.345   0.335  10.420 -0.9626 -1.2654 -1.1985
 2053TIP3    H227651   5.374   0.348  10.272 -0.2870 -2.5158 -1.1863
 2054TIP3   OH227652   5.629   4.199  11.481 -0.0413  0.3460 -0.8427
 2054TIP3    H127653   5.605   4.128  11.541 -0.1472  0.9621 -0.1423
 2054TIP3    H227654   5.556   4.204  11.419 -1.3493  1.5814  0.7060
 2055TIP3   OH227655   4.883   3.367  11.612 -0.0444  0.1678  0.2273
 2055TIP3    H127656   4.907   3.323  11.694 -4.8612  0.1442  1.9636
 2055TIP3    H227657   4.853   3.296  11.555  2.1800  0.3163 -1.2473
 2056TIP3   OH227658   3.332   2.130   0.553 -0.0941 -0.3148 -0.0955
 2056TIP3    H127659   3.283   2.078   0.617  0.5255  0.3344  0.9355
 2056TIP3    H227660   3.359   2.067   0.487 -2.0805 -0.7472 -0.5822
 2057TIP3   OH227661   3.206   2.810   1.191  1.1778  0.4496 -0.7179
 2057TIP3    H127662   3.159   2.889   1.165 -0.2900 -0.3155 -0.4363
 2057TIP3    H227663   3.212   2.758   1.111 -2.5390 -1.4900  0.0355
 2058TIP3   OH227664   1.228   4.074   3.290  0.1624  0.4509  0.0135
 2058TIP3    H127665   1.255   4.152   3.339 -0.6299 -0.0425  1.2761
 2058TIP3    H227666   1.302   4.055   3.233  1.3685  0.7138  1.4350
 2059TIP3   OH227667   6.081   1.662   4.038  0.3853  0.0781  0.4152
 2059TIP3    H127668   6.080   1.682   4.132  0.1843 -1.9591  0.8852
 2059TIP3    H227669   6.129   1.579   4.032  0.4657  0.2242 -1.3075
 2060TIP3   OH227670   2.536   4.677  16.010 -0.1689 -0.1896 -0.6534
 2060TIP3    H127671   2.523   4.694  16.103  0.2131  1.1259 -0.8213
 2060TIP3    H227672   2.567   4.587  16.006 -0.7951 -0.4694  0.4328
 2061TIP3   OH227673   4.073   0.084   0.559  0.2574  0.0871 -0.4888
 2061TIP3    H127674   4.072  -0.009   0.579 -0.0228  0.4547  1.4712
 2061TIP3    H227675   4.117   0.091   0.474  1.3010 -1.7234 -0.1384
 2062TIP3   OH227676   0.652   1.140  16.266 -0.5705 -0.0404  0.3923
 2062TIP3    H127677   0.597   1.092  16.205 -0.1731 -0.6904  0.5389
 2062TIP3    H227678   0.679   1.218  16.218  1.7614 -1.7067 -1.2256
 2063TIP3   OH227679   4.812   4.696   5.057  0.0587 -0.2846  0.2100
 2063TIP3    H127680   4.744   4.756   5.086  0.5070  1.0866 -1.4280
 2063TIP3    H227681   4.817   4.630   5.126 -1.1618  0.9824  1.5684
 2064TIP3   OH227682   4.583   6.875  10.735 -0.4847  0.3012 -0.3810
 2064TIP3    H127683   4.582   6.955  10.788  1.2099  0.2292 -0.1927
 2064TIP3    H227684   4.503   6.881  10.682  0.1158  2.6936 -1.1727
 2065TIP3   OH227685   5.342   1.354   4.473 -0.2174  0.0146 -0.6914
 2065TIP3    H127686   5.263   1.407   4.477  0.4320  1.1113 -1.9062
 2065TIP3    H227687   5.315   1.274   4.428 -1.0345 -0.4154  0.5100
 2066TIP3   OH227688   4.708   1.560  14.596 -0.1769  0.1099 -0.3242
 2066TIP3    H127689   4.667   1.479  14.566  2.4127 -0.5515 -2.4457
 2066TIP3    H227690   4.707   1.554  14.692 -0.4724 -2.2085 -0.4220
 2067TIP3   OH227691   3.383   1.925  12.959 -0.3338  0.3185  0.6319
 2067TIP3    H127692   3.456   1.977  12.993  0.6967  0.0502 -1.0452
 2067TIP3    H227693   3.425   1.850  12.917 -1.7212 -1.2477  1.8976
 2068TIP3   OH227694   0.538   5.633   2.156 -0.6644 -0.2585 -0.3471
 2068TIP3    H127695   0.540   5.683   2.238  0.8602 -1.0244  0.1107
 2068TIP3    H227696   0.525   5.542   2.183 -3.9285 -0.1753 -1.2005
 2069TIP3   OH227697   4.438   3.462  15.007  0.0112  0.8022  0.0633
 2069TIP3    H127698   4.394   3.397  15.062  0.8860  0.3724  0.2691
 2069TIP3    H227699   4.523   3.422  14.986 -0.0278  1.2583 -1.0183
 2070TIP3   OH227700   4.102   4.196  12.705  0.7366  0.4761  0.1537
 2070TIP3    H127701   4.099   4.269  12.643 -0.5447 -0.0059 -0.4067
 2070TIP3    H227702   4.177   4.214  12.760  0.4184  2.2479  0.0723
 2071TIP3   OH227703   1.579   2.663   4.851 -0.0425 -0.0666  0.2071
 2071TIP3    H127704   1.550   2.584   4.897 -0.8771  1.3046  2.1456
 2071TIP3    H227705   1.657   2.690   4.898 -1.3399  1.7953  1.3809
 2072TIP3   OH227706   3.396   4.322  14.375 -0.2339 -0.1539  0.0082
 2072TIP3    H127707   3.318   4.377  14.376 -0.0115  0.1993 -0.8243
 2072TIP3    H227708   3.425   4.324  14.284 -0.0898 -1.4654 -0.0021
 2073TIP3   OH227709   3.003   0.975   2.313  0.6994  0.2089  0.1469
 2073TIP3    H127710   2.952   0.935   2.242 -0.4623  0.7598  0.6437
 2073TIP3    H227711   2.967   0.936   2.393  0.5719  1.1300  0.5473
 2074TIP3   OH227712   6.597   3.777   4.962 -0.4099  0.4386 -0.1368
 2074TIP3    H127713   6.634   3.853   5.007 -1.0468 -0.3962  1.8975
 2074TIP3    H227714   6.650   3.703   4.993 -1.5236 -0.2999  0.0493
 2075TIP3   OH227715   2.212   5.431  14.548 -0.2690 -0.1459 -0.2760
 2075TIP3    H127716   2.263   5.358  14.514  0.5279 -0.1944  0.9552
 2075TIP3    H227717   2.274   5.484  14.597 -1.0487  0.7900 -0.2592
 2076TIP3   OH227718   3.099   6.764   6.260  0.3256  0.2945  0.0932
 2076TIP3    H127719   3.154   6.725   6.191  0.9480 -0.3388  0.9131
 2076TIP3    H227720   3.118   6.711   6.337 -1.1193  0.3559  0.5151
 2077TIP3   OH227721   4.249   3.039   2.999 -0.2118  0.3233  0.1044
 2077TIP3    H127722   4.232   3.133   3.006  2.7995  1.1199 -1.4867
 2077TIP3    H227723   4.202   3.012   2.920  0.5446  0.9699 -0.5774
 2078TIP3   OH227724   5.124   1.153  12.904 -0.1860  0.2515  0.4707
 2078TIP3    H127725   5.201   1.117  12.949  0.4141  1.8962  0.8189
 2078TIP3    H227726   5.110   1.094  12.830  1.8157  0.2664  0.0256
 2079TIP3   OH227727   2.668   2.718  14.005 -0.0602  0.5261 -0.2282
 2079TIP3    H127728   2.725   2.794  13.997  1.2051 -0.3674 -0.0781
 2079TIP3    H227729   2.583   2.754  14.030  0.1800  1.9702 -1.3514
 2080TIP3   OH227730   6.059   6.527   4.754 -0.2150 -0.3067 -0.4766
 2080TIP3    H127731   6.137   6.577   4.778 -0.0562 -1.2685  1.2132
 2080TIP3    H227732   5.986   6.580   4.788 -0.0460 -1.1411  1.3313
 2081TIP3   OH227733   1.543   0.393  13.429  0.4697  0.0881 -0.1336
 2081TIP3    H127734   1.563   0.384  13.335 -0.4872 -0.0723 -0.3273
 2081TIP3    H227735   1.575   0.481  13.451  0.0040  0.4374 -0.8040
 2082TIP3   OH227736   5.348   6.486  14.054  0.2474 -0.3844  0.3635
 2082TIP3    H127737   5.420   6.424  14.043  0.3884 -0.0921 -0.5096
 2082TIP3    H227738   5.271   6.439  14.023  0.3478 -0.1474 -0.2616
 2083TIP3   OH227739   4.165   0.941  14.183 -0.5368 -0.3218  0.6440
 2083TIP3    H127740   4.127   0.853  14.177  1.6741 -1.3129  0.1077
 2083TIP3    H227741   4.090   0.999  14.198 -2.0400 -2.2994  1.1535
 2084TIP3   OH227742   0.051   5.294   5.234 -0.5457 -0.3234  0.3962
 2084TIP3    H127743  -0.005   5.342   5.173 -1.4756 -2.2876 -0.4143
 2084TIP3    H227744  -0.007   5.272   5.307  0.0980  0.4928  1.1795
 2085TIP3   OH227745   3.171   1.933   1.097 -0.1808 -0.0264  0.6303
 2085TIP3    H127746   3.246   1.913   1.041 -0.2090 -0.7179  0.8344
 2085TIP3    H227747   3.161   2.028   1.090  0.8067  0.0969  0.7130
 2086TIP3   OH227748   0.891   0.474   0.354 -0.0601  0.0415 -0.6739
 2086TIP3    H127749   0.812   0.420   0.349  0.2847 -0.6364  0.7712
 2086TIP3    H227750   0.961   0.412   0.375  0.7441  0.7403 -1.2249
 2087TIP3   OH227751   0.320   0.048   5.315  0.1897  0.1498  0.4901
 2087TIP3    H127752   0.404   0.005   5.301  0.2532  0.1501  0.8625
 2087TIP3    H227753   0.338   0.142   5.308  0.0688  0.1268 -0.2279
 2088TIP3   OH227754   1.851   1.216  10.346 -0.2134  0.0969 -0.2340
 2088TIP3    H127755   1.799   1.135  10.346 -0.8640  0.4919 -1.6939
 2088TIP3    H227756   1.925   1.196  10.404 -0.2839 -1.5879 -0.6633
 2089TIP3   OH227757   6.743   2.343   5.733  0.6718  0.1506  0.1557
 2089TIP3    H127758   6.811   2.410   5.733 -0.4906  1.3514 -0.4225
 2089TIP3    H227759   6.734   2.318   5.825  0.6574  1.2702  0.4735
 2090TIP3   OH227760   1.239   0.023  13.081 -0.5887  0.4355  0.3590
 2090TIP3    H127761   1.181   0.095  13.107 -0.4136 -0.1016  2.4406
 2090TIP3    H227762   1.285  -0.001  13.162  1.3114 -0.2701 -0.8629
 2091TIP3   OH227763   4.984   6.661   0.535 -0.1471  0.5977 -0.2225
 2091TIP3    H127764   4.968   6.756   0.539 -1.3520  0.6165 -3.1947
 2091TIP3    H227765   5.006   6.644   0.443 -3.1572 -2.4149 -0.5765
 2092TIP3   OH227766   6.082   0.060   4.819 -0.4008  0.2856 -0.0264
 2092TIP3    H127767   6.060   0.055   4.912 -1.2297 -1.8930 -0.2795
 2092TIP3    H227768   6.108  -0.029   4.796  2.8193  1.3952 -1.2268
 2093TIP3   OH227769   3.093   2.644   6.131  0.3116 -0.2911 -0.4955
 2093TIP3    H127770   3.027   2.589   6.173  1.4499 -0.0638  1.7130
 2093TIP3    H227771   3.121   2.705   6.199  3.9234 -1.3509 -0.8095
 2094TIP3   OH227772   5.694   2.794  15.671 -0.1740 -0.3333 -0.1354
 2094TIP3    H127773   5.728   2.778  15.760 -1.9675  0.9229  0.8315
 2094TIP3    H227774   5.768   2.773  15.614  1.0495 -1.1660  1.6360
 2095TIP3   OH227775   2.315   3.127   1.535 -0.6185  0.4108  0.2437
 2095TIP3    H127776   2.366   3.202   1.565  0.3718 -0.3958  0.6203
 2095TIP3    H227777   2.355   3.051   1.578 -0.9992 -0.4461 -0.8606
 2096TIP3   OH227778   3.498   1.958  15.717 -0.0785 -0.5573  0.2607
 2096TIP3    H127779   3.443   1.909  15.778 -0.0636 -0.6151  0.2272
 2096TIP3    H227780   3.582   1.913  15.719 -0.4327 -1.2896 -0.7127
 2097TIP3   OH227781   0.579   5.219   5.088  0.0335  0.0636 -0.2612
 2097TIP3    H127782   0.503   5.276   5.094 -0.9721 -1.2798  0.2203
 2097TIP3    H227783   0.648   5.266   5.136 -0.8846  0.6980  0.4650
 2098TIP3   OH227784   1.485   1.439   2.874  0.5043 -0.6058 -0.0082
 2098TIP3    H127785   1.485   1.520   2.823  2.0772 -0.7590 -0.2960
 2098TIP3    H227786   1.449   1.373   2.814  0.7867 -0.4570 -0.3417
 2099TIP3   OH227787   1.597   2.263  15.459 -0.0748  0.1818  0.3002
 2099TIP3    H127788   1.617   2.351  15.490  2.1063 -0.2864  0.3754
 2099TIP3    H227789   1.510   2.271  15.420 -0.4729  2.0579  1.4415
 2100TIP3   OH227790   6.176   5.514   3.684 -0.6788 -0.2605  0.0564
 2100TIP3    H127791   6.108   5.573   3.650  0.2080  1.0792  0.5411
 2100TIP3    H227792   6.230   5.569   3.740 -0.1521 -1.6836  1.0091
 2101TIP3   OH227793   0.789   0.974   2.222  0.0590 -0.7543  0.1320
 2101TIP3    H127794   0.782   0.893   2.272  0.2739  0.2707  1.8945
 2101TIP3    H227795   0.748   0.954   2.137  0.8186 -2.9135  0.2258
 2102TIP3   OH227796   6.306   3.376  11.360 -0.2040 -0.1290  0.5132
 2102TIP3    H127797   6.371   3.315  11.395  0.2773 -0.3163 -0.6719
 2102TIP3    H227798   6.357   3.450  11.327 -0.8708  1.8899  3.6341
 2103TIP3   OH227799   5.264   0.136   0.540 -0.0414 -0.0475  0.1007
 2103TIP3    H127800   5.238   0.224   0.510 -1.0175  0.0623  1.2235
 2103TIP3    H227801   5.201   0.077   0.499 -0.8342  0.0183  1.1866
 2104TIP3   OH227802   0.343   5.314   0.026 -0.0716 -0.5638  0.4172
 2104TIP3    H127803   0.425   5.274   0.054  0.0383 -1.3036 -0.8664
 2104TIP3    H227804   0.347   5.403   0.060  1.4587 -0.4629  0.0623
 2105TIP3   OH227805   6.453   4.816   4.175 -0.1510  0.4828 -0.3356
 2105TIP3    H127806   6.358   4.812   4.163 -1.0079  0.8394  4.4011
 2105TIP3    H227807   6.477   4.727   4.202  0.8818  0.4229 -1.4099
 2106TIP3   OH227808   0.442   4.220  11.908  0.1451  0.4154 -0.5970
 2106TIP3    H127809   0.533   4.241  11.929 -0.0434 -0.1499  0.9481
 2106TIP3    H227810   0.437   4.124  11.913 -0.9104  0.5173  1.2430
 2107TIP3   OH227811   2.291   2.154   1.148  0.3666  0.5509 -0.3483
 2107TIP3    H127812   2.369   2.123   1.103  0.7447  0.3455  0.4501
 2107TIP3    H227813   2.221   2.147   1.082  0.7473 -0.5211 -0.6518
 2108TIP3   OH227814   6.531   2.811  11.276 -0.3291 -0.7542 -0.1616
 2108TIP3    H127815   6.522   2.716  11.285 -0.6773 -0.7991 -0.9520
 2108TIP3    H227816   6.608   2.832  11.329 -0.4684 -1.4200  0.3274
 2109TIP3   OH227817   5.168   2.452  13.648  0.2366 -0.4629  0.2171
 2109TIP3    H127818   5.258   2.452  13.615 -0.0658 -0.1497 -0.6444
 2109TIP3    H227819   5.149   2.544  13.666 -0.3933 -0.3271 -1.0216
 2110TIP3   OH227820   1.714   0.215   4.996 -0.0252  0.0526  0.1346
 2110TIP3    H127821   1.795   0.259   4.970 -1.5053  2.1350 -1.2900
 2110TIP3    H227822   1.678   0.181   4.915 -0.0355 -1.9526  0.9284
 2111TIP3   OH227823   4.247   2.042  13.311 -0.0351  0.0233 -0.3810
 2111TIP3    H127824   4.151   2.035  13.310 -0.0203 -0.1956 -1.0827
 2111TIP3    H227825   4.269   2.069  13.222  0.5914 -0.4092 -0.3583
 2112TIP3   OH227826   3.327   3.458  15.734 -0.0391 -0.2314  0.5780
 2112TIP3    H127827   3.349   3.419  15.818 -0.1687  0.5338  0.9761
 2112TIP3    H227828   3.396   3.523  15.720 -0.7427  0.5602  0.7244
 2113TIP3   OH227829   5.877   5.430  14.037  0.4643  0.4129  1.3442
 2113TIP3    H127830   5.855   5.340  14.017  1.0892  0.4395  0.4587
 2113TIP3    H227831   5.957   5.447  13.987  1.4449  0.8770  2.9728
 2114TIP3   OH227832   3.254   0.145   0.572 -0.3719 -1.0073  0.3953
 2114TIP3    H127833   3.302   0.216   0.612  0.5158 -1.0741 -0.5101
 2114TIP3    H227834   3.312   0.069   0.579  0.4556 -0.7228 -2.1687
 2115TIP3   OH227835   0.885   5.760  15.404  0.5830 -0.0899 -0.4037
 2115TIP3    H127836   0.934   5.786  15.482  0.3162 -1.8999  0.4169
 2115TIP3    H227837   0.869   5.667  15.416 -0.7144 -0.1032 -1.9559
 2116TIP3   OH227838   5.128   3.757  13.310 -0.1898 -0.1388 -0.2134
 2116TIP3    H127839   5.210   3.789  13.348  0.1288 -1.1308 -0.0392
 2116TIP3    H227840   5.107   3.821  13.242  2.2419 -1.3081 -2.2384
 2117TIP3   OH227841   6.437   3.245  13.193 -0.5365 -0.6414 -0.7820
 2117TIP3    H127842   6.363   3.305  13.201  0.5894  0.6348  0.6667
 2117TIP3    H227843   6.451   3.237  13.098 -1.3447  0.5689 -1.0263
 2118TIP3   OH227844   2.303   2.427  12.589 -0.3629 -0.1287 -0.6099
 2118TIP3    H127845   2.395   2.454  12.592 -0.2341 -0.6187 -0.1776
 2118TIP3    H227846   2.306   2.332  12.581 -0.8320 -0.1146 -0.9922
 2119TIP3   OH227847   1.003   4.436   0.073 -0.3543  0.2282  0.5377
 2119TIP3    H127848   1.022   4.358   0.022  1.5014  0.5555  0.6385
 2119TIP3    H227849   1.063   4.503   0.037  1.0780  0.4487  3.1243
 2120TIP3   OH227850   3.721   1.083   2.368 -0.6776 -0.1806 -0.5040
 2120TIP3    H127851   3.718   1.092   2.464  0.7324  0.0947 -0.4715
 2120TIP3    H227852   3.814   1.090   2.346 -0.8267 -1.7231 -1.7720
 2121TIP3   OH227853   5.978   1.171   4.071 -0.2670  0.0729 -0.5124
 2121TIP3    H127854   6.037   1.217   4.130  1.4498 -1.1207 -1.2104
 2121TIP3    H227855   5.947   1.095   4.121  1.6060 -1.2341 -1.2321
 2122TIP3   OH227856   5.969   2.948  16.062 -0.7232  0.3770  0.0430
 2122TIP3    H127857   6.006   2.947  15.974  1.6764 -0.3010  0.9713
 2122TIP3    H227858   5.888   2.998  16.054  0.3587  1.9337 -2.1897
 2123TIP3   OH227859   4.726   1.796   5.504 -0.3152 -0.5577 -0.0037
 2123TIP3    H127860   4.762   1.715   5.541 -1.0871 -0.6104  0.6461
 2123TIP3    H227861   4.768   1.866   5.552  0.1239 -0.5741 -0.3564
 2124TIP3   OH227862   2.589   5.264   4.033 -0.6053 -0.4455  0.0001
 2124TIP3    H127863   2.626   5.180   4.006 -1.5291 -0.4070 -1.5305
 2124TIP3    H227864   2.663   5.313   4.068  0.0714 -1.6491  0.3348
 2125TIP3   OH227865   1.211   0.814   3.598  0.3884 -0.0564  0.7034
 2125TIP3    H127866   1.291   0.777   3.561  2.8002  1.6971  3.6650
 2125TIP3    H227867   1.146   0.806   3.528  3.0322 -1.8315 -1.7811
 2126TIP3   OH227868   4.902   0.975  13.004  0.5130 -0.1539  0.4307
 2126TIP3    H127869   4.808   0.957  12.996  0.6466 -0.8809  0.4231
 2126TIP3    H227870   4.916   1.054  12.951  0.0947 -0.6739 -0.4889
 2127TIP3   OH227871   1.270   3.103   3.532  0.3830  0.2837 -0.0200
 2127TIP3    H127872   1.287   3.045   3.606  0.3829 -0.9716 -0.9838
 2127TIP3    H227873   1.250   3.045   3.459  0.2469  1.4980 -0.9891
 2128TIP3   OH227874   1.072   4.110   3.874 -0.3342  0.0403  0.2281
 2128TIP3    H127875   1.057   4.065   3.957  0.9309 -1.1603 -0.1506
 2128TIP3    H227876   1.137   4.177   3.894  2.2212 -2.1179 -0.2532
 2129TIP3   OH227877   1.497   3.774  11.150 -0.0172  0.4798  0.5334
 2129TIP3    H127878   1.560   3.731  11.092 -1.4494  0.2513 -0.9368
 2129TIP3    H227879   1.431   3.707  11.168 -1.5953  1.6157 -0.7276
 2130TIP3   OH227880   3.810   6.675   0.185  0.2111 -0.7768 -0.3573
 2130TIP3    H127881   3.799   6.597   0.130  1.3290  0.2795 -2.1916
 2130TIP3    H227882   3.756   6.742   0.143  0.2514 -0.2175  0.4696
 2131TIP3   OH227883   0.484   3.317  11.530  0.0788 -1.1522 -0.0150
 2131TIP3    H127884   0.411   3.259  11.508  0.0685 -0.9404 -0.5510
 2131TIP3    H227885   0.442   3.396  11.566  0.1315 -1.9080  1.7844
 2132TIP3   OH227886   1.755   0.689  13.061  0.3875  0.8984 -0.4528
 2132TIP3    H127887   1.748   0.632  13.137 -0.4532  2.5163  0.7442
 2132TIP3    H227888   1.676   0.672  13.011  1.1242 -0.4532 -1.2265
 2133TIP3   OH227889   1.615   6.381   3.099 -0.5665  0.2142  0.2626
 2133TIP3    H127890   1.700   6.355   3.134 -0.3384  0.7066  0.0833
 2133TIP3    H227891   1.631   6.396   3.006 -0.4999  1.7474  0.4873
 2134TIP3   OH227892   1.186   5.317   0.063 -0.0036 -0.0008 -0.9622
 2134TIP3    H127893   1.266   5.267   0.051 -1.2658 -2.5254  0.4116
 2134TIP3    H227894   1.115   5.255   0.044 -1.7595  0.1747  3.6341
 2135TIP3   OH227895   6.158   4.178  13.053  0.8463  0.2155  0.6396
 2135TIP3    H127896   6.111   4.240  12.999  0.7731 -1.5697 -1.4906
 2135TIP3    H227897   6.136   4.202  13.143  0.2609  2.7505 -0.1181
 2136TIP3   OH227898   2.916   5.764   1.532 -0.3257  0.6910  0.3338
 2136TIP3    H127899   2.900   5.847   1.486 -1.1635 -0.4434 -1.5793
 2136TIP3    H227900   2.830   5.723   1.538  0.1096 -0.1529  0.9934
 2137TIP3   OH227901   6.458   4.277  14.082 -0.4301 -0.4418 -0.8280
 2137TIP3    H127902   6.543   4.234  14.076 -0.2701 -0.3097  0.3053
 2137TIP3    H227903   6.466   4.336  14.156 -1.2947  0.0836 -1.1359
 2138TIP3   OH227904   1.351   1.019  14.465 -0.5274  0.2241  0.0916
 2138TIP3    H127905   1.367   1.097  14.518  0.5921 -0.3647  0.6559
 2138TIP3    H227906   1.360   1.049  14.375  4.1417  0.0635  0.2480
 2139TIP3   OH227907   4.040   2.202  13.676 -0.2487 -0.3752  0.6734
 2139TIP3    H127908   4.021   2.225  13.585 -2.7699 -3.2417  0.3380
 2139TIP3    H227909   4.136   2.193  13.678 -0.1024 -0.1081 -1.6516
 2140TIP3   OH227910   5.101   5.850   0.324  0.3684 -0.3465  0.3484
 2140TIP3    H127911   5.045   5.787   0.368 -1.0869  0.2905 -0.5279
 2140TIP3    H227912   5.123   5.809   0.241  1.4673 -0.7090  0.7984
 2141TIP3   OH227913   0.056   2.052   1.022 -0.6055 -0.1827 -0.9613
 2141TIP3    H127914   0.064   2.010   0.936  1.2252  1.9283 -1.9416
 2141TIP3    H227915   0.146   2.052   1.056 -0.8496  1.3584 -0.2666
 2142TIP3   OH227916   6.064   6.900  16.711  0.2416 -1.1460 -0.6726
 2142TIP3    H127917   5.989   6.906  16.652  0.7940 -2.9286 -1.6133
 2142TIP3    H227918   6.141   6.903  16.653  0.8430 -1.3563  0.0986
 2143TIP3   OH227919   5.327   3.361  14.546  0.1250  0.4118 -0.2045
 2143TIP3    H127920   5.370   3.326  14.624 -0.9586 -0.1365  0.1726
 2143TIP3    H227921   5.235   3.335  14.556 -0.6479  2.9345 -0.1695
 2144TIP3   OH227922   4.753   1.648  13.953 -0.3069  0.2943  0.3617
 2144TIP3    H127923   4.745   1.597  14.033  1.9577 -1.1382 -0.2297
 2144TIP3    H227924   4.688   1.609  13.894  0.5648 -1.1750  0.3168
 2145TIP3   OH227925   5.987   0.557  11.290  0.3280 -0.2851 -0.1739
 2145TIP3    H127926   6.068   0.574  11.242 -0.0271  1.3067 -0.2757
 2145TIP3    H227927   5.945   0.486  11.241  0.8346  0.0747 -1.1557
 2146TIP3   OH227928   1.632   4.127  12.360  0.7995  0.2416  0.3975
 2146TIP3    H127929   1.619   4.034  12.340 -2.3025  0.6164  0.1585
 2146TIP3    H227930   1.644   4.129  12.455 -1.0729 -0.3211  0.6869
 2147TIP3   OH227931   5.151   2.509  12.768  0.2922 -0.3702  0.4627
 2147TIP3    H127932   5.212   2.437  12.780 -0.2643 -0.6642  1.6934
 2147TIP3    H227933   5.082   2.473  12.711 -0.6706 -1.2832  2.1296
 2148TIP3   OH227934   1.439   1.820  16.176  0.0908  0.0567  0.2057
 2148TIP3    H127935   1.400   1.845  16.092  1.2726  1.8106  0.1373
 2148TIP3    H227936   1.384   1.864  16.241  0.3171  0.2699  0.2515
 2149TIP3   OH227937   0.614   0.506  15.353  0.3719 -0.2640  0.1107
 2149TIP3    H127938   0.543   0.445  15.376  0.3070 -1.0145 -1.8440
 2149TIP3    H227939   0.570   0.588  15.334  0.4169  0.3279  2.3658
 2150TIP3   OH227940   6.784   1.530  15.454 -0.2937  0.4263  1.1885
 2150TIP3    H127941   6.850   1.574  15.401  1.3924 -1.6647  1.4071
 2150TIP3    H227942   6.815   1.539  15.544  0.2330 -1.3158  1.2225
 2151TIP3   OH227943   0.456   5.077  11.707 -0.4237 -0.4947  0.0164
 2151TIP3    H127944   0.468   5.050  11.616 -0.6323  0.8706 -0.4404
 2151TIP3    H227945   0.396   5.011  11.743 -1.4732 -0.2859 -1.2440
 2152TIP3   OH227946   1.955   1.490  12.511 -0.2179 -0.4397  0.7599
 2152TIP3    H127947   2.025   1.468  12.450 -1.8568 -0.0825 -1.3352
 2152TIP3    H227948   1.903   1.556  12.465 -2.7498 -1.7240  1.6426
 2153TIP3   OH227949   3.351   3.614  12.537 -0.2227 -0.0320 -0.2598
 2153TIP3    H127950   3.439   3.643  12.559 -0.8435  0.8154  1.2699
 2153TIP3    H227951   3.307   3.604  12.621 -1.7168 -0.0566 -1.0035
 2154TIP3   OH227952   6.016   5.724  15.530  0.2978 -0.0050 -0.2005
 2154TIP3    H127953   6.045   5.664  15.598 -0.4660  0.7365  0.8110
 2154TIP3    H227954   5.932   5.689  15.501 -0.2880  0.7062  0.5941
 2155TIP3   OH227955   1.509   3.471  10.982 -0.4999 -0.3132 -0.0341
 2155TIP3    H127956   1.564   3.533  10.934  0.0682  0.0299  1.0166
 2155TIP3    H227957   1.425   3.474  10.938 -0.7947  1.9710  0.5684
 2156TIP3   OH227958   4.893   0.732   0.740  0.0938  0.7081 -0.3333
 2156TIP3    H127959   4.903   0.797   0.670  0.2194  1.0078 -0.0393
 2156TIP3    H227960   4.872   0.784   0.817 -0.5016  0.3440 -0.2415
 2157TIP3   OH227961   2.246   3.351   0.316  0.0909 -0.4972 -0.2876
 2157TIP3    H127962   2.188   3.304   0.256 -1.3083 -0.2232  0.7955
 2157TIP3    H227963   2.226   3.443   0.301 -0.0252 -0.4149  0.3580
 2158TIP3   OH227964   4.366   2.384   5.007 -0.1897  0.0048  0.4021
 2158TIP3    H127965   4.394   2.339   4.928  1.5930  0.3753  0.7824
 2158TIP3    H227966   4.328   2.466   4.976 -1.5918 -0.8064 -0.1595
 2159TIP3   OH227967   6.146   5.632  16.353 -0.4435 -0.3839  0.1724
 2159TIP3    H127968   6.199   5.711  16.337 -1.5093  0.2534 -0.3572
 2159TIP3    H227969   6.059   5.655  16.320 -1.0742 -1.3826  1.0779
 2160TIP3   OH227970   2.273   1.021  11.371 -0.0325 -0.0765  0.2189
 2160TIP3    H127971   2.309   0.940  11.407 -1.9874 -1.2834 -0.4089
 2160TIP3    H227972   2.212   1.052  11.437 -0.8330 -0.2696 -0.4129
 2161TIP3   OH227973   2.298   4.486   0.983  0.0654  0.1105  0.4972
 2161TIP3    H127974   2.225   4.448   0.933  0.0561  0.1269  0.4984
 2161TIP3    H227975   2.269   4.484   1.074  0.0327  0.1923  0.4892
 2162TIP3   OH227976   1.950   2.393  15.412  0.4020  0.6563  1.1619
 2162TIP3    H127977   1.977   2.313  15.367  0.6275  0.5046  1.5514
 2162TIP3    H227978   2.009   2.460  15.380  0.3822  0.6075  1.0253
 2163TIP3   OH227979   3.230   6.615  12.709 -0.1606  0.5995  0.1880
 2163TIP3    H127980   3.248   6.589  12.618 -0.7617 -2.1631  0.7777
 2163TIP3    H227981   3.312   6.654  12.739 -0.2837  2.6703 -1.8121
 2164TIP3   OH227982   0.488   0.216   3.505 -0.5550 -0.1551 -0.3556
 2164TIP3    H127983   0.411   0.272   3.498 -0.0183  0.5330 -1.0809
 2164TIP3    H227984   0.457   0.129   3.481 -0.8529  0.3717 -2.0848
 2165TIP3   OH227985   5.867   6.563   2.798 -0.3860  0.0816 -0.6680
 2165TIP3    H127986   5.787   6.610   2.778 -0.5236  0.1321 -0.0066
 2165TIP3    H227987   5.842   6.470   2.795 -0.4151  0.0896 -0.6714
 2166TIP3   OH227988   6.253   5.837   4.291 -0.8097 -0.3956 -0.0698
 2166TIP3    H127989   6.166   5.846   4.331 -0.7469 -1.0084  0.2185
 2166TIP3    H227990   6.238   5.851   4.198 -1.3197 -1.0239 -0.0947
 2167TIP3   OH227991   0.063   6.442  11.517  0.1408 -0.3950 -0.4723
 2167TIP3    H127992   0.132   6.503  11.542 -1.1015  1.0002 -0.3446
 2167TIP3    H227993   0.003   6.440  11.591 -0.2988 -1.0984 -0.8314
 2168TIP3   OH227994   0.477   3.751   1.271  0.4182  0.2064  0.6275
 2168TIP3    H127995   0.479   3.782   1.180 -0.2008  0.2981  0.6403
 2168TIP3    H227996   0.414   3.809   1.314 -0.0154 -0.4509  0.8821
 2169TIP3   OH227997   2.960   6.358   3.386 -1.0044 -1.0538  0.1828
 2169TIP3    H127998   3.019   6.414   3.436 -4.1404  0.5963  2.3593
 2169TIP3    H227999   2.968   6.272   3.427 -1.4964 -0.3686  1.8036
 2170TIP3   OH228000   3.780   0.653  13.705 -0.2534  0.0741  0.7137
 2170TIP3    H128001   3.732   0.570  13.706 -0.6285  0.2921  0.4227
 2170TIP3    H228002   3.719   0.717  13.670  1.3719 -0.3246 -3.3743
 2171TIP3   OH228003   4.751   6.532   5.314 -0.0681  0.1679 -0.2907
 2171TIP3    H128004   4.681   6.506   5.375 -0.0173 -0.0812 -0.3369
 2171TIP3    H228005   4.822   6.563   5.370  1.1010 -2.6827 -0.0298
 2172TIP3   OH228006   5.705   3.873   4.873  0.3377  0.3727 -0.3815
 2172TIP3    H128007   5.751   3.795   4.901  1.9524  1.3875 -0.1050
 2172TIP3    H228008   5.612   3.852   4.886  0.8029 -0.9397  1.0797
 2173TIP3   OH228009   2.909   3.212  12.444  0.2872  0.0029  0.1460
 2173TIP3    H128010   2.976   3.262  12.492 -0.4072  0.5163  0.6061
 2173TIP3    H228011   2.957   3.170  12.373  0.5418  3.5120 -1.9859
 2174TIP3   OH228012   1.451   4.388  12.372 -0.0472  0.0249  0.0378
 2174TIP3    H128013   1.517   4.322  12.352 -1.1486 -0.9974 -0.3369
 2174TIP3    H228014   1.381   4.373  12.308  0.2747  2.4995 -1.0335
 2175TIP3   OH228015   3.919   2.409  14.102  0.2370  0.6136  0.1025
 2175TIP3    H128016   4.008   2.386  14.131  0.3544  2.5056  1.4411
 2175TIP3    H228017   3.862   2.368  14.167  0.2643  1.2639  0.5418
 2176TIP3   OH228018   0.510   5.494  11.332 -0.1667  0.5511 -0.6546
 2176TIP3    H128019   0.604   5.506  11.343 -0.3669  1.1336  0.6871
 2176TIP3    H228020   0.478   5.580  11.304 -0.4609  0.7567  0.2673
 2177TIP3   OH228021   6.399   0.833  13.546  0.8924  0.1947 -0.0460
 2177TIP3    H128022   6.315   0.875  13.565 -0.1437 -1.7103 -0.2008
 2177TIP3    H228023   6.438   0.817  13.631  2.2203  3.0411  0.0198
 2178TIP3   OH228024   0.419   3.223   4.304 -0.0557  0.1168 -0.2218
 2178TIP3    H128025   0.482   3.163   4.266  0.3491 -0.3138  1.0759
 2178TIP3    H228026   0.472   3.281   4.360 -0.5782  0.9695 -0.5883
 2179TIP3   OH228027   4.987   2.427   1.458  0.2642  0.6194 -0.3233
 2179TIP3    H128028   4.922   2.361   1.433  0.6797  0.3894 -0.8094
 2179TIP3    H228029   5.004   2.411   1.551  0.4911 -0.0665 -0.4813
 2180TIP3   OH228030   6.804   5.060  15.760 -0.0533 -0.3262  0.6344
 2180TIP3    H128031   6.819   5.088  15.851 -1.8365 -1.5195  1.3458
 2180TIP3    H228032   6.710   5.045  15.755  0.0851 -0.7674 -1.2994
 2181TIP3   OH228033   3.475   3.349   2.382  0.5463  0.1645  0.0458
 2181TIP3    H128034   3.436   3.415   2.325  0.5450 -0.6733 -0.9510
 2181TIP3    H228035   3.560   3.330   2.342  2.2311  2.1700  2.3387
 2182TIP3   OH228036   1.855   1.439   5.122 -0.4753 -0.0065 -0.5827
 2182TIP3    H128037   1.838   1.532   5.130  0.2639  0.1146 -0.3637
 2182TIP3    H228038   1.769   1.398   5.128 -0.6444  0.5286  1.2666
 2183TIP3   OH228039   3.051   5.121   0.940  0.2652  0.0653  0.6055
 2183TIP3    H128040   3.128   5.064   0.938  0.3439  0.1288  1.4010
 2183TIP3    H228041   2.990   5.081   0.879  0.2623 -0.9610  1.2630
 2184TIP3   OH228042   4.562   0.028  13.386 -0.1559 -0.4501  0.0008
 2184TIP3    H128043   4.469   0.020  13.365 -0.1986 -0.7359  0.2893
 2184TIP3    H228044   4.585  -0.057  13.424  0.6502 -1.0384 -1.7148
 2185TIP3   OH228045   6.756   5.132   1.055 -0.1524  0.2454  0.3818
 2185TIP3    H128046   6.722   5.059   1.106  1.7857 -0.8120  0.2703
 2185TIP3    H228047   6.737   5.108   0.964  1.9191 -1.0208  0.2117
 2186TIP3   OH228048   6.486   5.470  12.616 -0.7448  0.0781  0.2445
 2186TIP3    H128049   6.537   5.488  12.695 -1.1813  0.9664  0.3413
 2186TIP3    H228050   6.423   5.542  12.612 -2.1334 -1.1153  0.2377
 2187TIP3   OH228051   5.550   0.401   3.028 -0.0575 -0.5890 -0.1388
 2187TIP3    H128052   5.622   0.348   2.993  0.5384  1.0383 -1.5121
 2187TIP3    H228053   5.474   0.344   3.023  0.9136 -1.9876  0.3507
 2188TIP3   OH228054   1.669   6.160   5.989 -0.1503  0.1157 -0.4982
 2188TIP3    H128055   1.587   6.145   6.036  0.6191  1.3412  1.3624
 2188TIP3    H228056   1.724   6.084   6.010 -0.3732 -0.1119 -0.7382
 2189TIP3   OH228057   0.302   4.743   6.004 -0.3640  0.7044 -0.1958
 2189TIP3    H128058   0.276   4.832   5.978 -2.0438  0.1533 -0.5140
 2189TIP3    H228059   0.220   4.694   6.006  0.7456 -1.4330 -2.2824
 2190TIP3   OH228060   0.929   5.888  13.411  0.2842 -0.0147 -0.0331
 2190TIP3    H128061   0.844   5.929  13.429 -0.0926 -0.6144 -0.4273
 2190TIP3    H228062   0.933   5.881  13.316  0.4205 -0.7084  0.0139
 2191TIP3   OH228063   2.937   0.200  13.262  0.2561 -0.6725 -0.2669
 2191TIP3    H128064   2.951   0.105  13.265 -0.0188 -0.7135 -0.2081
 2191TIP3    H228065   2.974   0.227  13.179  0.1640 -0.8610 -0.3709
 2192TIP3   OH228066   3.939   5.094   4.204  0.4055  0.3978  0.1496
 2192TIP3    H128067   3.964   5.185   4.189  0.9617  0.1381 -0.5737
 2192TIP3    H228068   3.845   5.092   4.185  0.4659  0.7429 -0.2048
 2193TIP3   OH228069   2.273   0.090  13.983 -0.5697  0.0527  0.1098
 2193TIP3    H128070   2.291   0.143  13.906 -0.2788  0.7956  0.6784
 2193TIP3    H228071   2.354   0.092  14.033  0.1529 -2.6082 -0.8004
 2194TIP3   OH228072   0.697   1.317  11.764 -0.6590  0.3450  0.2577
 2194TIP3    H128073   0.700   1.384  11.832 -0.4154  1.8938 -1.2189
 2194TIP3    H228074   0.646   1.356  11.694  0.5729 -0.5034 -1.1723
 2195TIP3   OH228075   1.986   2.869  14.583  0.3052 -0.4182 -0.1403
 2195TIP3    H128076   1.997   2.931  14.655  0.4447  0.8900 -1.2528
 2195TIP3    H228077   2.062   2.811  14.589  1.6752  1.2241 -0.6947
 2196TIP3   OH228078   1.563   5.213  11.836  0.0997  0.4097 -0.2990
 2196TIP3    H128079   1.572   5.150  11.907 -0.9591  0.6812  0.0942
 2196TIP3    H228080   1.526   5.162  11.763 -0.2507  0.4548 -0.1553
 2197TIP3   OH228081   5.467   5.787   4.332 -0.7304  0.0880  0.6594
 2197TIP3    H128082   5.554   5.764   4.366 -1.4720 -0.1798  2.4539
 2197TIP3    H228083   5.479   5.873   4.291  0.2427  0.3306  1.4233
 2198TIP3   OH228084   0.885   0.792  15.220 -0.4413 -0.8410 -0.2843
 2198TIP3    H128085   0.969   0.774  15.178 -0.0037  0.4356 -0.0309
 2198TIP3    H228086   0.830   0.717  15.200  0.4175 -1.1961 -1.3733
 2199TIP3   OH228087   1.886   1.919  10.600  0.6523 -0.1805 -0.0057
 2199TIP3    H128088   1.808   1.883  10.643  0.0482  0.4624 -0.5362
 2199TIP3    H228089   1.934   1.842  10.568 -0.8173 -0.5327 -1.4813
 2200TIP3   OH228090   5.622   3.532  16.592 -0.3111 -0.0123  0.0980
 2200TIP3    H128091   5.616   3.623  16.561 -1.6189 -0.5627 -1.4184
 2200TIP3    H228092   5.714   3.521  16.617 -0.3710  2.0685  1.5322
 2201TIP3   OH228093   2.138   1.570  14.163 -0.1640  0.1900 -0.1244
 2201TIP3    H128094   2.163   1.482  14.136  1.0289  0.1404  1.0557
 2201TIP3    H228095   2.054   1.560  14.206  0.1428 -0.4292  0.3313
 2202TIP3   OH228096   0.591   2.200   0.036  0.1939  0.8123 -0.8015
 2202TIP3    H128097   0.619   2.180   0.125 -0.9960  1.8440 -0.1575
 2202TIP3    H228098   0.500   2.169   0.032  0.5146 -0.0559 -1.9695
 2203TIP3   OH228099   1.151   4.661   4.942 -0.3955 -0.4126 -0.4131
 2203TIP3    H128100   1.210   4.587   4.923  2.2960  1.3262  0.6004
 2203TIP3    H228101   1.090   4.627   5.007  0.1597 -2.0124 -0.6837
 2204TIP3   OH228102   4.568   2.149  14.952  0.6700  0.3244  0.6040
 2204TIP3    H128103   4.548   2.117  14.864  1.0933 -0.0474  0.6375
 2204TIP3    H228104   4.533   2.081  15.010  1.2603  0.0852  0.6883
 2205TIP3   OH228105   6.759   0.294  12.192  0.2101 -0.1482 -0.3147
 2205TIP3    H128106   6.764   0.384  12.159 -1.2310 -0.7678 -2.4341
 2205TIP3    H228107   6.711   0.302  12.274  1.2523  1.1393  0.2109
 2206TIP3   OH228108   5.934   4.708   6.069 -0.4426  0.1411 -0.2314
 2206TIP3    H128109   5.907   4.630   6.119  1.4553  0.6710  1.7930
 2206TIP3    H228110   6.006   4.677   6.014  0.9376  0.5637  1.2515
 2207TIP3   OH228111   4.983   6.416   0.758 -0.3628 -0.3430 -0.2977
 2207TIP3    H128112   4.908   6.468   0.784  0.5635 -0.0616  2.0771
 2207TIP3    H228113   5.043   6.479   0.718 -0.7179 -0.2830 -0.7495
 2208TIP3   OH228114   6.475   5.427  14.107  0.0120 -0.1306 -0.1466
 2208TIP3    H128115   6.506   5.515  14.088  1.2364 -0.7155 -1.0105
 2208TIP3    H228116   6.509   5.408  14.195  1.1071 -0.3012 -0.5897
 2209TIP3   OH228117   3.291   3.478  13.090  0.1330 -0.3534  0.3289
 2209TIP3    H128118   3.286   3.485  12.995  1.1406  1.0810  0.3522
 2209TIP3    H228119   3.207   3.512  13.122  0.9882  2.2366  0.0225
 2210TIP3   OH228120   3.853   6.821  12.170 -0.1138 -0.2743 -0.2301
 2210TIP3    H128121   3.768   6.836  12.130  0.0383  0.1342 -0.4033
 2210TIP3    H228122   3.857   6.726  12.183 -0.5709 -0.3007 -0.2669
 2211TIP3   OH228123   4.953   5.095  11.909  0.3695  0.4491  0.0214
 2211TIP3    H128124   4.890   5.160  11.879 -0.0341 -0.8616 -2.1748
 2211TIP3    H228125   4.930   5.080  12.001 -1.8149  0.8130 -0.4138
 2212TIP3   OH228126   4.229   5.116   1.153 -0.8353 -0.1168 -0.3256
 2212TIP3    H128127   4.303   5.164   1.117 -1.7962  1.0328 -0.8477
 2212TIP3    H228128   4.266   5.062   1.222  0.6417 -0.3748 -1.2755
 2213TIP3   OH228129   3.307   4.743  12.374  0.1759 -0.9694  0.5555
 2213TIP3    H128130   3.397   4.765  12.350 -0.2289 -0.6249 -0.7267
 2213TIP3    H228131   3.253   4.783  12.306 -0.9502 -1.2589  1.2448
 2214TIP3   OH228132   5.982   6.886  11.866 -0.0314 -0.1706 -0.1117
 2214TIP3    H128133   6.052   6.880  11.801  1.7471  0.2673  1.6764
 2214TIP3    H228134   5.983   6.977  11.894 -1.5530 -0.0858 -0.2377
 2215TIP3   OH228135   5.620   0.186   1.009 -0.0915  0.6768  0.3779
 2215TIP3    H128136   5.682   0.215   1.077  0.9428  0.6722 -0.5260
 2215TIP3    H228137   5.633   0.249   0.938 -1.4039  0.8801  0.3011
 2216TIP3   OH228138   4.264   2.597  11.195  0.4914 -0.4535  0.1047
 2216TIP3    H128139   4.328   2.529  11.177 -0.0102 -1.3607  1.5662
 2216TIP3    H228140   4.271   2.613  11.289  1.4507  2.4348 -0.3615
 2217TIP3   OH228141   4.975   1.765   3.329 -0.1278  0.0469 -0.6187
 2217TIP3    H128142   5.005   1.707   3.399 -1.8776 -0.9964 -0.6638
 2217TIP3    H228143   4.957   1.848   3.372  0.5953 -0.0127 -0.1903
 2218TIP3   OH228144   2.490   2.858   6.142  0.1470 -0.2220 -0.0188
 2218TIP3    H128145   2.421   2.862   6.208  0.4158 -0.1199  0.2599
 2218TIP3    H228146   2.536   2.777   6.161  1.6807  0.9266  1.4006
 2219TIP3   OH228147   3.991   1.185   1.025  0.0437 -0.2246  0.1994
 2219TIP3    H128148   4.067   1.212   0.974  0.5928 -0.5474  0.8299
 2219TIP3    H228149   3.956   1.110   0.978  0.6611 -0.6386  0.3876
 2220TIP3   OH228150   1.709   0.908   2.113  0.2793  0.0309 -0.3963
 2220TIP3    H128151   1.779   0.883   2.052  0.6656  0.8712 -0.3135
 2220TIP3    H228152   1.754   0.920   2.197 -0.0649  0.0133 -0.2077
 2221TIP3   OH228153   2.156   4.851   1.120  0.0456  0.7426 -0.0491
 2221TIP3    H128154   2.152   4.942   1.093  1.4354  0.9921  0.5196
 2221TIP3    H228155   2.074   4.837   1.169 -0.2705  1.6099 -0.3162
 2222TIP3   OH228156   3.669   1.172  16.839 -0.0441 -0.4149  0.0703
 2222TIP3    H128157   3.664   1.077  16.830 -0.5703 -0.2042 -3.1756
 2222TIP3    H228158   3.578   1.201  16.842  0.0879 -0.0010  2.5282
 2223TIP3   OH228159   3.671   6.660  14.105 -0.3223  0.2320 -0.1793
 2223TIP3    H128160   3.605   6.650  14.173  0.2931 -2.2113  0.1379
 2223TIP3    H228161   3.622   6.654  14.023 -0.7580  0.7803  0.0318
 2224TIP3   OH228162   4.124   6.835  12.673 -0.3331  0.0758 -0.0418
 2224TIP3    H128163   4.105   6.802  12.586  0.2715 -1.0485  0.2274
 2224TIP3    H228164   4.188   6.905  12.659  1.8175 -1.8603 -0.3560
 2225TIP3   OH228165   4.066   6.757  12.413  0.3475 -0.7790  0.0287
 2225TIP3    H128166   4.037   6.848  12.414  2.9555  0.2061 -1.9106
 2225TIP3    H228167   4.051   6.729  12.323  4.5365 -0.2879 -1.0725
 2226TIP3   OH228168   1.296   0.039   0.482  0.0285 -0.4132  0.8564
 2226TIP3    H128169   1.271   0.128   0.504  2.0414  0.4920 -0.2112
 2226TIP3    H228170   1.293  -0.009   0.564 -0.5750  0.7628  1.5375
 2227TIP3   OH228171   1.363   2.753   4.199  0.2935 -0.4863 -0.6230
 2227TIP3    H128172   1.305   2.807   4.146  0.8701  0.8847  0.1137
 2227TIP3    H228173   1.338   2.771   4.289  1.5898 -0.1573 -0.3078
 2228TIP3   OH228174   6.299   5.491   5.732  0.1952 -0.5389  0.4015
 2228TIP3    H128175   6.265   5.568   5.687 -1.8868 -2.2041 -1.0553
 2228TIP3    H228176   6.338   5.525   5.812  1.5289  2.2599 -1.3011
 2229TIP3   OH228177   4.428   5.279  13.863 -0.3483 -0.2750 -0.2509
 2229TIP3    H128178   4.443   5.220  13.937 -0.6812  1.4401  1.2805
 2229TIP3    H228179   4.487   5.352  13.878  0.1163 -0.2128 -2.1392
 2230TIP3   OH228180   3.658   6.437  13.314  0.2702  0.4218  0.2771
 2230TIP3    H128181   3.669   6.516  13.366 -0.2518 -0.3295  1.5605
 2230TIP3    H228182   3.577   6.398  13.345  0.0552 -0.1817 -0.9509
 2231TIP3   OH228183   2.689   3.099   2.224  0.1676  1.0457  0.5415
 2231TIP3    H128184   2.777   3.110   2.187 -0.0125 -0.0379 -0.2686
 2231TIP3    H228185   2.669   3.006   2.212 -0.9514  1.2008  1.0412
 2232TIP3   OH228186   1.005   6.204  12.639  0.3171 -0.4507 -0.2808
 2232TIP3    H128187   1.054   6.122  12.642  0.7734 -0.2455 -1.5205
 2232TIP3    H228188   0.914   6.177  12.631  0.0794 -0.8428  2.5491
 2233TIP3   OH228189   2.011   3.816  12.986  1.0950  0.2363  0.5424
 2233TIP3    H128190   2.059   3.751  13.038  1.7110 -0.0954 -0.4049
 2233TIP3    H228191   2.008   3.778  12.898 -0.2780  0.6001  0.4135
 2234TIP3   OH228192   6.288   1.273  14.928  0.2093  0.8170  0.3338
 2234TIP3    H128193   6.337   1.355  14.938  1.3772  0.2836 -0.7001
 2234TIP3    H228194   6.326   1.232  14.850 -0.7693 -0.4227  0.4801
 2235TIP3   OH228195   0.194   3.959  12.250  0.3848  0.2740 -0.1425
 2235TIP3    H128196   0.188   4.054  12.253 -1.3459  0.2263 -0.6615
 2235TIP3    H228197   0.142   3.934  12.173  0.9692 -1.0833 -0.1374
 2236TIP3   OH228198   0.216   1.177  15.087 -0.0803  0.4566 -0.3735
 2236TIP3    H128199   0.222   1.191  15.181  2.9281  0.0396 -0.4178
 2236TIP3    H228200   0.145   1.114  15.076  1.4300 -1.8303  1.9595
 2237TIP3   OH228201   0.416   2.379   0.295  0.4927  0.0058 -0.2798
 2237TIP3    H128202   0.505   2.346   0.309  0.4910  0.0502 -0.1640
 2237TIP3    H228203   0.399   2.435   0.371  0.0023 -0.7761  0.1940
 2238TIP3   OH228204   0.182   0.424   1.006  0.0383  0.3030  0.4259
 2238TIP3    H128205   0.198   0.334   0.976 -0.9233  0.1371  0.3995
 2238TIP3    H228206   0.240   0.477   0.951 -0.8019 -0.1189 -0.9352
 2239TIP3   OH228207   4.707   5.784   5.974  0.3158  0.2211  0.2936
 2239TIP3    H128208   4.629   5.754   5.928  0.2162  0.9134 -0.0007
 2239TIP3    H228209   4.770   5.712   5.963 -0.3924 -0.4960  0.8553
 2240TIP3   OH228210   5.290   2.301   4.808 -0.0520 -0.0025  0.2668
 2240TIP3    H128211   5.266   2.282   4.717 -1.8797 -1.8284  1.0714
 2240TIP3    H228212   5.352   2.232   4.831 -0.4266 -0.1837  0.7312
 2241TIP3   OH228213   6.064   3.362   2.665 -0.2481 -0.2559 -0.2532
 2241TIP3    H128214   5.979   3.318   2.655 -0.5829  0.4013 -0.3944
 2241TIP3    H228215   6.128   3.291   2.667 -0.7097 -0.7113 -1.1651
 2242TIP3   OH228216   6.382   0.362  15.318 -0.1576  0.5312 -0.3766
 2242TIP3    H128217   6.395   0.456  15.330 -0.2195  0.4692  0.2422
 2242TIP3    H228218   6.355   0.352  15.227  1.4177  0.9532 -0.9277
 2243TIP3   OH228219   6.465   4.060   5.541  0.8495 -0.0420  0.6930
 2243TIP3    H128220   6.380   4.052   5.584  0.4870 -0.4978 -0.0696
 2243TIP3    H228221   6.520   3.996   5.585  0.2093 -1.1951 -0.1116
 2244TIP3   OH228222   6.638   4.557   4.517  0.3899  0.8368  0.1431
 2244TIP3    H128223   6.721   4.575   4.472  0.3423  1.2677  0.2232
 2244TIP3    H228224   6.662   4.546   4.609  0.8752 -2.6606 -0.2524
 2245TIP3   OH228225   3.016   4.626  11.934  0.4333  0.0817 -0.1473
 2245TIP3    H128226   3.111   4.630  11.943  0.4344 -1.8746  1.4566
 2245TIP3    H228227   3.002   4.598  11.843  1.5102 -1.3720  0.0903
 2246TIP3   OH228228   0.968   2.844  14.604 -0.2380 -0.0350 -0.2322
 2246TIP3    H128229   0.917   2.764  14.613 -1.8831  1.2094  3.0712
 2246TIP3    H228230   1.034   2.839  14.673  2.1484 -0.1439 -2.3931
 2247TIP3   OH228231   2.154   0.514  13.171  0.1461 -0.1815  0.3234
 2247TIP3    H128232   2.185   0.451  13.106 -0.4423  1.3973 -1.5905
 2247TIP3    H228233   2.210   0.499  13.247  0.5523 -2.4227 -0.3590
 2248TIP3   OH228234   6.490   2.735   5.310  0.3487  0.1168  0.0039
 2248TIP3    H128235   6.480   2.684   5.391  1.5041 -0.6218 -0.2796
 2248TIP3    H228236   6.585   2.739   5.297  0.3753  3.1246  0.4721
 2249TIP3   OH228237   6.717   0.210  10.969 -0.1333  0.6661  0.0450
 2249TIP3    H128238   6.669   0.273  10.915  0.0691  0.2495 -0.6381
 2249TIP3    H228239   6.717   0.129  10.918  0.4445  0.3834  0.4752
 2250TIP3   OH228240   0.827   2.425  14.746  0.0498  0.6280  0.2089
 2250TIP3    H128241   0.745   2.376  14.754  0.8701 -0.8648 -0.1081
 2250TIP3    H228242   0.881   2.392  14.818  0.8086  0.6594 -0.3361
 2251TIP3   OH228243   3.892   4.167   4.771 -0.8563 -0.2205 -0.1046
 2251TIP3    H128244   3.927   4.093   4.819 -0.4322 -0.3364 -0.5866
 2251TIP3    H228245   3.797   4.157   4.778 -0.8001 -0.5905  0.1567
 2252TIP3   OH228246   5.338   4.093   3.892 -0.0027  0.5049 -1.0956
 2252TIP3    H128247   5.385   4.146   3.956  0.0715  0.2668 -0.9545
 2252TIP3    H228248   5.356   4.003   3.917 -0.6288  0.4091 -0.9712
 2253TIP3   OH228249   6.030   6.890   0.570 -0.5731  0.2363 -0.2528
 2253TIP3    H128250   6.011   6.797   0.561 -0.6821  0.1591  0.6382
 2253TIP3    H228251   5.945   6.933   0.558 -0.8544  0.0845  1.0093
 2254TIP3   OH228252   3.933   3.890   4.610  0.4946  0.0152  0.2521
 2254TIP3    H128253   3.899   3.892   4.699  0.8630 -0.9113  0.4241
 2254TIP3    H228254   4.017   3.844   4.617  0.3221 -0.4694 -0.6350
 2255TIP3   OH228255   1.786   3.206   2.028 -0.6428 -0.1201  0.3460
 2255TIP3    H128256   1.694   3.189   2.049 -0.5879  1.5899  2.3495
 2255TIP3    H228257   1.833   3.186   2.108  0.2630  2.1842  0.4694
 2256TIP3   OH228258   3.373   5.368   4.347 -0.0963 -0.4787 -0.0039
 2256TIP3    H128259   3.297   5.357   4.291 -0.2280  0.0387  0.0628
 2256TIP3    H228260   3.383   5.285   4.393 -0.1484 -0.8152 -0.5934
 2257TIP3   OH228261   0.069   3.900   3.226  0.0141 -0.0864 -0.1244
 2257TIP3    H128262  -0.010   3.875   3.178 -0.7313  1.6744  0.0976
 2257TIP3    H228263   0.038   3.920   3.315  0.4950  1.7170 -0.3307
 2258TIP3   OH228264   3.475   2.135  13.129  0.0549  0.4375  0.6305
 2258TIP3    H128265   3.446   2.136  13.220  1.6033  0.6589  1.1375
 2258TIP3    H228266   3.568   2.156  13.133 -0.2767  2.5176 -1.1807
 2259TIP3   OH228267   3.102   3.953  14.535  0.3331 -0.6012 -0.3875
 2259TIP3    H128268   3.012   3.943  14.504 -0.0400  0.0834  0.4502
 2259TIP3    H228269   3.120   3.872  14.582 -0.4767 -0.0322  0.9590
 2260TIP3   OH228270   1.494   1.771  16.668 -0.0618 -0.4045  0.1643
 2260TIP3    H128271   1.454   1.702  16.720  1.2838 -1.5834 -0.3116
 2260TIP3    H228272   1.478   1.746  16.577 -0.1424  0.2611 -0.0094
 2261TIP3   OH228273   4.980   4.639  10.745 -0.3372  0.1636  0.3312
 2261TIP3    H128274   4.992   4.553  10.785  0.0462 -0.3158 -0.7504
 2261TIP3    H228275   5.044   4.641  10.673 -1.5244  0.6397 -0.7621
 2262TIP3   OH228276   5.822   2.446   3.232 -0.1924 -0.2889  1.0527
 2262TIP3    H128277   5.745   2.441   3.176 -0.3207  0.1342  1.1833
 2262TIP3    H228278   5.896   2.427   3.173 -0.3109  0.3064  0.6995
 2263TIP3   OH228279   2.675   4.644   3.805  0.3506 -0.4359 -0.3163
 2263TIP3    H128280   2.678   4.574   3.870 -0.6712  0.0954  0.3447
 2263TIP3    H228281   2.625   4.608   3.732  1.5749 -1.0653 -0.8701
 2264TIP3   OH228282   3.661   6.215  12.734  0.0819  0.1253 -0.4356
 2264TIP3    H128283   3.657   6.141  12.673  0.7842  0.6730 -1.1788
 2264TIP3    H228284   3.573   6.253  12.731 -0.8439 -1.6998  1.3245
 2265TIP3   OH228285   1.075   6.126   4.161 -0.0094  0.5950  0.1531
 2265TIP3    H128286   1.144   6.080   4.210 -0.1136  0.3060  0.0324
 2265TIP3    H228287   1.110   6.213   4.144  0.2706  0.4920  0.2100
 2266TIP3   OH228288   4.828   3.735   5.838 -0.1192 -0.2731  0.5306
 2266TIP3    H128289   4.788   3.689   5.764  0.5352  1.8289 -1.2469
 2266TIP3    H228290   4.856   3.666   5.897 -1.8787 -1.9856 -0.5297
 2267TIP3   OH228291   4.190   6.125   0.645 -0.2396 -0.1120  0.2010
 2267TIP3    H128292   4.209   6.054   0.584 -3.9321 -1.5532  0.4619
 2267TIP3    H228293   4.167   6.199   0.589  0.6293 -0.0475 -0.0870
 2268TIP3   OH228294   3.921   3.573  13.337 -0.7292  0.2423 -0.5984
 2268TIP3    H128295   3.843   3.561  13.392 -0.8936 -0.6026 -0.9979
 2268TIP3    H228296   3.921   3.497  13.279  0.2515  0.3806 -0.7876
 2269TIP3   OH228297   3.514   6.626  16.039 -0.0266 -0.3869 -0.0368
 2269TIP3    H128298   3.555   6.542  16.054  0.0829 -0.6406 -1.6146
 2269TIP3    H228299   3.425   6.605  16.011 -0.6322  0.0959  1.4364
 2270TIP3   OH228300   2.901   2.820  16.320  0.6691 -0.2106  0.5860
 2270TIP3    H128301   2.828   2.803  16.261  1.4463 -1.1098 -0.1506
 2270TIP3    H228302   2.945   2.735  16.328  1.5991  0.3023  1.0585
 2271TIP3   OH228303   1.013   2.799  10.950 -0.0229  0.7264 -0.1543
 2271TIP3    H128304   1.098   2.802  10.907  0.3977 -1.7002  0.3859
 2271TIP3    H228305   1.031   2.766  11.038 -1.5563 -0.5562 -0.2677
 2272TIP3   OH228306   6.559   2.322   0.086 -0.2505  0.3816  0.1518
 2272TIP3    H128307   6.486   2.314   0.148 -0.7710  0.2664 -0.4667
 2272TIP3    H228308   6.615   2.390   0.123 -0.0794 -0.3156  1.2151
 2273TIP3   OH228309   6.596   3.056   1.084  0.2849  0.3860 -0.0064
 2273TIP3    H128310   6.508   3.033   1.113  0.6307 -1.4564 -0.3433
 2273TIP3    H228311   6.654   3.010   1.144  1.0973  2.5255  0.9789
 2274TIP3   OH228312   5.359   6.411   2.576  0.6516 -0.3780  0.1098
 2274TIP3    H128313   5.393   6.328   2.609  3.0920 -0.0359 -1.2716
 2274TIP3    H228314   5.327   6.390   2.488  1.4038  0.1434 -0.2973
 2275TIP3   OH228315   0.922   4.145  13.457 -0.1484  0.4818  0.4241
 2275TIP3    H128316   1.013   4.174  13.453 -0.1938  0.7047  0.9232
 2275TIP3    H228317   0.925   4.066  13.512  0.1237 -1.0985 -1.7270
 2276TIP3   OH228318   3.645   2.933  15.451  0.0670 -0.3781  0.2226
 2276TIP3    H128319   3.706   3.006  15.446  0.2931 -0.5036  0.9987
 2276TIP3    H228320   3.617   2.931  15.543  0.2523 -1.4052  0.2730
 2277TIP3   OH228321   5.563   4.720  16.124  0.6260 -0.2591 -0.1075
 2277TIP3    H128322   5.514   4.651  16.168 -0.7003  1.2514  0.8930
 2277TIP3    H228323   5.648   4.721  16.169  0.9212 -1.6404 -0.5802
 2278TIP3   OH228324   4.485   2.755   5.165 -0.1478 -0.6723 -0.5322
 2278TIP3    H128325   4.390   2.760   5.157 -0.1913  1.7001  0.5009
 2278TIP3    H228326   4.501   2.688   5.231 -1.2569  0.4863  0.9732
 2279TIP3   OH228327   5.661   3.982   0.271  0.3380 -0.4094 -0.6157
 2279TIP3    H128328   5.689   4.061   0.316  0.2523  0.0380 -1.3362
 2279TIP3    H228329   5.687   3.911   0.330 -0.1757  0.1786  0.3468
 2280TIP3   OH228330   6.307   2.864   1.697  0.1018  0.4277 -0.4018
 2280TIP3    H128331   6.269   2.777   1.711  0.9696  0.2098  0.7570
 2280TIP3    H228332   6.384   2.847   1.643 -0.2468  0.5943 -0.9510
 2281TIP3   OH228333   4.948   6.081  11.885 -0.4719 -0.2762 -0.0683
 2281TIP3    H128334   5.032   6.080  11.839 -0.0137  2.2358  0.5498
 2281TIP3    H228335   4.960   6.023  11.960  0.4096 -0.5648 -0.4250
 2282TIP3   OH228336   4.808   1.490   3.941  0.2064  0.1530  0.8557
 2282TIP3    H128337   4.892   1.527   3.916  1.0783 -2.0704  0.2407
 2282TIP3    H228338   4.745   1.529   3.880  1.0370  0.6743  0.3141
 2283TIP3   OH228339   6.595   3.932   1.546 -0.8378  0.4448  0.0107
 2283TIP3    H128340   6.614   3.839   1.561  0.0381  0.7389  0.7792
 2283TIP3    H228341   6.574   3.937   1.453  2.4973 -0.0146 -0.8796
 2284TIP3   OH228342   0.069   0.985   3.412  0.6732  0.1702  0.0424
 2284TIP3    H128343   0.159   0.970   3.384  0.6761 -0.7251  0.4803
 2284TIP3    H228344   0.045   0.904   3.458 -0.5267  0.1896 -0.5227
 2285TIP3   OH228345   5.500   3.902   1.678  0.3128  0.5171 -0.6354
 2285TIP3    H128346   5.576   3.960   1.681  1.2885 -0.6383 -1.6190
 2285TIP3    H228347   5.425   3.959   1.696  1.1560  2.2265 -2.1504
 2286TIP3   OH228348   1.319   2.077   4.357  0.0944 -0.3727 -0.0978
 2286TIP3    H128349   1.229   2.087   4.327 -0.5885 -1.0199  1.5867
 2286TIP3    H228350   1.366   2.151   4.319 -1.5315  0.9605  0.3840
 2287TIP3   OH228351   3.931   0.087  14.304 -0.4923 -0.5771  0.1902
 2287TIP3    H128352   4.002   0.032  14.337 -1.0122 -0.9671  0.6764
 2287TIP3    H228353   3.854   0.058  14.353 -0.6050  1.2265  1.1479
 2288TIP3   OH228354   0.779   3.680  10.868 -0.5458 -0.1187  0.0242
 2288TIP3    H128355   0.770   3.699  10.775 -1.9077  0.5562  0.2637
 2288TIP3    H228356   0.748   3.759  10.912  0.6670 -0.1860  1.0674
 2289TIP3   OH228357   4.098   4.809  12.198  0.2656 -0.1001  0.3151
 2289TIP3    H128358   4.018   4.858  12.218  0.1379  0.2723 -1.0073
 2289TIP3    H228359   4.161   4.876  12.171  0.2258 -0.5819 -1.0749
 2290TIP3   OH228360   0.728   3.919   5.964 -0.3555 -0.3620 -0.4214
 2290TIP3    H128361   0.678   3.944   6.041  1.6372 -1.4070  1.3013
 2290TIP3    H228362   0.687   3.968   5.892 -1.9244  1.0846  1.3542
 2291TIP3   OH228363   1.983   4.199   2.577 -0.0813  0.1705 -0.3702
 2291TIP3    H128364   1.977   4.281   2.625  0.1019  0.6224 -1.1033
 2291TIP3    H228365   1.937   4.136   2.631 -0.5214  0.8318  0.0376
 2292TIP3   OH228366   4.891   5.620  15.681 -0.2178  0.2293  0.1193
 2292TIP3    H128367   4.889   5.680  15.606 -0.2567  0.0539 -0.0188
 2292TIP3    H228368   4.802   5.588  15.690 -0.4575  1.0527  0.8933
 2293TIP3   OH228369   3.917   0.102   3.577  0.5419  0.2108 -0.4044
 2293TIP3    H128370   3.921   0.162   3.503 -0.2785  0.5913 -0.1450
 2293TIP3    H228371   3.866   0.148   3.643 -1.2505 -1.2803 -0.6842
 2294TIP3   OH228372   2.900   4.379  16.444 -0.3714 -0.3466 -0.1397
 2294TIP3    H128373   2.884   4.373  16.538 -0.2631  2.3041  0.1114
 2294TIP3    H228374   2.824   4.427  16.409  0.1760 -0.2149 -1.1994
 2295TIP3   OH228375   6.715   3.069   3.458 -0.1844 -0.7599 -0.1180
 2295TIP3    H128376   6.749   2.979   3.458 -0.4115 -0.8786  1.6742
 2295TIP3    H228377   6.623   3.060   3.481 -0.1459 -0.0409  0.3249
 2296TIP3   OH228378   1.579   3.872  16.805  0.0398 -0.3133  0.1283
 2296TIP3    H128379   1.491   3.855  16.772 -0.0483 -0.1336  0.2662
 2296TIP3    H228380   1.638   3.847  16.734 -0.0901 -1.0333  0.2640
 2297TIP3   OH228381   2.567   5.011  14.557 -0.4930  0.4176 -0.3001
 2297TIP3    H128382   2.559   4.935  14.499 -1.2537 -1.4378  2.0538
 2297TIP3    H228383   2.644   4.993  14.611 -0.5285  1.4573  0.1289
 2298TIP3   OH228384   2.535   5.055  10.764 -0.7324  0.6835  0.6254
 2298TIP3    H128385   2.625   5.026  10.752 -1.0344 -1.2509  2.4277
 2298TIP3    H228386   2.536   5.148  10.742  1.5235  0.5216 -0.1391
 2299TIP3   OH228387   0.138   2.451  12.502 -0.2972  0.3406  0.0361
 2299TIP3    H128388   0.116   2.516  12.569  0.1751 -0.0968  0.6295
 2299TIP3    H228389   0.054   2.419  12.470 -0.5418  1.4488 -0.4762
 2300TIP3   OH228390   4.195   1.751  11.269  0.1887  0.0891 -0.1557
 2300TIP3    H128391   4.244   1.802  11.334  1.4613  0.1041 -1.0798
 2300TIP3    H228392   4.115   1.801  11.255  0.5065  0.7805  0.4223
 2301TIP3   OH228393   2.904   2.500  15.718 -0.4098 -0.1969  0.1911
 2301TIP3    H128394   2.868   2.419  15.683  0.2225 -0.2913 -0.2634
 2301TIP3    H228395   2.993   2.477  15.746  0.3478  0.6497 -1.3587
 2302TIP3   OH228396   4.822   3.848   4.757 -0.1633 -0.0942  0.0029
 2302TIP3    H128397   4.811   3.774   4.697  0.7767 -0.3935  0.1909
 2302TIP3    H228398   4.877   3.814   4.827 -1.6360  0.1032  1.3176
 2303TIP3   OH228399   4.164   4.215   1.133  0.2701  0.3586 -0.4246
 2303TIP3    H128400   4.258   4.211   1.150 -0.1527 -1.3894  1.8794
 2303TIP3    H228401   4.137   4.124   1.125 -1.3795  0.8032 -0.2051
 2304TIP3   OH228402   0.051   2.880  14.283 -0.0971 -0.3139 -0.8717
 2304TIP3    H128403   0.057   2.970  14.313 -1.6034 -0.0098 -1.4358
 2304TIP3    H228404   0.076   2.828  14.359 -1.7413  0.5092  0.2788
 2305TIP3   OH228405   4.511   3.711   5.884  0.3346  0.1399 -0.6616
 2305TIP3    H128406   4.528   3.777   5.951 -2.8974  0.4888 -0.0466
 2305TIP3    H228407   4.467   3.640   5.931  2.8030 -2.1306 -1.4934
 2306TIP3   OH228408   2.907   0.248   1.288  0.0838 -0.5965 -0.3634
 2306TIP3    H128409   2.819   0.259   1.324 -0.5184 -1.5408 -1.5013
 2306TIP3    H228410   2.894   0.214   1.200  1.5896 -0.5292 -0.6485
 2307TIP3   OH228411   4.606   2.195  11.010  0.0170 -0.0535  0.0210
 2307TIP3    H128412   4.699   2.202  11.032 -0.0658  0.7696  0.1433
 2307TIP3    H228413   4.591   2.265  10.947 -0.7641  0.5427  0.8592
 2308TIP3   OH228414   4.507   4.121   0.705  0.0901 -0.0896 -0.3894
 2308TIP3    H128415   4.544   4.157   0.786 -1.5228 -2.5163  1.5722
 2308TIP3    H228416   4.583   4.086   0.658  0.9885  0.8042  0.3460
 2309TIP3   OH228417   0.058   4.454  11.821 -0.2605  0.6820  0.3093
 2309TIP3    H128418  -0.038   4.450  11.821 -0.2867  0.3990  2.3120
 2309TIP3    H228419   0.078   4.547  11.820 -0.4613  0.7774 -2.1753
 2310TIP3   OH228420   1.739   2.054  15.328 -0.6843 -0.2083 -0.0592
 2310TIP3    H128421   1.682   2.124  15.360 -1.0697 -0.6319  0.1769
 2310TIP3    H228422   1.682   1.996  15.279 -0.9518 -1.8940  2.0976
 2311TIP3   OH228423   2.494   0.977  15.671 -0.3079 -0.2104 -0.0030
 2311TIP3    H128424   2.452   0.956  15.587  2.1068 -1.5821 -0.9787
 2311TIP3    H228425   2.531   1.064  15.658 -0.4497 -0.1717 -0.1520
 2312TIP3   OH228426   1.853   4.853   4.812 -0.0816  0.8079  0.4865
 2312TIP3    H128427   1.902   4.934   4.804  0.4698  0.6254  1.7363
 2312TIP3    H228428   1.914   4.784   4.787 -0.1748  0.6964  0.5569
 2313TIP3   OH228429   3.935   5.950  10.321 -0.2861  0.1784 -0.1815
 2313TIP3    H128430   3.884   6.028  10.299 -0.4073 -0.0255 -0.6545
 2313TIP3    H228431   4.024   5.971  10.294 -0.3167  0.1579 -0.2988
 2314TIP3   OH228432   0.801   0.185  12.045  0.1250  0.2853 -0.7008
 2314TIP3    H128433   0.858   0.166  11.971  0.2806 -1.0783 -0.2516
 2314TIP3    H228434   0.861   0.209  12.116  0.2113 -1.4861 -0.1270
 2315TIP3   OH228435   3.110   6.868  12.735  0.2815  0.1697  0.6222
 2315TIP3    H128436   3.112   6.781  12.695 -0.9530 -0.5411  1.9964
 2315TIP3    H228437   3.196   6.906  12.716  1.2039 -1.7304  0.8060
 2316TIP3   OH228438   2.224   6.542  16.658 -0.4616  0.8473 -0.2332
 2316TIP3    H128439   2.243   6.540  16.751 -1.1440  0.3963 -0.0940
 2316TIP3    H228440   2.310   6.538  16.616 -0.1949 -0.1527  0.3740
 2317TIP3   OH228441   3.630   0.711   5.241  0.2588  0.4994 -0.0678
 2317TIP3    H128442   3.634   0.622   5.277  2.2171  0.8530  0.6820
 2317TIP3    H228443   3.661   0.702   5.151  2.1253  0.6361  0.5239
 2318TIP3   OH228444   6.547   1.440  15.738 -0.3885  0.0612  0.0905
 2318TIP3    H128445   6.585   1.423  15.825  2.3074  1.7901 -0.6323
 2318TIP3    H228446   6.565   1.360  15.689  0.9374  0.2257  0.2625
 2319TIP3   OH228447   6.188   5.250   4.615 -0.1239 -0.0327 -0.0766
 2319TIP3    H128448   6.202   5.324   4.555 -0.0442 -0.5599 -0.7258
 2319TIP3    H228449   6.147   5.183   4.560  0.6600 -0.8112  0.2698
 2320TIP3   OH228450   3.556   4.353  13.764 -0.6113 -0.4283 -0.3680
 2320TIP3    H128451   3.555   4.375  13.671  1.3543  1.8789  0.0677
 2320TIP3    H228452   3.605   4.271  13.768  0.9971  0.4339 -1.2524
 2321TIP3   OH228453   3.267   0.162   0.224  0.3384 -0.0002  0.2022
 2321TIP3    H128454   3.264   0.074   0.186  1.4231 -0.6120  1.4232
 2321TIP3    H228455   3.228   0.152   0.311 -0.6849  1.0189 -0.1190
 2322TIP3   OH228456   3.463   6.819  12.203  0.2065 -0.0826 -0.5219
 2322TIP3    H128457   3.501   6.736  12.229 -1.7205 -0.9443 -0.3100
 2322TIP3    H228458   3.423   6.853  12.283 -1.8575 -0.5677 -1.3021
 2323TIP3   OH228459   6.794   4.112  12.539 -0.0030 -0.6618  0.3575
 2323TIP3    H128460   6.766   4.155  12.620 -0.7259 -1.4283  0.5307
 2323TIP3    H228461   6.866   4.166  12.507 -2.1311  1.8964 -0.5076
 2324TIP3   OH228462   6.847   2.127  10.687 -0.3018 -0.4738 -0.1700
 2324TIP3    H128463   6.810   2.113  10.600  0.6204 -0.3288 -0.5950
 2324TIP3    H228464   6.774   2.161  10.739 -0.6601  0.2146 -1.1013
 2325TIP3   OH228465   2.661   2.169   2.625 -0.3470 -0.2636  0.0796
 2325TIP3    H128466   2.627   2.105   2.688 -1.1469 -0.6163 -0.6925
 2325TIP3    H228467   2.745   2.132   2.597  0.3121  0.1902  1.3620
 2326TIP3   OH228468   0.518   4.198   2.570 -0.1740  0.4198  0.3279
 2326TIP3    H128469   0.462   4.136   2.615  0.4055 -0.2489  0.1458
 2326TIP3    H228470   0.515   4.277   2.625 -0.8360  0.2001  0.6120
 2327TIP3   OH228471   6.872   0.665  10.824  0.1363  0.0791  0.5807
 2327TIP3    H128472   6.834   0.579  10.805  0.3604  0.1113 -0.0195
 2327TIP3    H228473   6.914   0.654  10.910  2.1114 -1.0510 -0.4622
 2328TIP3   OH228474   1.768   2.678   2.309  0.1324 -0.0804  0.6344
 2328TIP3    H128475   1.719   2.759   2.325  0.6817  0.2718  0.5651
 2328TIP3    H228476   1.857   2.697   2.340  0.1756 -0.7782  0.9485
 2329TIP3   OH228477   5.673   6.309  12.734 -0.4580  0.5432  0.3103
 2329TIP3    H128478   5.748   6.364  12.759  0.5870  0.0090 -1.5224
 2329TIP3    H228479   5.604   6.372  12.713  1.0334  1.3451 -2.7650
 2330TIP3   OH228480   6.728   1.713   3.685  0.4966 -0.2059 -0.4082
 2330TIP3    H128481   6.816   1.695   3.652  0.2429 -0.5066 -0.9346
 2330TIP3    H228482   6.734   1.695   3.779  1.8330  2.8934  0.2263
 2331TIP3   OH228483   4.931   0.871   6.166  0.1484 -0.1143 -0.1003
 2331TIP3    H128484   4.928   0.966   6.172 -2.0125 -0.1151 -0.3266
 2331TIP3    H228485   4.846   0.846   6.130  1.2009 -2.0612 -1.4598
 2332TIP3   OH228486   2.566   0.602   1.515  0.0889 -0.1735  0.0670
 2332TIP3    H128487   2.651   0.631   1.545  0.3043 -1.6587  1.0343
 2332TIP3    H228488   2.560   0.632   1.425  1.4352  0.3458  0.1341
 2333TIP3   OH228489   6.301   6.472  11.520 -0.4451 -0.2340  0.0829
 2333TIP3    H128490   6.235   6.520  11.571 -0.2853  1.0024 -0.8043
 2333TIP3    H228491   6.256   6.451  11.438 -0.2660 -0.9258  0.1627
 2334TIP3   OH228492   4.544   6.142  14.187 -0.1138 -0.2395 -0.2184
 2334TIP3    H128493   4.497   6.210  14.138  1.3382 -0.1165 -1.5054
 2334TIP3    H228494   4.595   6.191  14.252  1.8143  0.0735 -1.8804
 2335TIP3   OH228495   1.227   6.698  15.540 -0.3587  0.1850 -0.6162
 2335TIP3    H128496   1.195   6.647  15.466  0.1308 -0.8826 -0.1126
 2335TIP3    H228497   1.226   6.637  15.614  0.3913  0.8624 -0.0223
 2336TIP3   OH228498   1.811   2.884  13.333 -0.2246 -0.2125  0.0427
 2336TIP3    H128499   1.761   2.823  13.278 -1.5254 -0.5998  1.5845
 2336TIP3    H228500   1.818   2.839  13.417  1.8169  0.3188  0.2006
 2337TIP3   OH228501   1.579   1.507   2.469  0.1413  0.0747 -0.1615
 2337TIP3    H128502   1.631   1.586   2.484 -1.1492  1.4684 -2.5027
 2337TIP3    H228503   1.591   1.488   2.376 -1.7830 -0.8494 -0.2604
 2338TIP3   OH228504   6.116   6.188   4.917 -0.3191 -0.4311  0.2004
 2338TIP3    H128505   6.062   6.189   4.838  1.4773  1.0071 -1.0885
 2338TIP3    H228506   6.203   6.212   4.887  0.2642  1.0299  2.7552
 2339TIP3   OH228507   3.258   4.235   4.766 -0.3697  0.3634  0.1232
 2339TIP3    H128508   3.275   4.304   4.703  0.1231 -0.2143 -0.3856
 2339TIP3    H228509   3.162   4.230   4.771 -0.4229  0.1285 -0.9079
 2340TIP3   OH228510   1.522   3.978  13.309  0.0611 -0.0320  0.1391
 2340TIP3    H128511   1.490   3.931  13.231 -0.1052  0.1994  0.0671
 2340TIP3    H228512   1.474   3.938  13.382  0.6656 -0.6668  0.1938
 2341TIP3   OH228513   0.559   5.005  15.027  0.4105 -0.2959 -0.6953
 2341TIP3    H128514   0.651   5.024  15.009  0.3330 -0.0245 -0.8060
 2341TIP3    H228515   0.548   5.028  15.120  0.2848  0.3428 -0.8615
 2342TIP3   OH228516   0.889   2.525  11.151  0.6626 -0.2411  0.7924
 2342TIP3    H128517   0.869   2.477  11.232 -1.4074 -0.5462  0.1665
 2342TIP3    H228518   0.857   2.467  11.081  1.3530  0.5296 -0.1848
 2343TIP3   OH228519   1.498   6.524  15.024  0.0036  0.0260 -0.0937
 2343TIP3    H128520   1.512   6.545  15.117  0.3179 -0.6644  0.0215
 2343TIP3    H228521   1.585   6.530  14.985  0.0134 -0.5374 -0.1631
 2344TIP3   OH228522   6.283   2.459  13.377  0.1347  0.1292 -0.0279
 2344TIP3    H128523   6.303   2.412  13.458 -0.6090  0.7401  0.5287
 2344TIP3    H228524   6.190   2.443  13.361  0.5964 -1.2683 -1.6466
 2345TIP3   OH228525   0.457   0.049  15.635 -0.5138 -0.2566  0.6383
 2345TIP3    H128526   0.518   0.099  15.582 -0.0808 -2.2202 -0.8133
 2345TIP3    H228527   0.493  -0.040  15.637 -1.0268 -0.5222  3.4564
 2346TIP3   OH228528   0.646   6.609   5.505 -0.5132  0.6339 -0.1743
 2346TIP3    H128529   0.609   6.675   5.564 -1.1497 -1.3083  1.7374
 2346TIP3    H228530   0.583   6.604   5.433 -1.6350  0.5692  0.7784
 2347TIP3   OH228531   6.013   0.572   1.208  0.2562  0.0440 -0.3093
 2347TIP3    H128532   6.008   0.603   1.117 -0.1147 -0.7015 -0.5521
 2347TIP3    H228533   6.072   0.634   1.251  0.9825  0.0067 -1.2234
 2348TIP3   OH228534   3.202   1.733  12.578 -0.0497 -0.3684 -0.3988
 2348TIP3    H128535   3.163   1.674  12.643  0.0660  0.8406  0.8133
 2348TIP3    H228536   3.129   1.758  12.522 -0.9354  1.1797  1.3208
 2349TIP3   OH228537   0.907   2.341   3.953  0.2047 -0.0946  0.6212
 2349TIP3    H128538   0.987   2.290   3.942 -0.7739 -1.1577 -3.0652
 2349TIP3    H228539   0.841   2.276   3.977 -0.3676 -0.0578 -0.7427
 2350TIP3   OH228540   2.071   2.881  13.094 -0.3002  0.0056  0.1673
 2350TIP3    H128541   2.084   2.810  13.156  0.7539  1.0222  1.1408
 2350TIP3    H228542   2.123   2.953  13.128 -0.9129  1.0831 -1.0890
 2351TIP3   OH228543   3.068   1.244   3.594  0.0202 -0.0385 -0.2993
 2351TIP3    H128544   2.986   1.287   3.570  0.4641 -0.3157 -2.6338
 2351TIP3    H228545   3.118   1.241   3.512  0.4992 -3.8804 -0.0406
 2352TIP3   OH228546   3.686   2.307   5.472  0.1178 -0.4033 -0.2137
 2352TIP3    H128547   3.678   2.384   5.416  1.1457 -0.5167 -0.5415
 2352TIP3    H228548   3.728   2.339   5.552 -2.2349 -0.0511  0.9444
 2353TIP3   OH228549   0.382   5.913   2.557 -0.2748  0.1908 -0.1296
 2353TIP3    H128550   0.449   5.888   2.620  1.0492  1.3231 -1.0252
 2353TIP3    H228551   0.431   5.940   2.479 -1.4906  4.4701  0.3389
 2354TIP3   OH228552   4.431   0.927   1.677  0.0772 -0.0920 -0.9273
 2354TIP3    H128553   4.340   0.956   1.679  0.2960  0.6389  1.2444
 2354TIP3    H228554   4.439   0.879   1.595 -1.7559  1.4199 -2.0811
 2355TIP3   OH228555   4.248   0.436  12.559  0.2998  0.2140  0.2971
 2355TIP3    H128556   4.247   0.353  12.607 -0.7208  0.2283  0.3220
 2355TIP3    H228557   4.161   0.442  12.520  0.3071  1.3606  0.4318
 2356TIP3   OH228558   1.181   4.140   0.501  0.0397 -0.4166 -0.3618
 2356TIP3    H128559   1.133   4.088   0.436  2.7610 -1.2656 -1.8594
 2356TIP3    H228560   1.256   4.085   0.525  1.0406  1.3483  0.7885
 2357TIP3   OH228561   4.735   2.325   2.520  0.2347  0.0909 -0.4412
 2357TIP3    H128562   4.813   2.314   2.466  2.6533 -0.6980  2.8914
 2357TIP3    H228563   4.710   2.235   2.543  0.2107  0.4344  0.9362
 2358TIP3   OH228564   3.849   5.653  11.758 -0.7049 -0.2274  0.1276
 2358TIP3    H128565   3.761   5.683  11.781 -1.0733 -1.8732  0.9746
 2358TIP3    H228566   3.865   5.577  11.814  1.6233  0.5291  0.6472
 2359TIP3   OH228567   4.702   3.261   3.291  0.3092  0.1031 -0.1695
 2359TIP3    H128568   4.653   3.300   3.218  2.0469 -0.1223 -1.5331
 2359TIP3    H228569   4.686   3.319   3.365 -1.2171  0.5505 -0.8083
 2360TIP3   OH228570   5.375   2.324  14.180 -0.0751 -0.1650 -0.6712
 2360TIP3    H128571   5.395   2.256  14.246 -2.0974  0.4142  0.6247
 2360TIP3    H228572   5.431   2.398  14.205 -0.6800 -0.0198  0.3157
 2361TIP3   OH228573   0.019   0.134   0.613 -0.0787  0.0744 -0.6332
 2361TIP3    H128574   0.053   0.045   0.624 -0.2333 -0.0229 -0.9374
 2361TIP3    H228575   0.068   0.169   0.538  0.6492  0.5756  0.0517
 2362TIP3   OH228576   6.656   3.320  11.182  0.0274  0.6393  0.0204
 2362TIP3    H128577   6.652   3.246  11.123  0.5029  0.3358  0.3615
 2362TIP3    H228578   6.747   3.350  11.177 -0.0574  0.9319  0.2055
 2363TIP3   OH228579   2.673   0.967  11.374 -0.8489  0.0759  0.1746
 2363TIP3    H128580   2.687   0.966  11.280 -2.1771  0.8855 -0.0622
 2363TIP3    H228581   2.755   0.936  11.411 -0.3592 -0.4114 -1.2495
 2364TIP3   OH228582   1.273   0.719  13.571 -0.4189 -0.0983  0.2840
 2364TIP3    H128583   1.225   0.801  13.566  1.5431  1.0278 -2.5867
 2364TIP3    H228584   1.340   0.734  13.637 -0.8687  0.1138  0.6966
 2365TIP3   OH228585   1.399   5.226  11.105 -0.2490  0.2075 -0.5953
 2365TIP3    H128586   1.440   5.294  11.050  1.3823 -0.7800 -0.6738
 2365TIP3    H228587   1.468   5.199  11.165 -1.0886 -0.8758 -0.0849
 2366TIP3   OH228588   1.408   1.035  16.547  0.1328  0.4235  0.2967
 2366TIP3    H128589   1.477   0.976  16.577  1.2865 -0.4214 -3.5457
 2366TIP3    H228590   1.329   1.002  16.589  1.1675 -2.2230  0.3663
 2367TIP3   OH228591   3.720   5.084   1.244  0.3364  0.6467 -0.4490
 2367TIP3    H128592   3.800   5.099   1.193  1.2047 -2.1808 -0.0662
 2367TIP3    H228593   3.657   5.048   1.181  0.5727 -0.4785 -0.0578
 2368TIP3   OH228594   5.121   4.453  11.834 -0.1720  0.8538  0.6574
 2368TIP3    H128595   5.204   4.429  11.876  0.2095  0.6495 -0.1964
 2368TIP3    H228596   5.054   4.420  11.894  0.2848 -2.6059 -0.4820
 2369TIP3   OH228597   6.509   2.591   4.029 -0.5148  0.1000  0.9304
 2369TIP3    H128598   6.500   2.610   4.122 -0.9731  1.1943  0.6811
 2369TIP3    H228599   6.501   2.677   3.986 -1.7542 -0.5446 -0.2104
 2370TIP3   OH228600   3.129   5.464   1.265  0.2991  0.0314 -0.5752
 2370TIP3    H128601   3.072   5.437   1.193 -0.6646  1.8803 -0.5819
 2370TIP3    H228602   3.107   5.407   1.338 -0.1187 -0.5774 -1.1747
 2371TIP3   OH228603   1.435   4.427   4.654 -0.2446 -0.3344 -0.0347
 2371TIP3    H128604   1.346   4.459   4.667 -0.6475 -1.7594  0.9424
 2371TIP3    H228605   1.438   4.399   4.562 -1.2584 -1.5778  0.2914
 2372TIP3   OH228606   5.275   2.081  14.989 -0.8409  0.1848 -0.0363
 2372TIP3    H128607   5.187   2.055  14.960 -1.2025  2.2350 -0.9492
 2372TIP3    H228608   5.320   1.999  15.005 -2.5950 -0.9398 -0.5703
 2373TIP3   OH228609   0.916   4.228  16.496  0.1193  0.1087 -0.3488
 2373TIP3    H128610   0.967   4.148  16.511 -0.3449 -0.0072  0.6504
 2373TIP3    H228611   0.975   4.299  16.521  1.0699  0.2029 -2.6243
 2374TIP3   OH228612   2.691   6.690  15.396  0.9088 -0.2002  0.6960
 2374TIP3    H128613   2.693   6.778  15.358 -1.3767 -0.1553  0.5208
 2374TIP3    H228614   2.734   6.634  15.331 -0.8354  0.2511 -0.9371
 2375TIP3   OH228615   1.247   2.374   1.101  0.4181 -0.8046 -0.1491
 2375TIP3    H128616   1.294   2.437   1.155  0.9956  0.1656 -1.7119
 2375TIP3    H228617   1.285   2.289   1.125  0.1727 -0.4934  1.4285
 2376TIP3   OH228618   3.002   6.039   1.685  0.4301  0.0132  0.8624
 2376TIP3    H128619   3.080   6.027   1.631  0.1982  2.4230 -0.1349
 2376TIP3    H228620   2.929   6.038   1.622  0.1268  2.5491  1.0885
 2377TIP3   OH228621   6.117   4.797  15.774  0.4193  0.0586 -0.5344
 2377TIP3    H128622   6.110   4.769  15.682 -3.1122  0.3387 -0.4968
 2377TIP3    H228623   6.093   4.890  15.772  2.1487  0.5533  0.4958
 2378TIP3   OH228624   3.925   0.560  11.871 -0.2433  0.1201  0.2556
 2378TIP3    H128625   3.919   0.607  11.787 -1.0611  0.3554  0.4387
 2378TIP3    H228626   4.016   0.574  11.899  0.8379 -2.0776 -1.7876
 2379TIP3   OH228627   1.477   2.450  15.140  0.9163 -0.3099  0.1613
 2379TIP3    H128628   1.514   2.409  15.062  3.6050 -1.3568  1.8474
 2379TIP3    H228629   1.447   2.376  15.193 -0.3861  0.3522  0.3849
 2380TIP3   OH228630   3.311   5.970   5.347 -0.6498 -0.3619  0.6156
 2380TIP3    H128631   3.220   5.955   5.371 -1.2617  2.3607  0.2840
 2380TIP3    H228632   3.351   6.005   5.426 -1.2013  2.9988 -0.4143
 2381TIP3   OH228633   0.296   5.817  13.663 -0.2990  0.0781 -0.6369
 2381TIP3    H128634   0.313   5.770  13.745 -0.6241  3.0827  1.3073
 2381TIP3    H228635   0.227   5.767  13.621 -0.5840 -1.2301  1.2524
 2382TIP3   OH228636   6.890   3.628   5.817  0.7713 -0.7247  0.0946
 2382TIP3    H128637   6.931   3.562   5.873 -0.1563 -3.0707 -1.8499
 2382TIP3    H228638   6.796   3.619   5.835  0.6902  1.2165  0.9222
 2383TIP3   OH228639   4.692   0.405  16.620 -0.3301  0.3832  0.4087
 2383TIP3    H128640   4.620   0.432  16.677 -1.4369 -1.4046 -0.0878
 2383TIP3    H228641   4.710   0.315  16.645  0.8819  0.3813 -0.3759
 2384TIP3   OH228642   4.962   4.942  14.689  0.6725  0.1563 -0.0064
 2384TIP3    H128643   4.972   4.899  14.603  2.8792 -1.0115  0.7551
 2384TIP3    H228644   5.008   5.025  14.679 -2.9871  2.2567 -1.2544
 2385TIP3   OH228645   3.785   3.285  16.103  0.0946  0.0980  0.0039
 2385TIP3    H128646   3.812   3.377  16.097  1.9168 -0.4237 -0.2905
 2385TIP3    H228647   3.844   3.247  16.168  0.7528 -1.3122 -1.3580
 2386TIP3   OH228648   0.766   2.694  14.264 -0.2113  0.3986  0.2477
 2386TIP3    H128649   0.813   2.768  14.223 -1.1119 -0.6317 -2.9264
 2386TIP3    H228650   0.802   2.690  14.353  1.5138  3.2120 -0.1742
 2387TIP3   OH228651   5.966   6.661   1.142 -0.0555 -0.4514  0.2858
 2387TIP3    H128652   5.980   6.633   1.233  1.3247  1.8589  0.8735
 2387TIP3    H228653   5.931   6.584   1.098  0.9045 -2.1787  2.3671
 2388TIP3   OH228654   3.156   2.083  13.444 -0.0677  0.0116 -0.1235
 2388TIP3    H128655   3.136   2.177  13.451  0.6058  0.1851 -0.3937
 2388TIP3    H228656   3.072   2.041  13.429 -0.2522  0.6764 -0.9849
 2389TIP3   OH228657   5.215   0.114  10.863  0.4104  0.2001  0.0192
 2389TIP3    H128658   5.303   0.126  10.826  0.2502 -2.0722 -1.3160
 2389TIP3    H228659   5.225   0.132  10.956  2.7128 -1.5485  0.2069
 2390TIP3   OH228660   2.868   5.516   1.906  0.0018 -0.7064  0.2408
 2390TIP3    H128661   2.866   5.457   1.830 -0.0094 -1.3541  0.7421
 2390TIP3    H228662   2.863   5.604   1.867 -0.2170 -1.0348 -0.5019
 2391TIP3   OH228663   5.865   5.519  12.711 -0.3548  0.0126  0.2857
 2391TIP3    H128664   5.864   5.481  12.623  1.2606  0.3746  0.0723
 2391TIP3    H228665   5.909   5.604  12.700  1.1583 -0.5346  1.6297
 2392TIP3   OH228666   1.121   5.684  11.620 -0.2111 -0.4859 -0.6889
 2392TIP3    H128667   1.144   5.756  11.560 -1.1719  0.4419  0.0088
 2392TIP3    H228668   1.064   5.628  11.567 -0.9399  0.2524 -0.7136
 2393TIP3   OH228669   4.339   1.730  15.776 -0.3534  0.2314  0.4696
 2393TIP3    H128670   4.279   1.670  15.821 -0.1620  0.2614  0.7606
 2393TIP3    H228671   4.393   1.767  15.845 -0.3046  0.5548  0.2596
 2394TIP3   OH228672   3.656   6.308   1.961 -0.4654 -0.2660  0.6644
 2394TIP3    H128673   3.736   6.360   1.954 -1.2532  0.8472 -0.5732
 2394TIP3    H228674   3.585   6.372   1.963 -1.3370 -1.2311  1.8281
 2395TIP3   OH228675   3.232   1.894  15.277 -0.2207  0.4219 -0.5346
 2395TIP3    H128676   3.308   1.948  15.299  0.2744 -0.3140 -0.4295
 2395TIP3    H228677   3.171   1.908  15.350  0.5960 -0.4507  0.3377
 2396TIP3   OH228678   5.699   3.351  15.110 -0.0576  0.2458  0.1211
 2396TIP3    H128679   5.741   3.399  15.181  0.5619  0.6092 -0.4753
 2396TIP3    H228680   5.719   3.402  15.031  0.7334 -1.0421 -0.5509
 2397TIP3   OH228681   0.109   1.827  10.458  0.2082  0.3757 -0.5521
 2397TIP3    H128682   0.118   1.766  10.384 -1.7499 -2.3073  1.2031
 2397TIP3    H228683   0.019   1.860  10.449  0.8700  2.1732 -0.8176
 2398TIP3   OH228684   5.485   2.584  10.843 -0.2538 -0.0794  0.1473
 2398TIP3    H128685   5.430   2.507  10.858 -2.4184  1.3624 -0.0809
 2398TIP3    H228686   5.504   2.583  10.749  1.0032 -1.1074  0.3812
 2399TIP3   OH228687   1.163   1.837   4.575  0.3220  0.0338  0.7009
 2399TIP3    H128688   1.082   1.852   4.526  0.6620  0.1369  0.1596
 2399TIP3    H228689   1.215   1.917   4.559  0.8794 -0.3922  0.3334
 2400TIP3   OH228690   4.551   0.558  16.795 -0.5601 -0.4031 -0.3382
 2400TIP3    H128691   4.593   0.582  16.877 -1.8314 -0.6305  0.4079
 2400TIP3    H228692   4.505   0.638  16.768  1.2743  0.2359 -1.7978
 2401TIP3   OH228693   5.482   5.613  13.312 -0.1889 -0.4987 -0.2167
 2401TIP3    H128694   5.413   5.678  13.329 -1.7271 -1.6503 -1.6842
 2401TIP3    H228695   5.509   5.631  13.222 -2.9061 -3.6868 -1.8977
 2402TIP3   OH228696   4.346   4.295   2.125  0.3347 -0.2606 -0.2702
 2402TIP3    H128697   4.336   4.339   2.209  2.4392  0.2145 -0.2095
 2402TIP3    H228698   4.422   4.337   2.085  0.2614 -1.4661 -1.7711
 2403TIP3   OH228699   2.278   4.992  10.893 -0.5444 -0.0177 -0.1444
 2403TIP3    H128700   2.357   5.033  10.858  0.0100 -1.7381 -1.0360
 2403TIP3    H228701   2.226   4.971  10.816 -2.2177  1.6707  0.4658
 2404TIP3   OH228702   0.075   0.752   4.935  0.1973 -0.1584 -0.0282
 2404TIP3    H128703   0.165   0.782   4.919 -0.2652  1.5562  0.2959
 2404TIP3    H228704   0.045   0.806   5.008 -0.9224 -1.0806  0.2144
 2405TIP3   OH228705   6.395   6.670  14.858  1.3342  0.4441 -0.1108
 2405TIP3    H128706   6.318   6.724  14.841 -0.5026 -2.0835 -0.4824
 2405TIP3    H228707   6.453   6.725  14.911 -1.4079  1.9413  1.5465
 2406TIP3   OH228708   0.365   0.173   4.345 -0.3469  0.1970  0.1250
 2406TIP3    H128709   0.381   0.164   4.439  0.6481 -0.1816 -0.0671
 2406TIP3    H228710   0.341   0.266   4.334 -0.7425  0.1779  0.7796
 2407TIP3   OH228711   2.094   4.749   2.713 -0.5701 -0.6444 -0.3527
 2407TIP3    H128712   2.023   4.766   2.775  0.3793 -0.8629  0.8209
 2407TIP3    H228713   2.082   4.815   2.645 -1.4113 -0.1533  0.2511
 2408TIP3   OH228714   6.200   2.561   0.274 -0.6458 -0.1485 -0.0225
 2408TIP3    H128715   6.126   2.545   0.215 -1.5193 -2.5127  1.5954
 2408TIP3    H228716   6.186   2.651   0.305 -2.2772 -0.1948 -0.5156
 2409TIP3   OH228717   1.770   5.746   0.322  0.4290 -0.2655 -0.1763
 2409TIP3    H128718   1.808   5.663   0.292 -1.5124 -0.8263 -1.2457
 2409TIP3    H228719   1.723   5.780   0.246 -1.9689 -0.0869  1.2861
 2410TIP3   OH228720   1.457   6.656   1.279 -0.0570 -0.0261  0.2473
 2410TIP3    H128721   1.397   6.581   1.279 -0.6929  0.4458 -1.0212
 2410TIP3    H228722   1.489   6.661   1.369 -0.1835 -1.6615  0.4260
 2411TIP3   OH228723   3.872   6.512  10.484 -0.2984  0.0538  0.2817
 2411TIP3    H128724   3.951   6.476  10.444 -1.2293 -0.1514 -1.4647
 2411TIP3    H228725   3.875   6.605  10.464 -0.7683 -0.0488 -0.2908
 2412TIP3   OH228726   3.699   5.147  12.100  0.0727  0.2143  0.4459
 2412TIP3    H128727   3.739   5.061  12.088  0.7298  0.7827 -2.0330
 2412TIP3    H228728   3.606   5.129  12.116  0.4451 -0.9601  1.4347
 2413TIP3   OH228729   0.772   4.001   0.957 -0.2578  0.2778  0.0381
 2413TIP3    H128730   0.849   3.979   0.906 -0.2444 -1.1348  0.6247
 2413TIP3    H228731   0.776   4.096   0.966  1.6859  0.2062  0.4681
 2414TIP3   OH228732   1.590   6.253   2.659 -0.4149 -0.7028  0.2862
 2414TIP3    H128733   1.598   6.159   2.674 -2.0640 -0.8945  0.1190
 2414TIP3    H228734   1.500   6.265   2.628  0.2910  0.7185 -1.3571
 2415TIP3   OH228735   2.919   5.853   0.396  0.4250 -0.4901 -0.0362
 2415TIP3    H128736   2.904   5.947   0.405  2.1954 -0.1227 -0.5826
 2415TIP3    H228737   2.838   5.819   0.358 -0.9364  0.4837  1.8594
 2416TIP3   OH228738   4.039   1.425  16.745  0.1780  0.5626 -0.3477
 2416TIP3    H128739   4.028   1.440  16.652  2.0298 -0.0870 -0.7141
 2416TIP3    H228740   3.958   1.382  16.772  0.6727 -1.7951 -2.2636
 2417TIP3   OH228741   2.708   5.381  10.783 -0.0070  0.0506 -0.1901
 2417TIP3    H128742   2.749   5.423  10.858  0.6661  2.2954 -1.6864
 2417TIP3    H228743   2.773   5.389  10.713 -0.6912 -1.7722 -1.0901
 2418TIP3   OH228744   4.331   3.625  11.497  0.3568 -0.0578 -0.6299
 2418TIP3    H128745   4.366   3.537  11.481  1.6202 -0.0530  1.6629
 2418TIP3    H228746   4.402   3.671  11.543 -0.5591  1.9309 -1.0945
 2419TIP3   OH228747   1.725   4.646  11.985 -0.1760  0.5282 -0.4158
 2419TIP3    H128748   1.768   4.562  11.966 -0.7065  0.3541 -0.8726
 2419TIP3    H228749   1.718   4.689  11.900 -1.4232  0.2977 -0.4525
 2420TIP3   OH228750   2.534   1.527   4.219  0.4044 -0.1399 -0.3537
 2420TIP3    H128751   2.466   1.529   4.286 -0.4704 -0.7007 -1.1970
 2420TIP3    H228752   2.539   1.435   4.192  1.9384 -0.2237  0.1214
 2421TIP3   OH228753   1.974   5.447  14.646  0.2257 -0.4649  0.3227
 2421TIP3    H128754   2.057   5.412  14.612  0.0154  0.1827 -0.9128
 2421TIP3    H228755   1.997   5.534  14.679  0.7332 -1.6458  3.3160
 2422TIP3   OH228756   2.640   6.635   2.338  0.4391 -0.1130  0.0364
 2422TIP3    H128757   2.637   6.539   2.332 -0.3210 -0.0351 -1.6272
 2422TIP3    H228758   2.548   6.661   2.338  0.6456  0.6335 -0.1839
 2423TIP3   OH228759   4.222   2.887   1.931  0.0698 -0.1923  0.4339
 2423TIP3    H128760   4.298   2.932   1.969  0.1590  0.7124 -0.7696
 2423TIP3    H228761   4.254   2.799   1.912 -0.0830 -0.8284  2.7398
 2424TIP3   OH228762   5.549   4.532   1.621  0.2300 -0.0720  0.3093
 2424TIP3    H128763   5.633   4.576   1.633 -0.2468  0.5283  1.5991
 2424TIP3    H228764   5.552   4.458   1.682 -0.4393  0.3482  0.8559
 2425TIP3   OH228765   1.301   4.844  11.333  0.0155 -0.3341  0.1223
 2425TIP3    H128766   1.296   4.939  11.319  0.7535 -0.1319  1.1276
 2425TIP3    H228767   1.226   4.809  11.284  0.8814  0.5465 -1.9557
 2426TIP3   OH228768   6.888   4.930   6.038  0.0275  0.4549 -0.3008
 2426TIP3    H128769   6.829   4.938   6.113 -1.3718  0.2961 -1.3414
 2426TIP3    H228770   6.880   4.839   6.010  0.5088  0.5188 -0.6668
 2427TIP3   OH228771   1.257   4.699  14.973  0.3399  0.2805 -0.1391
 2427TIP3    H128772   1.238   4.753  15.050 -0.7502  1.3219 -1.0963
 2427TIP3    H228773   1.313   4.629  15.006 -0.6782  0.2904  1.7451
 2428TIP3   OH228774   3.713   4.328  13.528 -0.0078  0.0905 -0.2247
 2428TIP3    H128775   3.712   4.328  13.432  0.4431 -0.5099 -0.2378
 2428TIP3    H228776   3.719   4.236  13.551 -0.4253  0.2138  0.3922
 2429TIP3   OH228777   4.612   6.513   1.764  0.6587 -0.0471 -0.4480
 2429TIP3    H128778   4.699   6.492   1.728  0.2743 -1.4830 -0.5849
 2429TIP3    H228779   4.601   6.453   1.837  0.3410  1.0839  0.4608
 2430TIP3   OH228780   4.412   6.123  13.750  0.7388  0.0268 -0.1795
 2430TIP3    H128781   4.323   6.149  13.725  0.7503 -1.3238 -1.7802
 2430TIP3    H228782   4.467   6.197  13.725  0.5400 -0.6711 -2.9634
 2431TIP3   OH228783   2.445   0.087   3.214 -0.0387 -0.3003 -0.4391
 2431TIP3    H128784   2.414   0.042   3.293  3.9562  0.4318  1.8535
 2431TIP3    H228785   2.384   0.160   3.202 -0.5567 -0.1894  2.2818
 2432TIP3   OH228786   6.872   3.028  14.589  0.5593  0.2867  0.8325
 2432TIP3    H128787   6.835   3.107  14.549 -0.1016 -0.9365 -1.1329
 2432TIP3    H228788   6.964   3.028  14.561  0.3148 -0.1144 -0.0112
 2433TIP3   OH228789   4.044   0.076   0.833 -0.3566 -0.1630  0.1432
 2433TIP3    H128790   4.138   0.092   0.843 -0.3367 -0.7181  0.9451
 2433TIP3    H228791   4.031   0.072   0.738  0.2015  1.1439 -0.0168
 2434TIP3   OH228792   4.885   5.501  13.318  0.0357  1.1251  0.0384
 2434TIP3    H128793   4.887   5.457  13.233 -1.8195  0.0940  0.4748
 2434TIP3    H228794   4.975   5.530  13.333  0.7151 -0.0581 -1.5563
 2435TIP3   OH228795   2.528   1.889   3.785  0.4793  0.0042  0.4002
 2435TIP3    H128796   2.573   1.971   3.805 -0.8906  0.8061  0.3923
 2435TIP3    H228797   2.588   1.840   3.729  1.4424  0.8758  0.6589
 2436TIP3   OH228798   2.477   6.265  16.061  0.3240 -0.3097 -0.5003
 2436TIP3    H128799   2.409   6.206  16.031  0.4838 -0.0848 -1.3287
 2436TIP3    H228800   2.555   6.240  16.011  0.1881  1.1254 -1.5008
 2437TIP3   OH228801   2.523   5.690   3.287 -0.4570  0.5600 -0.0650
 2437TIP3    H128802   2.526   5.599   3.260  1.0547  0.6406 -0.3032
 2437TIP3    H228803   2.447   5.727   3.243  0.9678  0.3045 -3.0088
 2438TIP3   OH228804   4.834   5.067   3.420  0.3823 -0.2928 -0.1062
 2438TIP3    H128805   4.817   5.069   3.514 -2.3649 -0.1449 -0.5020
 2438TIP3    H228806   4.868   5.153   3.399  0.3458 -0.0851  0.6673
 2439TIP3   OH228807   3.856   2.367  12.768  0.2512  0.6087  0.0287
 2439TIP3    H128808   3.803   2.421  12.709  0.6015  1.7314  0.7144
 2439TIP3    H228809   3.946   2.389  12.746  0.4439 -0.6215 -0.5095
 2440TIP3   OH228810   1.548   1.351   0.868 -0.0353 -0.1506 -0.1650
 2440TIP3    H128811   1.540   1.289   0.796  0.4339  0.7758 -1.0334
 2440TIP3    H228812   1.460   1.354   0.907  0.0065 -1.5630  0.0931
 2441TIP3   OH228813   5.118   6.330   4.974 -0.2740 -0.0166 -0.1546
 2441TIP3    H128814   5.051   6.271   5.008  0.1223 -0.4308 -0.0761
 2441TIP3    H228815   5.152   6.373   5.053  0.2566 -0.5641 -0.0752
 2442TIP3   OH228816   2.910   2.625   1.226  0.6556  0.2562  0.0601
 2442TIP3    H128817   3.000   2.598   1.239  0.4473  0.1212  1.3994
 2442TIP3    H228818   2.874   2.561   1.165  1.0756 -0.5457  0.6391
 2443TIP3   OH228819   4.561   1.465   4.247 -0.0048 -0.0688  0.2175
 2443TIP3    H128820   4.538   1.402   4.178  0.4305 -0.3876  0.3599
 2443TIP3    H228821   4.565   1.549   4.202 -0.3137 -0.1847 -0.0323
 2444TIP3   OH228822   2.898   1.627   0.303 -0.8123 -0.7141  0.2934
 2444TIP3    H128823   2.978   1.577   0.288  0.6334  1.1514  1.2573
 2444TIP3    H228824   2.926   1.719   0.298 -2.9240  0.0028  0.5364
 2445TIP3   OH228825   4.030   0.788   0.812 -0.0982 -0.5422  0.1418
 2445TIP3    H128826   3.992   0.873   0.835  2.9572  0.6241  1.5110
 2445TIP3    H228827   3.993   0.727   0.875 -1.4709 -0.0088 -0.1138
 2446TIP3   OH228828   5.710   0.686  11.422 -0.1730 -0.1317 -0.1465
 2446TIP3    H128829   5.770   0.646  11.359 -1.7814  0.9634 -2.5354
 2446TIP3    H228830   5.746   0.773  11.437  0.1241 -0.3360  0.3346
 2447TIP3   OH228831   4.863   1.427  15.823  0.3798 -0.2848  0.5716
 2447TIP3    H128832   4.921   1.498  15.796  1.1718 -0.5664  1.4743
 2447TIP3    H228833   4.912   1.381  15.891 -1.0706 -0.2992  1.6398
 2448TIP3   OH228834   3.933   1.688  13.999 -0.5302  0.4171 -0.1789
 2448TIP3    H128835   3.911   1.611  14.052 -1.8598 -0.2145 -1.5629
 2448TIP3    H228836   4.010   1.662  13.950 -0.1055  0.5118  0.4267
 2449TIP3   OH228837   3.559   3.182   4.437 -1.0871 -0.1216  0.4047
 2449TIP3    H128838   3.477   3.158   4.395 -0.9406  1.7545 -1.1002
 2449TIP3    H228839   3.587   3.262   4.392  0.2090  0.8024  2.6622
 2450TIP3   OH228840   0.528   6.332   3.911 -0.6150 -0.2687 -0.9146
 2450TIP3    H128841   0.465   6.309   3.843  0.2558 -0.4170 -1.6885
 2450TIP3    H228842   0.594   6.385   3.866 -0.2201 -0.0609 -0.1075
 2451TIP3   OH228843   5.364   3.454   1.662 -0.7633 -0.1939  0.3349
 2451TIP3    H128844   5.412   3.530   1.628 -0.6772 -0.0777  0.7070
 2451TIP3    H228845   5.420   3.379   1.643 -0.1922 -0.0004  1.2173
 2452TIP3   OH228846   6.194   1.367   2.583  0.2928  0.7664  0.4279
 2452TIP3    H128847   6.244   1.299   2.628  3.3195  1.3086 -1.7755
 2452TIP3    H228848   6.227   1.449   2.618 -0.8326  1.1565  0.6083
 2453TIP3   OH228849   5.606   4.435   5.254 -0.0319  0.1180  0.1410
 2453TIP3    H128850   5.554   4.512   5.276 -2.1180 -1.1522 -0.0336
 2453TIP3    H228851   5.643   4.406   5.337 -0.2302  0.6140  0.4059
 2454TIP3   OH228852   3.309   2.374  12.284 -0.2415  0.0614  0.1649
 2454TIP3    H128853   3.221   2.349  12.255 -0.1531  0.1226 -0.1603
 2454TIP3    H228854   3.367   2.320  12.231 -0.0909 -0.2801  0.6750
 2455TIP3   OH228855   0.045   0.796   2.368 -0.1954  0.4182 -0.8942
 2455TIP3    H128856   0.088   0.767   2.449 -0.6985 -1.7190 -1.3306
 2455TIP3    H228857   0.098   0.869   2.337 -0.4009  1.8100  1.7300
 2456TIP3   OH228858   2.540   3.112   0.164 -0.4782  0.2810  0.0708
 2456TIP3    H128859   2.510   3.062   0.087 -1.0674 -1.2059  1.2081
 2456TIP3    H228860   2.561   3.199   0.130  3.0756 -1.3563 -2.5194
 2457TIP3   OH228861   4.688   1.897   2.317  0.4573  0.2581  0.1231
 2457TIP3    H128862   4.686   1.935   2.405 -2.0285 -0.7632  0.5918
 2457TIP3    H228863   4.677   1.803   2.331  1.8913 -0.1539 -1.2335
 2458TIP3   OH228864   6.199   2.477   0.925 -0.0587  0.2121 -0.5156
 2458TIP3    H128865   6.176   2.484   1.017 -0.0627 -0.3099 -0.4725
 2458TIP3    H228866   6.155   2.551   0.883 -0.7659 -0.0440 -0.2351
 2459TIP3   OH228867   4.972   4.697   1.623 -0.9952 -0.2852 -0.1007
 2459TIP3    H128868   5.063   4.710   1.597 -0.7838 -1.0600  0.2611
 2459TIP3    H228869   4.936   4.786   1.629 -0.3140  0.0143 -0.4058
 2460TIP3   OH228870   1.141   0.294  16.428 -0.2354 -0.2215  0.2518
 2460TIP3    H128871   1.047   0.313  16.431  0.0901  2.2774 -1.5104
 2460TIP3    H228872   1.179   0.357  16.489  0.4785  1.2048 -1.5542
 2461TIP3   OH228873   0.506   3.339   5.596 -0.1092 -0.1520  0.5504
 2461TIP3    H128874   0.483   3.300   5.680 -1.2382  1.5689  1.0961
 2461TIP3    H228875   0.567   3.410   5.619  1.7290 -1.3641 -0.3844
 2462TIP3   OH228876   6.769   6.347   5.515  0.1309 -0.4317 -0.6507
 2462TIP3    H128877   6.675   6.339   5.500  0.2787 -2.0462 -0.9037
 2462TIP3    H228878   6.777   6.413   5.584 -1.1442  0.0481 -0.9378
 2463TIP3   OH228879   3.379   4.417  15.476 -0.0243 -0.7997 -0.1779
 2463TIP3    H128880   3.467   4.399  15.509  0.6850 -2.2318 -2.5437
 2463TIP3    H228881   3.320   4.390  15.547  1.4107 -0.5947  1.1407
 2464TIP3   OH228882   6.375   4.598  13.342 -0.1191  0.1215  0.1915
 2464TIP3    H128883   6.412   4.562  13.423  0.1877  0.2941  0.1290
 2464TIP3    H228884   6.365   4.691  13.360 -2.2118 -0.1697  0.8578
 2465TIP3   OH228885   1.112   3.907  10.815 -0.3255  0.1915 -0.2136
 2465TIP3    H128886   1.197   3.892  10.773 -1.1806 -0.2568 -1.8823
 2465TIP3    H228887   1.080   3.819  10.836  0.2712  0.4234  1.8551
 2466TIP3   OH228888   0.392   6.625  10.121  0.3220 -0.1267  0.1203
 2466TIP3    H128889   0.308   6.668  10.132  0.5624  0.3927 -0.0227
 2466TIP3    H228890   0.371   6.536  10.094 -0.1751  0.2435 -0.7503
 2467TIP3   OH228891   4.033   5.105   5.219  0.4337 -0.1342  0.4004
 2467TIP3    H128892   4.067   5.058   5.142  0.5288  1.5922 -0.6827
 2467TIP3    H228893   3.957   5.153   5.186  0.8257  1.1065  1.2160
 2468TIP3   OH228894   5.052   1.530  14.757 -0.0501 -0.2919  0.3171
 2468TIP3    H128895   5.087   1.619  14.763  0.8768 -0.4858 -1.4806
 2468TIP3    H228896   5.124   1.474  14.787  0.8504 -0.6104 -2.1669
 2469TIP3   OH228897   4.483   6.200  11.681 -0.2403  0.5064 -0.5334
 2469TIP3    H128898   4.390   6.214  11.700 -0.7556 -1.5296 -1.2619
 2469TIP3    H228899   4.526   6.281  11.710 -2.0746  1.0497  0.9107
 2470TIP3   OH228900   6.382   3.781  16.821  0.0369  0.4290 -0.4687
 2470TIP3    H128901   6.331   3.805  16.898  0.1090  1.5231 -0.7563
 2470TIP3    H228902   6.319   3.787  16.749  0.2023  0.2868 -0.6254
 2471TIP3   OH228903   2.215   0.851   0.672  0.2743  0.1559  0.2831
 2471TIP3    H128904   2.201   0.820   0.761  0.6522 -1.2780 -0.1396
 2471TIP3    H228905   2.235   0.944   0.683  2.1593 -0.3472  1.8877
 2472TIP3   OH228906   6.670   1.729  15.059  0.7330 -0.0547  0.7589
 2472TIP3    H128907   6.662   1.650  15.005  2.2337 -0.2184  0.7417
 2472TIP3    H228908   6.581   1.763  15.064  0.5457  0.0422 -1.9500
 2473TIP3   OH228909   2.238   0.911   5.104 -0.2045 -0.5096 -0.0402
 2473TIP3    H128910   2.202   0.979   5.048 -1.9762 -2.1501 -0.9922
 2473TIP3    H228911   2.268   0.958   5.182 -0.6223  1.4243 -0.9734
 2474TIP3   OH228912   0.218   3.359   4.491 -0.2159  0.5505 -0.2642
 2474TIP3    H128913   0.264   3.372   4.409  0.1334 -1.4595 -0.4360
 2474TIP3    H228914   0.129   3.391   4.474  0.2932  1.6573 -0.8897
 2475TIP3   OH228915   1.987   2.030  16.622 -0.5226 -1.1202  0.2516
 2475TIP3    H128916   1.987   2.104  16.562  0.5516 -1.5893 -0.3458
 2475TIP3    H228917   1.925   2.055  16.691  0.3328  0.6069  0.4263
 2476TIP3   OH228918   5.829   0.723  11.846 -0.2451 -0.1691 -0.0276
 2476TIP3    H128919   5.858   0.759  11.930  0.1556  0.5117 -0.4489
 2476TIP3    H228920   5.909   0.689  11.806 -0.5900 -1.3907  0.2841
 2477TIP3   OH228921   3.491   1.942  14.216 -0.3237 -0.0632  0.1253
 2477TIP3    H128922   3.396   1.932  14.209 -0.1367 -0.8065 -2.8270
 2477TIP3    H228923   3.506   2.035  14.203 -0.6609  0.1560  1.2392
 2478TIP3   OH228924   5.866   0.484  16.445 -0.4786  0.4252  0.1862
 2478TIP3    H128925   5.925   0.426  16.397 -0.0228 -0.8043  2.1215
 2478TIP3    H228926   5.787   0.432  16.459  0.7152 -0.6971  3.7963
 2479TIP3   OH228927   1.068   1.540  15.630 -0.3239 -0.1817 -0.1599
 2479TIP3    H128928   1.064   1.544  15.726 -1.1420  0.1924 -0.1985
 2479TIP3    H228929   1.011   1.466  15.607 -1.6461  0.8728 -0.4266
 2480TIP3   OH228930   3.424   2.363  16.227 -0.1375 -0.7267 -0.2899
 2480TIP3    H128931   3.512   2.388  16.252 -0.7421  0.3544  0.8709
 2480TIP3    H228932   3.423   2.267  16.232  1.2230 -0.8318 -1.3250
 2481TIP3   OH228933   6.477   6.248   5.580  0.7853 -0.2335 -1.1100
 2481TIP3    H128934   6.421   6.171   5.595  1.6183 -0.4073  1.5187
 2481TIP3    H228935   6.433   6.319   5.626  1.9637 -0.0350 -0.2657
 2482TIP3   OH228936   4.496   1.906  15.092  0.2064  1.0642  0.0745
 2482TIP3    H128937   4.405   1.884  15.071 -0.0828  0.7960  1.5292
 2482TIP3    H228938   4.507   1.882  15.184  2.0526  0.1257 -0.3334
 2483TIP3   OH228939   6.062   0.881   4.837 -0.1121 -0.3351  0.1832
 2483TIP3    H128940   5.995   0.882   4.906 -0.6316  1.2562 -0.3033
 2483TIP3    H228941   6.099   0.969   4.839  2.0667 -1.2083  0.4958
 2484TIP3   OH228942   3.102   2.059  12.484 -0.0278  0.1853  0.4698
 2484TIP3    H128943   3.120   2.012  12.402  1.8393  0.8890  0.4189
 2484TIP3    H228944   3.185   2.103  12.505 -0.5654  0.3041  2.5658
 2485TIP3   OH228945   5.165   5.248  11.841  0.1260 -0.0389  0.1466
 2485TIP3    H128946   5.126   5.277  11.759 -2.1344 -0.3107  1.0509
 2485TIP3    H228947   5.117   5.168  11.864  0.5137  0.1690  1.8422
 2486TIP3   OH228948   4.356   6.675   4.417 -0.3096  0.2878 -0.3984
 2486TIP3    H128949   4.322   6.762   4.396 -0.4272  0.8263  1.7440
 2486TIP3    H228950   4.347   6.668   4.512 -0.0578 -1.9838 -0.4783
 2487TIP3   OH228951   4.348   2.305  16.715 -0.8376 -0.4273 -0.0205
 2487TIP3    H128952   4.330   2.291  16.808 -0.6037  1.2184  0.3045
 2487TIP3    H228953   4.377   2.396  16.709 -0.5786 -0.5757 -1.6737
 2488TIP3   OH228954   5.116   3.124   2.846 -0.0140 -0.0871  0.2907
 2488TIP3    H128955   5.195   3.135   2.792  0.2807  1.4710  0.9919
 2488TIP3    H228956   5.109   3.029   2.858 -0.0780 -0.5124 -2.4287
 2489TIP3   OH228957   5.280   3.399  14.937 -0.1206 -0.0669  0.1468
 2489TIP3    H128958   5.186   3.389  14.926 -0.7718  3.8622  0.5918
 2489TIP3    H228959   5.290   3.462  15.009  2.6454  1.8110 -1.6618
 2490TIP3   OH228960   4.707   4.908  13.941 -0.6388  0.3081  0.1779
 2490TIP3    H128961   4.622   4.892  13.900  0.3371  0.3915 -2.0300
 2490TIP3    H228962   4.743   4.982  13.891  0.9666 -0.1090  0.6734
 2491TIP3   OH228963   6.484   6.323  12.696 -0.5052 -0.0092  0.1241
 2491TIP3    H128964   6.470   6.355  12.608 -0.7213 -0.6307 -0.0730
 2491TIP3    H228965   6.549   6.253  12.686  1.1981  1.3916  0.7465
 2492TIP3   OH228966   3.279   1.776   2.531  0.1246  0.1865  0.5232
 2492TIP3    H128967   3.369   1.763   2.562  1.9340  0.9413 -3.6974
 2492TIP3    H228968   3.237   1.691   2.544  1.3401 -0.1615  2.7050
 2493TIP3   OH228969   6.291   0.090   1.120 -0.0922 -0.3443 -0.4366
 2493TIP3    H128970   6.371   0.117   1.164 -0.2178 -0.6467 -0.0119
 2493TIP3    H228971   6.231   0.163   1.131  0.6749  0.6268 -2.2690
 2494TIP3   OH228972   1.284   2.049  14.439 -0.3329  0.1870  0.3280
 2494TIP3    H128973   1.213   2.051  14.502 -1.1965  3.6336 -0.5352
 2494TIP3    H228974   1.245   2.082  14.358  1.7337  0.0164 -0.8138
 2495TIP3   OH228975   1.694   1.634  13.318  0.3456 -0.2337 -0.7187
 2495TIP3    H128976   1.658   1.614  13.404  2.2348 -2.0119 -0.2870
 2495TIP3    H228977   1.617   1.639  13.261 -0.9864  1.4846  1.0765
 2496TIP3   OH228978   0.879   2.426  15.542  0.5279  1.2124 -0.5385
 2496TIP3    H128979   0.943   2.456  15.607 -0.3190  0.6208  0.6122
 2496TIP3    H228980   0.834   2.506  15.514 -0.1967  1.3155  0.8358
 2497TIP3   OH228981   2.840   3.864  11.368  0.4087  0.2518 -0.2673
 2497TIP3    H128982   2.927   3.895  11.342  0.1459  0.8688 -0.4073
 2497TIP3    H228983   2.808   3.930  11.429 -0.4782  0.6773 -1.1784
 2498TIP3   OH228984   4.117   2.833  14.068 -0.3374  0.1672 -0.5186
 2498TIP3    H128985   4.099   2.925  14.045 -2.9156 -0.0833  0.1501
 2498TIP3    H228986   4.039   2.786  14.037 -0.3277 -1.3531  1.6304
 2499TIP3   OH228987   3.830   6.006   0.495  0.3714  0.5971 -0.9751
 2499TIP3    H128988   3.837   5.938   0.563 -1.5658 -0.6592 -1.9048
 2499TIP3    H228989   3.900   5.986   0.433  0.8957  0.5185 -0.3619
 2500TIP3   OH228990   5.830   3.713   5.250 -0.2283 -0.4310  0.5315
 2500TIP3    H128991   5.915   3.711   5.294  0.1137  1.3541  0.0555
 2500TIP3    H228992   5.849   3.683   5.161  0.3663  1.8448 -0.1741
 2501TIP3   OH228993   1.651   5.384   0.067  0.1409  0.1293  0.2141
 2501TIP3    H128994   1.727   5.363   0.121 -0.2541  0.8129  1.0504
 2501TIP3    H228995   1.592   5.431   0.125  0.2846  2.1108 -1.1172
 2502TIP3   OH228996   6.240   6.012  13.804 -0.6645 -0.6026  0.0056
 2502TIP3    H128997   6.187   6.092  13.798  1.2301  0.6512 -0.6942
 2502TIP3    H228998   6.329   6.043  13.817 -0.1128 -2.6722  1.8295
 2503TIP3   OH228999   3.454   5.249   5.719 -0.5217 -0.5925  0.1291
 2503TIP3    H129000   3.417   5.260   5.631 -0.5671 -0.4588  0.1649
 2503TIP3    H229001   3.521   5.182   5.708  0.2705  0.2375 -0.2360
 2504TIP3   OH229002   5.453   1.393   2.038 -0.2006  0.1921 -0.8852
 2504TIP3    H129003   5.397   1.371   2.113  1.5249  1.1971  0.7826
 2504TIP3    H229004   5.394   1.435   1.975 -1.5992 -0.1877  0.1224
 2505TIP3   OH229005   2.140   4.001   6.002  0.3512 -0.0964  0.1624
 2505TIP3    H129006   2.048   4.013   5.978  0.4723 -0.0581 -0.3055
 2505TIP3    H229007   2.170   3.930   5.945  1.4943  2.0897 -2.1924
 2506TIP3   OH229008   6.078   2.665  13.250  0.6377 -0.3614 -0.4792
 2506TIP3    H129009   6.137   2.735  13.224  0.7784 -0.4317 -0.3497
 2506TIP3    H229010   6.039   2.634  13.168 -0.2613  0.6074 -0.4384
 2507TIP3   OH229011   5.747   1.666   5.844 -0.3285  0.8206 -0.1970
 2507TIP3    H129012   5.670   1.651   5.899 -0.7383  1.7539 -0.4922
 2507TIP3    H229013   5.818   1.620   5.889 -1.5871 -2.5902 -1.4404
 2508TIP3   OH229014   3.371   0.587  15.942 -0.3873  0.0882  0.3279
 2508TIP3    H129015   3.422   0.538  16.007 -0.5662  1.4384  1.5358
 2508TIP3    H229016   3.436   0.621  15.882 -0.0687  0.0213  0.6278
 2509TIP3   OH229017   2.664   1.994  15.454 -0.1606  0.1007  0.1603
 2509TIP3    H129018   2.596   2.042  15.405 -2.3533 -2.2880  0.6549
 2509TIP3    H229019   2.742   2.002  15.400 -1.0089  2.2790 -0.8717
 2510TIP3   OH229020   3.025   6.581   5.971 -0.4046  0.0782 -0.0972
 2510TIP3    H129021   3.106   6.632   5.982 -1.2730  1.3778  0.6929
 2510TIP3    H229022   3.054   6.491   5.961  1.2579  0.7686 -2.3364
 2511TIP3   OH229023   1.577   1.858  13.626 -0.2107 -0.3572 -0.5155
 2511TIP3    H129024   1.563   1.947  13.659 -1.6651 -0.8686  0.3647
 2511TIP3    H229025   1.663   1.861  13.585 -0.1590  1.4161 -0.3743
 2512TIP3   OH229026   5.274   0.116  11.134 -0.2522  0.1499  0.5112
 2512TIP3    H129027   5.348   0.143  11.189 -0.3275  1.6942 -0.0834
 2512TIP3    H229028   5.311   0.055  11.071  0.3688  0.3644  0.6638
 2513TIP3   OH229029   1.962   6.702   2.758 -0.3895 -0.1170  0.3876
 2513TIP3    H129030   2.002   6.638   2.700  0.1154  1.6279 -1.2879
 2513TIP3    H229031   2.009   6.784   2.741 -1.1259  0.7688  2.2974
 2514TIP3   OH229032   0.925   0.430  14.401  0.0916  0.2443 -0.4397
 2514TIP3    H129033   0.853   0.481  14.437 -0.1384 -0.9966  0.9856
 2514TIP3    H229034   0.993   0.494  14.381 -0.5427  1.2033  0.3915
 2515TIP3   OH229035   6.141   0.239   1.425  0.0044 -0.2300  0.5646
 2515TIP3    H129036   6.199   0.240   1.348 -0.0199 -1.3026  0.5141
 2515TIP3    H229037   6.056   0.213   1.390 -0.6579  1.7854  0.5631
 2516TIP3   OH229038   1.449   2.964  11.467  0.4168  0.4364  0.3141
 2516TIP3    H129039   1.376   2.987  11.524  0.3690 -1.5246  1.0899
 2516TIP3    H229040   1.410   2.959  11.379 -0.6771 -1.6727  0.8625
 2517TIP3   OH229041   5.393   2.065   0.508 -0.4433  0.2901 -0.0518
 2517TIP3    H129042   5.400   2.049   0.602  0.6631 -1.5479 -0.4108
 2517TIP3    H229043   5.383   1.978   0.469  0.8133  0.8636 -1.7690
 2518TIP3   OH229044   5.963   3.459   5.251  0.3373 -0.1400  0.3557
 2518TIP3    H129045   5.945   3.471   5.158 -1.2809  1.2303  0.7957
 2518TIP3    H229046   5.926   3.373   5.271  1.9093 -1.0760 -0.4902
 2519TIP3   OH229047   0.470   1.272   2.426  0.1099 -0.2283  0.0852
 2519TIP3    H129048   0.524   1.264   2.347 -1.4413  1.8135 -1.2796
 2519TIP3    H229049   0.514   1.216   2.490  2.9288  0.0616 -1.4060
 2520TIP3   OH229050   6.894   4.434  10.761  0.1379 -0.3632 -0.1127
 2520TIP3    H129051   6.910   4.352  10.713 -0.7427 -0.2111 -0.6772
 2520TIP3    H229052   6.973   4.487  10.744 -0.3211 -0.1442 -1.7597
 2521TIP3   OH229053   6.610   4.166   4.526  0.6714  0.3093  0.0451
 2521TIP3    H129054   6.533   4.155   4.582  0.3951 -0.2455 -0.4266
 2521TIP3    H229055   6.633   4.258   4.535  1.4500 -0.0237  2.1157
 2522TIP3   OH229056   0.868   3.057  12.747  0.2222  0.5449 -0.2152
 2522TIP3    H129057   0.922   3.120  12.795  1.2988  0.9283 -1.8847
 2522TIP3    H229058   0.892   3.068  12.656 -0.2466 -1.6687 -0.6607
 2523TIP3   OH229059   4.637   1.780   1.428  0.2490 -0.0259  0.2898
 2523TIP3    H129060   4.695   1.712   1.394  0.5584 -0.3673  1.4269
 2523TIP3    H229061   4.554   1.736   1.443 -0.2682  0.4204 -1.1665
 2524TIP3   OH229062   4.707   4.121  11.836 -0.2321 -0.0186  0.4443
 2524TIP3    H129063   4.614   4.106  11.853 -0.3183  1.1879  1.1476
 2524TIP3    H229064   4.751   4.094  11.917 -0.0962  0.5540  0.5651
 2525TIP3   OH229065   4.964   5.655  11.144  0.1913  0.4753  0.3833
 2525TIP3    H129066   4.945   5.641  11.237  0.3582  0.6531  0.4455
 2525TIP3    H229067   5.047   5.610  11.129  0.3872  0.8191  0.4251
 2526TIP3   OH229068   6.682   6.303   3.391 -0.0661  0.3991  0.1667
 2526TIP3    H129069   6.745   6.308   3.319 -1.1395 -0.1825 -0.8487
 2526TIP3    H229070   6.694   6.215   3.427  0.7902  0.8477  1.0357
 2527TIP3   OH229071   2.415   0.122  16.517 -0.1998  0.6060 -0.0561
 2527TIP3    H129072   2.417   0.177  16.439  0.2528  1.4423  0.5332
 2527TIP3    H229073   2.398   0.034  16.484 -0.8476  1.0824 -1.0224
 2528TIP3   OH229074   3.667   0.029  10.254 -0.1782 -0.2172  0.6922
 2528TIP3    H129075   3.666   0.108  10.307 -1.4793  0.3369 -0.1150
 2528TIP3    H229076   3.575   0.009  10.239  0.1531 -0.9367 -0.5178
 2529TIP3   OH229077   3.245   3.094   1.896  1.1164  0.0130  0.2088
 2529TIP3    H129078   3.304   3.108   1.970  1.3765 -1.9065  0.4196
 2529TIP3    H229079   3.159   3.122   1.927  1.4105  0.1719  0.8905
 2530TIP3   OH229080   5.338   0.866   1.765  0.3077  0.1705 -0.1102
 2530TIP3    H129081   5.273   0.834   1.702  0.9021 -1.0734 -0.1117
 2530TIP3    H229082   5.404   0.797   1.768  1.0263  0.8840  0.7910
 2531TIP3   OH229083   0.336   5.490  11.589 -0.3602 -0.0290  0.1293
 2531TIP3    H129084   0.359   5.426  11.656 -1.4892 -0.1664  0.4167
 2531TIP3    H229085   0.390   5.467  11.514 -1.0715 -1.6473  0.0624
 2532TIP3   OH229086   0.652   6.675  13.652  0.0561  0.2629 -0.0185
 2532TIP3    H129087   0.632   6.749  13.595 -0.6399  0.6496  0.7029
 2532TIP3    H229088   0.601   6.692  13.732 -1.3727 -1.8005 -0.4220
 2533TIP3   OH229089   2.168   2.632   0.808 -0.1144  0.7042 -1.0654
 2533TIP3    H129090   2.118   2.572   0.863  1.7540  0.0314 -0.0251
 2533TIP3    H229091   2.118   2.713   0.810  0.3496  1.0521  2.5429
 2534TIP3   OH229092   2.634   1.598   2.094 -0.1404 -0.7968  0.4713
 2534TIP3    H129093   2.631   1.534   2.022  0.6244 -1.0906  0.6857
 2534TIP3    H229094   2.727   1.612   2.109 -0.2641  1.2237 -0.3090
 2535TIP3   OH229095   1.049   6.652  14.647 -0.4354  0.4542 -0.1790
 2535TIP3    H129096   1.119   6.706  14.608  0.8595 -1.2513 -0.3541
 2535TIP3    H229097   0.983   6.715  14.675  1.1897  2.1622  0.0262
 2536TIP3   OH229098   0.499   1.933  10.833 -0.4993  0.0091  0.9930
 2536TIP3    H129099   0.498   2.025  10.805  0.5996 -0.6053 -1.2131
 2536TIP3    H229100   0.567   1.930  10.900  1.8626  0.2635 -1.2350
 2537TIP3   OH229101   0.531   2.129   3.870  0.1180  0.3454 -0.4924
 2537TIP3    H129102   0.518   2.220   3.844 -0.0120  0.4557 -0.0533
 2537TIP3    H229103   0.443   2.097   3.890  0.3025  0.5576  0.7474
 2538TIP3   OH229104   2.723   0.231  16.365  0.4034  0.3089  0.2417
 2538TIP3    H129105   2.647   0.288  16.354 -0.4624 -0.5735  1.3277
 2538TIP3    H229106   2.729   0.184  16.282  1.7039  2.5748 -1.0266
 2539TIP3   OH229107   2.363   0.250  11.655 -0.4315 -0.6294 -0.0026
 2539TIP3    H129108   2.331   0.316  11.593 -1.5898 -2.2497 -1.2194
 2539TIP3    H229109   2.306   0.261  11.731 -0.6220 -0.2358 -0.1923
 2540TIP3   OH229110   6.822   6.100  16.269  0.2265 -0.6020  0.5695
 2540TIP3    H129111   6.744   6.115  16.321 -0.4897 -0.6622 -0.4510
 2540TIP3    H229112   6.893   6.091  16.333 -0.8039 -1.9048  1.5871
 2541TIP3   OH229113   6.414   5.475   5.274 -0.1590 -0.0845  0.4975
 2541TIP3    H129114   6.320   5.459   5.288 -0.1205  0.3703  1.3057
 2541TIP3    H229115   6.457   5.440   5.352  0.3666 -0.4710  0.0405
 2542TIP3   OH229116   0.788   4.017   1.661 -0.4623 -0.3746  0.3553
 2542TIP3    H129117   0.695   4.002   1.679 -0.5717 -0.3511 -0.1678
 2542TIP3    H229118   0.789   4.101   1.615 -0.2656 -0.7888 -0.3989
 2543TIP3   OH229119   5.376   1.110   4.301 -0.1429 -0.1924  0.1710
 2543TIP3    H129120   5.442   1.166   4.261 -1.2270  0.1028 -1.2766
 2543TIP3    H229121   5.386   1.025   4.258 -0.0835 -0.4219  0.6313
 2544TIP3   OH229122   2.273   3.609   0.557 -0.6496  0.3490 -0.6848
 2544TIP3    H129123   2.220   3.562   0.620 -0.4147  1.7663  0.6288
 2544TIP3    H229124   2.363   3.582   0.576 -0.7509 -1.3840 -2.3364
 2545TIP3   OH229125   5.103   6.082   6.183 -0.3236 -0.1423  0.1962
 2545TIP3    H129126   5.048   6.151   6.220 -1.0745  0.0090 -1.1105
 2545TIP3    H229127   5.143   6.123   6.106 -0.0315 -0.8703 -0.0453
 2546TIP3   OH229128   5.503   5.424  16.153 -0.2221 -0.3763 -1.0203
 2546TIP3    H129129   5.588   5.433  16.195 -1.0001  0.6386  0.4367
 2546TIP3    H229130   5.523   5.415  16.060  1.4451  1.1050 -0.8668
 2547TIP3   OH229131   5.921   0.049   3.030  0.2277  0.1585  0.4084
 2547TIP3    H129132   5.948   0.104   3.104 -0.9137  0.0106  0.9631
 2547TIP3    H229133   5.993  -0.013   3.019  0.2296 -0.1010  1.7028
 2548TIP3   OH229134   0.793   3.895  11.509 -0.1902 -0.0908  0.1326
 2548TIP3    H129135   0.707   3.853  11.520  0.2859 -0.8454  1.1856
 2548TIP3    H229136   0.852   3.822  11.493 -0.1139  0.5930 -3.5946
 2549TIP3   OH229137   4.315   0.758   4.674  0.0638 -0.6882  0.1871
 2549TIP3    H129138   4.408   0.777   4.660 -0.6204  2.6314 -0.9991
 2549TIP3    H229139   4.278   0.756   4.586 -0.8569 -3.2709  0.5639
 2550TIP3   OH229140   4.496   5.559   5.147  0.1637  0.1958  0.4484
 2550TIP3    H129141   4.405   5.589   5.153  0.4918  1.3767 -0.1617
 2550TIP3    H229142   4.492   5.485   5.087 -0.6573 -0.9950  1.9147
 2551TIP3   OH229143   0.097   2.257   2.575 -0.1631  0.3894  0.5709
 2551TIP3    H129144   0.095   2.165   2.600 -0.1162  0.0345 -0.6442
 2551TIP3    H229145   0.137   2.257   2.488 -1.3831  1.4152 -0.0167
 2552TIP3   OH229146   4.667   2.312   5.431 -0.4991 -0.3653 -0.0298
 2552TIP3    H129147   4.644   2.244   5.367 -0.6204 -0.9002  0.5740
 2552TIP3    H229148   4.723   2.372   5.382 -0.2422 -0.9958 -0.5313
 2553TIP3   OH229149   6.504   3.145  15.320  0.5420 -0.5022 -0.0655
 2553TIP3    H129150   6.511   3.201  15.398 -0.8584 -3.3754  2.3088
 2553TIP3    H229151   6.464   3.202  15.254  1.4286  1.9648  1.3688
 2554TIP3   OH229152   1.283   5.707  11.986 -0.0337 -0.2581 -0.1593
 2554TIP3    H129153   1.342   5.776  12.017 -0.4667  0.4926 -0.9583
 2554TIP3    H229154   1.290   5.638  12.052  0.5597  0.4691  0.5601
 2555TIP3   OH229155   1.225   6.842  14.435 -0.0670 -0.3515 -0.3449
 2555TIP3    H129156   1.271   6.814  14.356 -0.5163  1.7628 -1.4274
 2555TIP3    H229157   1.139   6.872  14.404 -0.1728  0.7446  0.8944
 2556TIP3   OH229158   2.728   4.774  10.886 -1.0581 -0.5891  0.1912
 2556TIP3    H129159   2.772   4.748  10.805  0.8929 -0.8691  1.2635
 2556TIP3    H229160   2.764   4.860  10.906 -0.9224 -0.8547  1.1402
 2557TIP3   OH229161   5.219   5.615  13.654 -0.1785  0.4740 -0.5634
 2557TIP3    H129162   5.311   5.615  13.627 -0.0564  0.5655 -0.1505
 2557TIP3    H229163   5.170   5.621  13.571  0.2030  1.4280 -0.7392
 2558TIP3   OH229164   6.674   0.096   2.790  0.4314  0.2143 -0.1982
 2558TIP3    H129165   6.739   0.078   2.857  0.5567  0.6965 -0.1864
 2558TIP3    H229166   6.693   0.185   2.761 -1.2576  1.0132  0.9743
 2559TIP3   OH229167   4.136   5.070  13.430 -0.1606  0.3828  0.6526
 2559TIP3    H129168   4.081   4.994  13.409  0.2804  0.3978 -0.6484
 2559TIP3    H229169   4.084   5.146  13.405 -0.0916  0.4548  0.7260
 2560TIP3   OH229170   4.980   2.385  16.232  0.3968 -0.2188  0.5168
 2560TIP3    H129171   5.069   2.401  16.201  0.5784 -2.3975 -0.1919
 2560TIP3    H229172   4.988   2.310  16.291 -1.0343 -0.7240  0.1012
 2561TIP3   OH229173   0.751   2.834   5.175 -0.0493  0.0709 -0.1060
 2561TIP3    H129174   0.679   2.826   5.238 -0.8344  0.6654 -0.9086
 2561TIP3    H229175   0.716   2.888   5.105  1.5181  1.2520 -0.0285
 2562TIP3   OH229176   4.823   5.621   5.250 -1.0394  0.1889 -0.2301
 2562TIP3    H129177   4.756   5.570   5.296 -0.4369  0.9980  1.6390
 2562TIP3    H229178   4.805   5.712   5.274  0.0432  0.5152 -0.5983
 2563TIP3   OH229179   3.538   1.972  16.049 -0.7863  0.2021 -0.0442
 2563TIP3    H129180   3.592   2.047  16.021  0.1378  0.1027  1.4019
 2563TIP3    H229181   3.601   1.910  16.086 -1.5509 -1.2863 -1.1362
 2564TIP3   OH229182   3.207   1.162  11.963 -0.2461  0.4923 -0.3873
 2564TIP3    H129183   3.278   1.136  11.904  1.2718  0.0717  1.5094
 2564TIP3    H229184   3.151   1.084  11.969 -0.7657  0.7335 -1.6694
 2565TIP3   OH229185   2.235   4.384  11.126  0.0306  0.2150  0.7023
 2565TIP3    H129186   2.224   4.289  11.132  1.0384  0.0708  0.5279
 2565TIP3    H229187   2.189   4.419  11.202  0.2250 -0.4647  1.1425
 2566TIP3   OH229188   1.397   1.922   0.164  0.4110  0.5468  0.2754
 2566TIP3    H129189   1.436   1.850   0.215  0.2152 -0.1697 -0.5702
 2566TIP3    H229190   1.464   1.990   0.164  0.2229  0.7838  1.9238
 2567TIP3   OH229191   2.684   5.350  14.736  0.3779 -0.1732 -0.2415
 2567TIP3    H129192   2.766   5.377  14.775 -1.1563  1.0192  2.4186
 2567TIP3    H229193   2.618   5.370  14.802 -2.3529  1.0212 -3.0525
 2568TIP3   OH229194   5.990   6.515   5.673  0.2778  1.1281 -0.0981
 2568TIP3    H129195   5.952   6.559   5.749 -2.3705 -1.2386  0.1364
 2568TIP3    H229196   6.077   6.487   5.703 -0.9867 -0.4848  2.5093
 2569TIP3   OH229197   5.911   3.031  11.144 -0.2070  0.1356 -0.0324
 2569TIP3    H129198   5.873   3.077  11.218  0.4604  0.6022  0.0366
 2569TIP3    H229199   5.999   3.008  11.173  0.8915  2.2608 -1.3948
 2570TIP3   OH229200   3.669   3.415  11.297  0.2491  0.1137  0.2721
 2570TIP3    H129201   3.642   3.507  11.292 -0.4452 -0.1264 -0.7503
 2570TIP3    H229202   3.651   3.390  11.388 -1.4161  0.4680  0.0842
 2571TIP3   OH229203   3.391   2.629  12.360  0.4914 -0.6359 -0.1861
 2571TIP3    H129204   3.327   2.564  12.331 -0.9733  0.3255  0.7616
 2571TIP3    H229205   3.468   2.614  12.305 -0.7548 -1.4560 -1.7653
 2572TIP3   OH229206   2.179   5.078   1.823 -0.1911 -0.5493 -0.9080
 2572TIP3    H129207   2.166   5.173   1.830 -0.4857 -0.6422 -0.1438
 2572TIP3    H229208   2.093   5.041   1.843  0.6123 -1.0898  2.0241
 2573TIP3   OH229209   6.010   4.356  12.172 -0.0486  0.3756 -0.2636
 2573TIP3    H129210   5.987   4.376  12.263 -0.1872  1.1801 -0.4722
 2573TIP3    H229211   5.927   4.335  12.130  0.1238 -0.9688  0.0184
 2574TIP3   OH229212   5.735   4.352   2.287  0.2342 -0.3306  0.0724
 2574TIP3    H129213   5.745   4.385   2.377  1.3685  1.7871 -0.7511
 2574TIP3    H229214   5.643   4.366   2.266  0.5452  2.0172 -0.0402
 2575TIP3   OH229215   2.661   6.754  15.081 -0.4655  0.1291 -0.2071
 2575TIP3    H129216   2.634   6.818  15.147 -0.1026  0.7830 -0.6762
 2575TIP3    H229217   2.755   6.744  15.094 -0.5750 -0.5413  0.0623
 2576TIP3   OH229218   6.817   1.139   3.266 -0.7640  0.0664 -0.0128
 2576TIP3    H129219   6.886   1.190   3.223 -0.6902 -1.0368 -1.2908
 2576TIP3    H229220   6.864   1.072   3.316 -0.8579 -1.1830 -1.5148
 2577TIP3   OH229221   0.644   0.202   2.634 -0.1534  0.6724 -0.3635
 2577TIP3    H129222   0.602   0.154   2.706  0.5402 -0.0913 -0.4517
 2577TIP3    H229223   0.663   0.288   2.671 -0.7267  0.6358  0.0390
 2578TIP3   OH229224   5.619   1.852   3.560 -0.2985  0.0849 -0.0950
 2578TIP3    H129225   5.672   1.916   3.512  3.3034 -2.0572  0.6493
 2578TIP3    H229226   5.682   1.804   3.614 -3.2281 -2.0512  1.7458
 2579TIP3   OH229227   1.359   1.658   0.304  0.2739  0.1000 -0.6362
 2579TIP3    H129228   1.276   1.610   0.311  0.0222  0.3263 -1.8196
 2579TIP3    H229229   1.425   1.595   0.334 -0.1095 -0.8219 -1.6420
 2580TIP3   OH229230   0.444   5.803  11.540 -0.2013  0.0237  0.6234
 2580TIP3    H129231   0.461   5.732  11.601  2.9472  0.2233  0.1233
 2580TIP3    H229232   0.499   5.875  11.571 -1.3777  1.4042 -0.3395
 2581TIP3   OH229233   1.789   1.031   0.079  0.5013  0.1545 -0.9719
 2581TIP3    H129234   1.758   1.025   0.169 -0.8238  0.0535 -1.4129
 2581TIP3    H229235   1.879   0.999   0.083  1.2889  2.3517  0.7073
 2582TIP3   OH229236   2.199   6.628  14.814  0.2398  0.0086 -0.5386
 2582TIP3    H129237   2.294   6.626  14.830  0.8803 -2.6193 -3.5002
 2582TIP3    H229238   2.168   6.543  14.843 -1.1600  0.6443 -0.0923
 2583TIP3   OH229239   6.486   3.298   0.362  0.1604 -0.2921 -0.1337
 2583TIP3    H129240   6.403   3.251   0.358  0.5537 -0.9930 -0.3642
 2583TIP3    H229241   6.466   3.385   0.329 -0.0808 -1.0611 -2.2248
 2584TIP3   OH229242   1.820   0.074  12.876 -0.1611 -0.3338 -0.5961
 2584TIP3    H129243   1.856  -0.015  12.878  1.8006  0.4211  0.1121
 2584TIP3    H229244   1.835   0.104  12.786 -0.3632 -0.5352 -0.6984
 2585TIP3   OH229245   2.855   5.636  13.840  0.3021 -0.7227  0.0998
 2585TIP3    H129246   2.908   5.561  13.868  0.8368 -1.0287 -1.6095
 2585TIP3    H229247   2.765   5.606  13.849  0.4426 -0.7188  1.6722
 2586TIP3   OH229248   4.894   4.535  12.367 -0.0483 -0.1449  0.2561
 2586TIP3    H129249   4.962   4.563  12.305 -0.0793 -1.8606 -0.6310
 2586TIP3    H229250   4.943   4.500  12.441  0.0403 -0.3099  0.1235
 2587TIP3   OH229251   6.277   2.558  15.694 -0.1936 -0.2569  0.2591
 2587TIP3    H129252   6.317   2.481  15.734 -2.3627 -1.3654  0.4205
 2587TIP3    H229253   6.255   2.615  15.768  0.2934 -0.0127  0.2251
 2588TIP3   OH229254   2.899   6.077   2.530 -0.4405  0.3847 -0.0474
 2588TIP3    H129255   2.815   6.045   2.496 -0.0094 -0.4184 -0.3805
 2588TIP3    H229256   2.965   6.038   2.473  0.1949  0.5315  0.5742
 2589TIP3   OH229257   5.568   6.487   2.786  0.4705 -0.0683  0.1371
 2589TIP3    H129258   5.618   6.405   2.780 -0.8953 -0.8684 -1.2016
 2589TIP3    H229259   5.566   6.508   2.879  1.0109 -1.4672  0.4900
 2590TIP3   OH229260   2.385   5.109   2.959  0.6485  0.0716 -0.2441
 2590TIP3    H129261   2.382   5.123   3.054  1.7582 -0.9701 -0.0289
 2590TIP3    H229262   2.294   5.109   2.932  0.3569  2.4070  0.4796
 2591TIP3   OH229263   3.585   6.082   3.330 -0.1336 -0.5285  0.0185
 2591TIP3    H129264   3.586   6.174   3.305  4.2125 -0.6299 -0.9251
 2591TIP3    H229265   3.621   6.080   3.418 -0.3759 -1.3314  0.1081
 2592TIP3   OH229266   0.394   6.875  14.954  0.5138 -0.1493  0.1363
 2592TIP3    H129267   0.299   6.865  14.957  0.6225 -1.1133  0.5376
 2592TIP3    H229268   0.415   6.873  14.860  0.2234 -0.8740  0.0771
 2593TIP3   OH229269   4.842   0.140  14.529 -0.1510  0.3221 -0.9079
 2593TIP3    H129270   4.749   0.118  14.518 -0.3845  1.0044 -0.4028
 2593TIP3    H229271   4.880   0.129  14.443 -0.5418 -0.7196 -0.9569
 2594TIP3   OH229272   1.082   6.594   0.595 -0.2144 -0.4658 -0.6025
 2594TIP3    H129273   0.987   6.588   0.584 -0.3134 -0.0779  0.0164
 2594TIP3    H229274   1.095   6.666   0.657  0.4568 -0.8543 -0.2793
 2595TIP3   OH229275   2.257   2.765  10.138 -0.4506 -0.1380  0.0165
 2595TIP3    H129276   2.226   2.850  10.108  1.1467 -0.3188 -2.4419
 2595TIP3    H229277   2.332   2.784  10.194  0.3185  0.1007 -1.0643
 2596TIP3   OH229278   3.748   6.521  13.654 -0.3287  0.1176  0.5076
 2596TIP3    H129279   3.686   6.543  13.724  0.0346 -0.3373  0.9751
 2596TIP3    H229280   3.802   6.599  13.644 -0.3828  0.1844  0.7327
 2597TIP3   OH229281   5.186   0.578  11.652 -0.6036  0.0090  0.1360
 2597TIP3    H129282   5.096   0.607  11.668 -1.9922 -3.1656 -0.9561
 2597TIP3    H229283   5.199   0.589  11.558  0.5576  1.3320  0.4261
 2598TIP3   OH229284   5.973   3.745  15.954 -0.2752  1.0338 -0.3804
 2598TIP3    H129285   5.990   3.651  15.961  0.0792  1.1733  0.8997
 2598TIP3    H229286   6.031   3.784  16.020 -0.9632  2.0818 -0.3823
 2599TIP3   OH229287   4.102   0.405  16.608  0.2902  0.3155 -0.0032
 2599TIP3    H129288   4.103   0.314  16.637  1.2683  0.0533 -0.8483
 2599TIP3    H229289   4.019   0.414  16.561  1.0822 -0.7103 -1.6791
 2600TIP3   OH229290   2.151   3.124   2.314  0.2748 -0.4904 -0.1907
 2600TIP3    H129291   2.109   3.147   2.397  0.6114 -0.2703 -0.0776
 2600TIP3    H229292   2.195   3.204   2.286  0.9281 -0.8104 -0.1100
 2601TIP3   OH229293   2.963   2.337  12.453  0.2807  0.4022 -0.0463
 2601TIP3    H129294   2.968   2.398  12.379  2.6336  0.0497 -0.2506
 2601TIP3    H229295   2.988   2.390  12.529 -0.7104  0.4077  0.2909
 2602TIP3   OH229296   2.409   3.721  14.324 -0.3270 -0.1753 -0.2966
 2602TIP3    H129297   2.374   3.644  14.367 -1.2610  0.0310 -0.6640
 2602TIP3    H229298   2.334   3.779  14.311  0.0466  0.0823 -1.5254
 2603TIP3   OH229299   3.425   2.547   5.495  0.2678  0.2403 -0.0149
 2603TIP3    H129300   3.359   2.507   5.552 -1.3084 -0.8328 -2.4332
 2603TIP3    H229301   3.497   2.569   5.554 -1.6463  0.1744  2.5317
 2604TIP3   OH229302   4.956   2.300   2.323 -0.3914  0.6210  0.2902
 2604TIP3    H129303   4.936   2.219   2.276  0.1701  1.2579 -1.1302
 2604TIP3    H229304   5.049   2.294   2.343 -0.1267  1.2937 -0.6624
 2605TIP3   OH229305   1.713   1.610  12.010  0.7862  0.0704 -0.1955
 2605TIP3    H129306   1.775   1.679  11.987 -0.6324  1.3225 -0.4238
 2605TIP3    H229307   1.761   1.553  12.069  2.4239  0.4912 -1.0633
 2606TIP3   OH229308   4.550   6.374  12.843 -0.2346 -0.3500 -0.0468
 2606TIP3    H129309   4.512   6.395  12.928 -1.0190 -0.4493 -0.3675
 2606TIP3    H229310   4.475   6.362  12.785  0.3024  0.8190 -1.0284
 2607TIP3   OH229311   2.875   6.426  13.823 -0.4342  0.8434 -0.0486
 2607TIP3    H129312   2.928   6.375  13.885  0.9562  2.1886 -0.0733
 2607TIP3    H229313   2.817   6.362  13.783  1.7241 -0.8971 -0.5877
 2608TIP3   OH229314   2.329   2.081  11.672 -0.2977  0.7056 -0.5530
 2608TIP3    H129315   2.250   2.090  11.620 -0.5213  3.4745  0.1186
 2608TIP3    H229316   2.379   2.161  11.655  1.6332 -0.2572  0.2359
 2609TIP3   OH229317   2.958   3.908  13.326 -0.3608  0.3338  0.4039
 2609TIP3    H129318   2.884   3.965  13.301  0.2771  0.7784 -0.5471
 2609TIP3    H229319   2.918   3.838  13.377 -1.5906  0.0983 -0.8090
 2610TIP3   OH229320   1.228   6.621  16.709  0.1915 -0.8833  0.2634
 2610TIP3    H129321   1.155   6.639  16.769 -0.1628  1.5501 -0.7607
 2610TIP3    H229322   1.242   6.704  16.664  1.0811 -2.3500 -2.3428
 2611TIP3   OH229323   2.245   6.889  16.200  0.1716 -0.1776  0.5072
 2611TIP3    H129324   2.339   6.906  16.188 -0.2660  2.7762  0.4517
 2611TIP3    H229325   2.237   6.867  16.293  0.8186  0.9027  0.8468
 2612TIP3   OH229326   6.735   1.430   2.426  0.0054  0.5647 -0.2447
 2612TIP3    H129327   6.751   1.430   2.520 -1.0730  0.8758 -0.0488
 2612TIP3    H229328   6.718   1.522   2.404 -1.1031  0.3227 -0.4797
 2613TIP3   OH229329   2.364   5.857  15.732  0.0669 -0.8251 -0.1668
 2613TIP3    H129330   2.422   5.911  15.784  0.5231  1.4517 -2.7721
 2613TIP3    H229331   2.276   5.885  15.757  0.2927  1.5620 -1.6743
 2614TIP3   OH229332   6.087   6.208  11.577  0.0763  0.0195 -0.4699
 2614TIP3    H129333   6.014   6.181  11.632  0.1022  1.8520  0.5698
 2614TIP3    H229334   6.049   6.215  11.489 -0.9482  0.6484  0.0002
 2615TIP3   OH229335   4.444   4.105  14.412 -0.6824  0.3069 -0.3203
 2615TIP3    H129336   4.447   4.009  14.418 -0.9057  0.3193  0.0784
 2615TIP3    H229337   4.363   4.128  14.457 -1.3644  0.5940 -1.6492
 2616TIP3   OH229338   4.005   6.088   2.108 -0.0144  0.5834  0.0315
 2616TIP3    H129339   3.926   6.133   2.139 -0.3775  0.8036 -1.1854
 2616TIP3    H229340   3.992   5.997   2.133 -1.6083  0.2271 -1.9048
 2617TIP3   OH229341   6.012   5.035  11.482  0.0146 -0.0573 -0.1136
 2617TIP3    H129342   5.983   5.115  11.525 -0.1845 -0.0037 -0.3423
 2617TIP3    H229343   6.103   5.051  11.457 -0.1186  0.2123 -0.4312
 2618TIP3   OH229344   3.289   0.276  10.805 -0.3560  0.6431 -0.4633
 2618TIP3    H129345   3.350   0.321  10.747  0.2033  0.6371  0.1106
 2618TIP3    H229346   3.313   0.305  10.893 -1.7664  1.3522 -0.2808
 2619TIP3   OH229347   3.065   3.127   3.947 -0.4672 -0.3160 -0.2719
 2619TIP3    H129348   3.037   3.036   3.948  0.4884 -0.6636 -1.5490
 2619TIP3    H229349   3.083   3.148   4.039  0.9679 -1.9725 -0.1239
 2620TIP3   OH229350   3.499   5.070  15.633  0.6089 -0.1228  0.0567
 2620TIP3    H129351   3.593   5.054  15.629  0.5977 -0.0546 -0.6372
 2620TIP3    H229352   3.462   5.019  15.561  0.4280  1.8479 -1.3640
 2621TIP3   OH229353   0.556   3.731   2.526 -0.2324 -0.5706 -0.0347
 2621TIP3    H129354   0.514   3.795   2.469  0.6406 -1.0060 -1.1943
 2621TIP3    H229355   0.577   3.780   2.606  0.8996  0.7491 -1.1031
 2622TIP3   OH229356   6.221   0.936   5.142 -0.1068 -0.3258 -0.0233
 2622TIP3    H129357   6.129   0.947   5.164 -0.5176  0.3995 -1.8834
 2622TIP3    H229358   6.269   0.979   5.213 -1.2730  0.9808  0.0064
 2623TIP3   OH229359   3.628   6.703  13.389 -0.1381 -0.2620 -0.3303
 2623TIP3    H129360   3.708   6.713  13.336 -0.5452  2.2553 -0.5774
 2623TIP3    H229361   3.557   6.709  13.325 -0.5875 -0.2777  0.1701
 2624TIP3   OH229362   6.470   1.630  15.278 -0.0015  0.3945 -0.2076
 2624TIP3    H129363   6.392   1.671  15.314 -0.5195 -0.8730  0.1629
 2624TIP3    H229364   6.453   1.621  15.184  0.2924  1.3778 -0.3661
 2625TIP3   OH229365   2.750   4.452  15.283  0.3737  0.5702 -0.1216
 2625TIP3    H129366   2.702   4.513  15.226  0.5877 -0.6305 -1.6475
 2625TIP3    H229367   2.835   4.494  15.297  0.1822  1.0515 -0.3708
 2626TIP3   OH229368   0.547   0.970  11.076  0.2161 -0.0542  0.3397
 2626TIP3    H129369   0.563   1.060  11.047 -1.4782 -0.1924 -1.1664
 2626TIP3    H229370   0.463   0.974  11.122 -0.6856 -1.1217 -1.1645
 2627TIP3   OH229371   4.554   3.209  14.875  0.0675 -0.4410 -0.7039
 2627TIP3    H129372   4.637   3.229  14.831  0.7202 -0.7271  0.3663
 2627TIP3    H229373   4.578   3.197  14.967 -1.1070 -0.8916 -0.4436
 2628TIP3   OH229374   0.816   4.701   4.072  0.1438 -0.2672 -0.0277
 2628TIP3    H129375   0.756   4.715   4.145 -0.6630 -0.2772 -0.6596
 2628TIP3    H229376   0.795   4.771   4.010  1.6324  0.4527  0.2495
 2629TIP3   OH229377   6.858   4.150  10.924 -0.4376  0.0763 -0.2061
 2629TIP3    H129378   6.826   4.076  10.872 -0.1725  0.0668 -0.3561
 2629TIP3    H229379   6.818   4.227  10.883  0.4893  0.1577 -1.0022
 2630TIP3   OH229380   6.224   0.875   1.968  0.1538 -0.1021  0.5103
 2630TIP3    H129381   6.308   0.903   2.002 -0.4512  0.0777  1.9167
 2630TIP3    H229382   6.236   0.874   1.873  1.5233  0.5805  0.6508
 2631TIP3   OH229383   4.113   4.196  11.038 -0.1756 -0.3673  0.0055
 2631TIP3    H129384   4.053   4.131  11.077  0.7398 -0.1552  1.8678
 2631TIP3    H229385   4.196   4.181  11.083  0.4557  1.1016 -0.6361
 2632TIP3   OH229386   5.516   6.459   3.596 -0.4096 -0.3263  0.4615
 2632TIP3    H129387   5.541   6.411   3.675  1.0795 -1.9958 -0.9454
 2632TIP3    H229388   5.571   6.538   3.597  1.2429 -1.4195  0.0368
 2633TIP3   OH229389   1.884   6.187   3.418  0.1387  0.2991 -0.3514
 2633TIP3    H129390   1.877   6.282   3.409  1.0900  0.2852 -1.4067
 2633TIP3    H229391   1.941   6.159   3.346 -0.5089 -1.1333 -0.3530
 2634TIP3   OH229392   4.168   5.865  13.125 -0.2257  0.4719  0.3551
 2634TIP3    H129393   4.200   5.818  13.202  1.6131  1.3556  0.1873
 2634TIP3    H229394   4.117   5.937  13.160 -0.3492  0.2121  0.7108
 2635TIP3   OH229395   3.808   5.922  11.942 -0.2249  0.1751 -0.1440
 2635TIP3    H129396   3.763   5.850  11.898 -0.2506  0.1118 -0.0124
 2635TIP3    H229397   3.805   5.994  11.879  0.0069 -0.0106 -0.3708
 2636TIP3   OH229398   0.259   6.739   4.502  0.0034 -0.3112 -0.1833
 2636TIP3    H129399   0.339   6.686   4.490 -1.1599 -2.4313  0.8537
 2636TIP3    H229400   0.210   6.725   4.420  0.7122  1.1138 -0.8840
 2637TIP3   OH229401   5.108   0.820  13.732 -0.3131  1.1359 -0.3838
 2637TIP3    H129402   5.150   0.793  13.813  1.0044  0.8597 -1.1324
 2637TIP3    H229403   5.129   0.751  13.669 -0.1894  1.9845 -1.3064
 2638TIP3   OH229404   6.849   0.874   5.155  0.0053  0.1985 -0.6162
 2638TIP3    H129405   6.807   0.821   5.223 -1.1716  0.8214 -0.8303
 2638TIP3    H229406   6.797   0.954   5.152  0.2134  0.3030 -2.0529
 2639TIP3   OH229407   5.686   1.576   1.098  0.6301 -0.4053  0.8962
 2639TIP3    H129408   5.716   1.496   1.056  2.1507  0.8979 -0.6523
 2639TIP3    H229409   5.741   1.584   1.176  2.3017  0.3816 -0.3006
 2640TIP3   OH229410   5.388   6.030   0.755  0.4485 -0.2467 -0.4400
 2640TIP3    H129411   5.321   6.093   0.781  0.0801 -0.1634 -1.5570
 2640TIP3    H229412   5.405   5.980   0.835  0.1475  0.7162  0.2428
 2641TIP3   OH229413   4.273   5.742   0.744  0.3272 -0.3794 -0.2773
 2641TIP3    H129414   4.245   5.738   0.653  0.2062  1.4267 -0.3606
 2641TIP3    H229415   4.221   5.812   0.783  2.6464  1.1593  0.3052
 2642TIP3   OH229416   1.830   4.788  12.209  0.3840 -0.5887  0.1240
 2642TIP3    H129417   1.826   4.714  12.270  0.3483 -0.1003  0.7208
 2642TIP3    H229418   1.827   4.748  12.123 -0.3407 -1.2508  0.4464
 2643TIP3   OH229419   4.698   5.309   2.112 -0.1663  1.2182  0.1582
 2643TIP3    H129420   4.670   5.395   2.143 -1.6751  1.2497 -1.1927
 2643TIP3    H229421   4.667   5.248   2.179  2.1662  1.7672  1.8745
 2644TIP3   OH229422   3.449   5.850  11.683  0.0544 -0.3260  0.1332
 2644TIP3    H129423   3.470   5.911  11.612 -0.9643  1.5513  1.3511
 2644TIP3    H229424   3.358   5.826  11.667 -0.3600  0.5624  1.0994
 2645TIP3   OH229425   5.510   5.416  11.380  0.4821 -0.5617 -0.1224
 2645TIP3    H129426   5.416   5.424  11.360  0.5554  1.5573  0.1234
 2645TIP3    H229427   5.515   5.346  11.445 -1.0807  0.0369  0.6926
 2646TIP3   OH229428   3.615   3.697  11.282 -0.0095 -0.7542  0.2786
 2646TIP3    H129429   3.636   3.723  11.372 -0.1988 -2.4476  0.8562
 2646TIP3    H229430   3.690   3.725  11.231 -0.7736  2.1183  0.5399
 2647TIP3   OH229431   1.845   1.300   5.763  0.0573 -0.1518  0.0194
 2647TIP3    H129432   1.771   1.315   5.822 -0.2240  0.6248 -0.5248
 2647TIP3    H229433   1.806   1.267   5.683  0.2831  0.4587 -0.3434
 2648TIP3   OH229434   2.830   0.157   1.807 -0.0826  0.0451 -0.1201
 2648TIP3    H129435   2.798   0.226   1.865  0.6710  0.6599 -0.4273
 2648TIP3    H229436   2.878   0.098   1.865  0.0904  0.2933 -0.0104
 2649TIP3   OH229437   6.231   2.421  11.257 -0.0619  0.8688 -0.0331
 2649TIP3    H129438   6.156   2.480  11.253 -1.5374 -0.5919  2.8286
 2649TIP3    H229439   6.222   2.376  11.341  1.1198 -3.2208 -1.8283
 2650TIP3   OH229440   2.557   3.260   1.425  0.8232 -0.0979 -0.0008
 2650TIP3    H129441   2.585   3.169   1.410 -1.7152 -1.1531  1.0992
 2650TIP3    H229442   2.461   3.256   1.424  0.6407  2.4527  0.8774
 2651TIP3   OH229443   4.846   5.429   4.065  0.1647  0.2290  0.1238
 2651TIP3    H129444   4.886   5.349   4.096  0.5286 -0.4480 -1.9097
 2651TIP3    H229445   4.878   5.497   4.123 -1.2220 -1.2252  2.7592
 2652TIP3   OH229446   2.104   6.151   3.229  0.1197 -0.2894  0.8121
 2652TIP3    H129447   2.143   6.087   3.168 -0.9657 -0.7520  0.5862
 2652TIP3    H229448   2.180   6.192   3.271  0.8645 -2.2345  1.4949
 2653TIP3   OH229449   1.607   0.293   3.352  0.0321 -0.6347  0.3662
 2653TIP3    H129450   1.522   0.298   3.395  0.2879  0.2355  0.7818
 2653TIP3    H229451   1.592   0.328   3.265 -0.0134 -0.4099  0.4653
 2654TIP3   OH229452   2.064   4.319  12.369  0.0339 -0.0217 -0.9269
 2654TIP3    H129453   2.086   4.277  12.286 -1.2367 -0.2626 -1.1650
 2654TIP3    H229454   2.049   4.247  12.430  0.6810  0.1508 -0.5492
 2655TIP3   OH229455   2.511   2.037  14.307 -0.2939  0.0448 -0.2678
 2655TIP3    H129456   2.571   2.071  14.240 -0.7988  0.0041 -0.7477
 2655TIP3    H229457   2.424   2.047  14.269 -0.5438 -0.6050  0.1150
 2656TIP3   OH229458   3.141   2.502  14.106 -0.4917 -0.2130  0.7019
 2656TIP3    H129459   3.063   2.487  14.160  1.1469 -0.1304  3.2670
 2656TIP3    H229460   3.182   2.415  14.099 -0.9340 -0.3218 -0.9179
 2657TIP3   OH229461   4.055   1.630   0.769 -0.2214  0.0343 -0.0532
 2657TIP3    H129462   4.079   1.691   0.698  2.9123  1.2889  1.8842
 2657TIP3    H229463   4.105   1.551   0.751  1.2329  0.6526  1.1163
 2658TIP3   OH229464   6.725   5.143  14.925 -0.3358  0.0338  0.1954
 2658TIP3    H129465   6.757   5.137  15.015  2.4308  0.2014 -0.6858
 2658TIP3    H229466   6.702   5.054  14.901 -4.4774  0.3675  2.0460
 2659TIP3   OH229467   1.797   4.028  13.045 -0.6251  0.0996 -0.1609
 2659TIP3    H129468   1.850   3.970  12.991 -0.3637 -0.0667  0.2675
 2659TIP3    H229469   1.859   4.069  13.106 -0.9268  0.1965  0.0896
 2660TIP3   OH229470   6.076   2.396  15.461  0.7082 -0.3285  0.1050
 2660TIP3    H129471   6.072   2.301  15.450 -0.9370 -0.2948  0.2189
 2660TIP3    H229472   6.167   2.413  15.489  1.2745 -1.7482 -0.7854
 2661TIP3   OH229473   3.652   5.224   2.176  0.2253  0.5014  0.3801
 2661TIP3    H129474   3.627   5.247   2.087 -2.8889 -2.1643  0.3411
 2661TIP3    H229475   3.735   5.177   2.167 -0.7808 -1.0741 -1.4134
 2662TIP3   OH229476   5.282   3.231   2.403 -0.0278 -0.0739  0.0351
 2662TIP3    H129477   5.333   3.190   2.333  0.0286 -0.1472  0.1175
 2662TIP3    H229478   5.192   3.230   2.372  0.0485  0.2380 -0.1973
 2663TIP3   OH229479   0.873   4.299   4.307  0.3877 -0.2149 -0.4470
 2663TIP3    H129480   0.878   4.270   4.398 -0.0178 -1.0689 -0.6883
 2663TIP3    H229481   0.785   4.336   4.299  0.9327  1.1906 -0.1176
 2664TIP3   OH229482   3.627   3.942   4.406  0.6203 -0.2486  0.1277
 2664TIP3    H129483   3.602   3.903   4.490 -0.0019  1.2999  0.7121
 2664TIP3    H229484   3.620   4.037   4.421 -0.4181  0.0567 -1.9550
 2665TIP3   OH229485   1.669   3.488   5.222 -0.1942 -0.1161 -0.0422
 2665TIP3    H129486   1.682   3.519   5.312  0.2529  1.0887 -0.4973
 2665TIP3    H229487   1.675   3.393   5.229  1.3802  0.0123  0.9816
 2666TIP3   OH229488   6.382   4.620  15.896 -0.0400  0.0012  0.0218
 2666TIP3    H129489   6.352   4.639  15.985 -0.3248  2.0911 -0.4640
 2666TIP3    H229490   6.304   4.592  15.849 -0.2552  0.6611 -0.0180
 2667TIP3   OH229491   3.818   2.127  14.215 -0.1866  0.5340  0.4362
 2667TIP3    H129492   3.803   2.137  14.309 -1.3812  1.1133  0.1976
 2667TIP3    H229493   3.865   2.043  14.207 -1.1730 -0.1406  1.4530
 2668TIP3   OH229494   5.594   0.462  14.046  0.1296 -0.8549 -0.2891
 2668TIP3    H129495   5.564   0.371  14.033 -1.7768 -0.2251 -0.5980
 2668TIP3    H229496   5.640   0.483  13.965  0.2626 -1.4197 -0.3683
 2669TIP3   OH229497   3.540   1.358  12.020  0.0225 -0.2849  0.1790
 2669TIP3    H129498   3.542   1.267  11.989  0.0292 -0.1841 -0.1186
 2669TIP3    H229499   3.543   1.411  11.940 -1.3255 -0.0236  0.2794
 2670TIP3   OH229500   5.781   1.275  16.014  0.5648  0.2184 -0.0654
 2670TIP3    H129501   5.772   1.361  15.973 -1.2011 -0.3034 -0.8661
 2670TIP3    H229502   5.778   1.213  15.941 -3.9547 -0.8214  0.6654
 2671TIP3   OH229503   3.106   4.387  14.146 -0.2203  0.2784  0.8046
 2671TIP3    H129504   3.129   4.442  14.221  0.9556  0.5954  0.2389
 2671TIP3    H229505   3.091   4.449  14.074  3.1149 -0.1122 -0.3849
 2672TIP3   OH229506   2.994   2.206   2.696 -0.0360  0.1908  0.1952
 2672TIP3    H129507   3.056   2.236   2.763 -0.1235  0.6295  0.0798
 2672TIP3    H229508   3.027   2.119   2.671 -0.4227 -0.3040  1.3335
 2673TIP3   OH229509   3.799   6.658   2.406  0.1892  0.2880 -0.3679
 2673TIP3    H129510   3.767   6.575   2.372  2.9771 -0.8013 -0.5707
 2673TIP3    H229511   3.765   6.724   2.346 -1.3770 -0.7620 -0.6735
 2674TIP3   OH229512   2.352   1.688   0.509 -0.3986 -0.0859  0.1261
 2674TIP3    H129513   2.351   1.611   0.453  0.9700  0.4792 -0.7386
 2674TIP3    H229514   2.443   1.717   0.509 -0.8693  1.5412  0.4105
 2675TIP3   OH229515   3.213   0.025  14.472 -0.3508 -0.9042  0.0975
 2675TIP3    H129516   3.236  -0.066  14.455 -0.1352 -0.5726 -1.5619
 2675TIP3    H229517   3.136   0.020  14.529 -0.4509 -2.1281 -0.1173
 2676TIP3   OH229518   4.638   0.207  10.327  0.6913 -0.1753  0.2870
 2676TIP3    H129519   4.559   0.162  10.354  1.4859 -1.2480  0.8977
 2676TIP3    H229520   4.693   0.138  10.288  0.9126  0.7296 -1.0796
 2677TIP3   OH229521   1.924   2.678  12.599 -0.2832 -0.4031  0.0354
 2677TIP3    H129522   1.954   2.606  12.655  0.4126 -1.9764 -2.2294
 2677TIP3    H229523   2.002   2.709  12.555 -0.9096  0.3637 -0.5702
 2678TIP3   OH229524   5.897   2.011  13.958  0.0888  0.1079  0.0013
 2678TIP3    H129525   5.914   2.099  13.992 -0.0127  0.6241 -1.2143
 2678TIP3    H229526   5.826   2.023  13.895  2.9887  0.0146 -3.5961
 2679TIP3   OH229527   6.575   5.096  13.812  0.3814  0.3911  0.3155
 2679TIP3    H129528   6.551   5.057  13.728 -0.4217  0.3956  0.5331
 2679TIP3    H229529   6.565   5.025  13.875  3.7498 -0.4505  0.0670
 2680TIP3   OH229530   4.128   5.527   1.109 -0.1433 -0.7674  0.3441
 2680TIP3    H129531   4.122   5.618   1.137 -0.1765 -0.3859 -0.8161
 2680TIP3    H229532   4.220   5.516   1.084  0.5396 -1.8913  3.0609
 2681TIP3   OH229533   4.584   2.882  15.873 -0.3368  0.3036 -0.4224
 2681TIP3    H129534   4.566   2.976  15.872 -0.9618  0.1908 -0.1230
 2681TIP3    H229535   4.571   2.854  15.782  0.8657  0.6781 -0.7383
 2682TIP3   OH229536   3.485   5.878  13.821  0.2207  0.0868 -0.4873
 2682TIP3    H129537   3.448   5.947  13.766 -0.5693  0.1076  0.0530
 2682TIP3    H229538   3.409   5.839  13.864  0.8309  0.1653  0.6918
 2683TIP3   OH229539   1.091   0.322  12.518  0.3651 -0.2760  0.2182
 2683TIP3    H129540   1.058   0.402  12.559  2.5734  1.3889 -1.0370
 2683TIP3    H229541   1.162   0.292  12.575  1.1930  0.1227 -0.5632
 2684TIP3   OH229542   3.729   1.400   4.962  0.8070 -0.1464 -0.7626
 2684TIP3    H129543   3.736   1.494   4.979  0.2550 -0.2712  0.1850
 2684TIP3    H229544   3.816   1.366   4.979  0.2935 -0.2783  2.0139
 2685TIP3   OH229545   6.638   5.277   4.349  0.2144 -0.1146 -0.0391
 2685TIP3    H129546   6.705   5.344   4.333 -0.5834  0.7315  0.0556
 2685TIP3    H229547   6.685   5.194   4.343  1.2230  0.4504 -0.2039
 2686TIP3   OH229548   1.170   0.386  11.750 -0.5064  0.0334  0.1739
 2686TIP3    H129549   1.075   0.396  11.741 -0.6285 -0.1791  1.1739
 2686TIP3    H229550   1.189   0.411  11.840  0.6123  1.6169 -0.4547
 2687TIP3   OH229551   3.909   0.019   4.853  0.4738  0.2599  0.0008
 2687TIP3    H129552   3.832   0.074   4.846  0.5828  0.4821  0.5340
 2687TIP3    H229553   3.961   0.041   4.775  0.7271  1.2461  0.4288
 2688TIP3   OH229554   5.812   3.219   2.100 -0.2884  0.1318  0.2566
 2688TIP3    H129555   5.735   3.251   2.052  0.7666  0.9096 -0.9596
 2688TIP3    H229556   5.887   3.248   2.048  0.8107 -2.0735  0.5197
 2689TIP3   OH229557   0.983   2.695   1.704  0.0852 -0.3318  0.2940
 2689TIP3    H129558   0.937   2.706   1.787 -0.5700 -2.7819  0.3482
 2689TIP3    H229559   1.073   2.672   1.729  0.0437 -0.4556  0.3333
 2690TIP3   OH229560   3.818   2.463   5.942  0.2516  0.6704  0.3921
 2690TIP3    H129561   3.825   2.388   6.001  1.9718  1.3663  1.1586
 2690TIP3    H229562   3.771   2.529   5.993 -0.4807  0.4231  0.0443
 2691TIP3   OH229563   0.910   6.147  12.086  0.1362  0.2815  0.1971
 2691TIP3    H129564   0.925   6.193  12.168  0.0117 -0.9889  0.9521
 2691TIP3    H229565   0.928   6.212  12.018  2.1185  0.8193  1.1797
 2692TIP3   OH229566   5.617   2.151   5.423  0.4374 -0.6577 -0.1046
 2692TIP3    H129567   5.548   2.205   5.462 -0.3689 -0.9773 -1.0531
 2692TIP3    H229568   5.589   2.137   5.333  2.2598  0.0758 -0.8487
 2693TIP3   OH229569   1.866   3.171  11.156  0.5936 -0.0035  0.8566
 2693TIP3    H129570   1.808   3.244  11.177  0.0953  0.0761 -0.6524
 2693TIP3    H229571   1.827   3.096  11.201  0.3541  0.4095  1.3443
 2694TIP3   OH229572   3.361   3.172   4.011  0.1155  0.0154  0.0436
 2694TIP3    H129573   3.328   3.085   4.035 -0.7117  1.2541  4.2357
 2694TIP3    H229574   3.308   3.199   3.937 -1.5348 -1.9560  0.4284
 2695TIP3   OH229575   0.912   0.303  13.422  0.7086  0.2597  0.1296
 2695TIP3    H129576   0.982   0.369  13.431  0.4748  0.3555  1.4072
 2695TIP3    H229577   0.831   0.354  13.427  0.5293  0.1191 -1.1195
 2696TIP3   OH229578   4.159   1.627   3.098 -0.1782 -0.2740 -0.4126
 2696TIP3    H129579   4.202   1.570   3.162 -0.5074 -0.9998 -0.8361
 2696TIP3    H229580   4.067   1.623   3.121 -0.3530 -0.8550 -1.1662
 2697TIP3   OH229581   6.584   6.218  16.066  0.2855 -0.5268 -0.1576
 2697TIP3    H129582   6.632   6.292  16.104  2.0231 -0.8640 -1.5442
 2697TIP3    H229583   6.583   6.152  16.136  0.9246 -0.1175  0.2529
 2698TIP3   OH229584   4.787   6.244   3.646 -0.4211 -0.0619 -0.3069
 2698TIP3    H129585   4.800   6.242   3.741  1.3825 -1.1578 -0.5278
 2698TIP3    H229586   4.764   6.154   3.623  0.8008 -0.1842 -1.1024
 2699TIP3   OH229587   6.776   0.305   2.620 -0.5340  0.5376  0.3040
 2699TIP3    H129588   6.754   0.258   2.540  2.8425 -0.1372 -0.3776
 2699TIP3    H229589   6.758   0.397   2.599 -1.2241  0.2041 -0.6210
 2700TIP3   OH229590   1.362   5.157   2.703 -0.3150  0.0102  0.3916
 2700TIP3    H129591   1.386   5.073   2.741  1.5020 -0.1374 -0.9644
 2700TIP3    H229592   1.432   5.177   2.641 -1.5574  1.7249 -0.5625
 2701TIP3   OH229593   4.062   3.484  11.945  0.1146  0.3341  0.0141
 2701TIP3    H129594   3.973   3.500  11.976  0.2674 -0.2173  0.7848
 2701TIP3    H229595   4.081   3.557  11.886 -0.1333  1.5564  1.3819
 2702TIP3   OH229596   1.675   3.807   4.060  0.4715 -0.7104 -0.1011
 2702TIP3    H129597   1.630   3.836   3.980 -1.1602 -3.6184 -0.3687
 2702TIP3    H229598   1.604   3.784   4.119  1.6622 -1.8602  0.9220
 2703TIP3   OH229599   6.691   4.473  11.788 -0.0166  0.5344  0.1055
 2703TIP3    H129600   6.708   4.526  11.710 -0.4886  0.3816 -0.1016
 2703TIP3    H229601   6.598   4.453  11.784  0.0677  0.0696  0.4275
 2704TIP3   OH229602   4.290   3.236   2.800  0.4168  0.0469  0.3188
 2704TIP3    H129603   4.262   3.170   2.736 -1.8439  1.2613 -0.0263
 2704TIP3    H229604   4.380   3.211   2.822  0.5577 -1.5899 -1.7995
 2705TIP3   OH229605   1.793   5.481  16.728 -0.3458  0.5592 -0.7668
 2705TIP3    H129606   1.723   5.510  16.669  0.1127 -1.3275 -2.3458
 2705TIP3    H229607   1.747   5.436  16.800 -0.8310  1.1529 -0.7022
 2706TIP3   OH229608   2.321   5.958  15.391 -0.4156  0.1527  0.9374
 2706TIP3    H129609   2.324   5.893  15.461  1.3253  0.0381  0.7994
 2706TIP3    H229610   2.291   6.038  15.434 -1.6232 -0.4930  1.3113
 2707TIP3   OH229611   3.718   0.786   0.579  0.1716  0.1123  0.2260
 2707TIP3    H129612   3.756   0.787   0.491  1.3987 -0.3621  0.7328
 2707TIP3    H229613   3.770   0.723   0.627 -2.4818 -2.1096  0.4582
 2708TIP3   OH229614   2.243   3.324   4.194  0.0835  0.0988 -0.1790
 2708TIP3    H129615   2.324   3.372   4.210 -0.4558  1.2474 -0.7948
 2708TIP3    H229616   2.179   3.391   4.172 -0.8728 -0.8505 -0.3861
 2709TIP3   OH229617   1.623   2.480   2.441  0.2724  0.0376 -0.0582
 2709TIP3    H129618   1.545   2.505   2.391 -0.6685 -1.8564  0.4020
 2709TIP3    H229619   1.683   2.554   2.428 -0.9131  0.7710 -1.8410
 2710TIP3   OH229620   6.269   1.721  13.786  0.3280  0.0350 -0.3939
 2710TIP3    H129621   6.209   1.657  13.824 -0.7825  0.8551 -0.7071
 2710TIP3    H229622   6.306   1.676  13.710 -2.4189  0.5527 -2.1893
 2711TIP3   OH229623   6.812   4.080   4.154 -0.2809 -0.5669 -0.1889
 2711TIP3    H129624   6.777   4.164   4.183 -0.2320 -0.2582 -0.9968
 2711TIP3    H229625   6.846   4.039   4.233  1.2235  0.9080 -0.0216
 2712TIP3   OH229626   0.076   1.618   4.627 -0.2461  0.4652  0.1787
 2712TIP3    H129627   0.171   1.614   4.642 -0.5051 -2.5218  1.7322
 2712TIP3    H229628   0.063   1.569   4.546 -0.5556 -1.0053  1.0656
 2713TIP3   OH229629   6.777   5.573  12.704 -0.1781  0.1212  1.1139
 2713TIP3    H129630   6.865   5.565  12.668 -0.2492 -0.7242  1.1099
 2713TIP3    H229631   6.777   5.657  12.748 -0.2491  1.4782 -1.2972
 2714TIP3   OH229632   1.300   2.096  12.810 -0.0055  0.0137 -0.4354
 2714TIP3    H129633   1.323   2.053  12.893 -1.2784  0.6989  0.2867
 2714TIP3    H229634   1.383   2.133  12.779  1.0950 -2.5754 -0.9079
 2715TIP3   OH229635   5.455   3.295   1.456  0.6231  0.0969 -0.4258
 2715TIP3    H129636   5.378   3.238   1.455 -0.7098  1.8168 -0.3099
 2715TIP3    H229637   5.492   3.287   1.368  1.1314 -1.7452 -0.0863
 2716TIP3   OH229638   4.086   6.030  11.301 -0.6791  0.5098 -0.3213
 2716TIP3    H129639   4.096   5.982  11.219  0.1046 -1.8437  1.0421
 2716TIP3    H229640   4.175   6.038  11.335 -1.0860  0.5825  0.7561
 2717TIP3   OH229641   0.343   1.474  12.607  0.1936  0.1631 -0.0076
 2717TIP3    H129642   0.356   1.566  12.626  0.8920 -0.0054  0.3636
 2717TIP3    H229643   0.423   1.446  12.562 -0.3412 -0.0768 -0.8306
 2718TIP3   OH229644   0.604   2.825   3.636  0.4681  0.4075  0.1235
 2718TIP3    H129645   0.592   2.807   3.543  0.9704  1.2498 -0.1127
 2718TIP3    H229646   0.654   2.750   3.669 -2.1343 -1.3796  0.3699
 2719TIP3   OH229647   5.885   2.029  10.134 -0.1499  0.0999 -0.1484
 2719TIP3    H129648   5.895   2.050  10.227 -0.4692  1.2785 -0.3596
 2719TIP3    H229649   5.827   1.953  10.132 -1.2731  0.9196  0.5605
 2720TIP3   OH229650   3.850   3.569  15.475 -0.0109  0.5771  0.6542
 2720TIP3    H129651   3.872   3.476  15.486 -0.7722  0.5870  2.7649
 2720TIP3    H229652   3.893   3.594  15.393  0.7882 -1.4539  0.3789
 2721TIP3   OH229653   3.957   0.461   3.962 -0.1761 -0.1228 -0.0429
 2721TIP3    H129654   3.981   0.464   3.870 -0.0573 -0.3953 -0.0214
 2721TIP3    H229655   3.889   0.393   3.968 -3.0190  2.4438 -0.5620
 2722TIP3   OH229656   0.426   6.385  13.079  0.7110  0.3266 -0.4042
 2722TIP3    H129657   0.460   6.296  13.071  0.9836  0.4294 -0.3683
 2722TIP3    H229658   0.485   6.429  13.140  1.5058  0.9961 -1.6191
 2723TIP3   OH229659   3.031   0.270  12.993 -0.0662  0.4964 -0.2126
 2723TIP3    H129660   3.102   0.326  12.962  0.5055 -1.0413 -1.8168
 2723TIP3    H229661   3.013   0.211  12.920 -0.8834 -1.1760  1.2649
 2724TIP3   OH229662   4.020   5.735   3.448 -0.2599 -0.4741 -0.1262
 2724TIP3    H129663   4.080   5.777   3.510 -1.2465  1.5658 -0.4774
 2724TIP3    H229664   3.938   5.782   3.459 -1.3048 -2.0369 -0.9267
 2725TIP3   OH229665   4.882   5.057  12.183 -0.5286 -0.5564 -0.6484
 2725TIP3    H129666   4.860   5.001  12.257  2.0702 -0.3145  0.4025
 2725TIP3    H229667   4.898   5.143  12.221  0.5035 -0.3403 -1.5068
 2726TIP3   OH229668   5.860   5.102  16.511 -0.6111  0.3381 -0.6990
 2726TIP3    H129669   5.895   5.165  16.574 -2.0801  0.7765 -0.2781
 2726TIP3    H229670   5.911   5.022  16.527 -1.4889  0.1652  1.6835
 2727TIP3   OH229671   2.424   3.857  13.701 -0.5755 -0.1842 -0.4735
 2727TIP3    H129672   2.495   3.902  13.656 -0.7118  0.1791 -0.3335
 2727TIP3    H229673   2.449   3.765  13.701 -0.2492 -0.0957 -0.6870
 2728TIP3   OH229674   5.660   3.443   5.105 -0.1008  0.0270  0.5070
 2728TIP3    H129675   5.660   3.536   5.081  0.2174  0.6985  2.8849
 2728TIP3    H229676   5.675   3.397   5.022  0.4229  2.1266 -0.6293
 2729TIP3   OH229677   0.285   3.205  13.360  0.1010 -0.2217 -0.0379
 2729TIP3    H129678   0.243   3.123  13.388  0.7815 -0.7017 -0.3795
 2729TIP3    H229679   0.261   3.214  13.268  1.9025 -1.2868 -0.6647
 2730TIP3   OH229680   6.163   2.329   4.522  0.8082  0.3121  0.6350
 2730TIP3    H129681   6.155   2.349   4.615  1.2564 -0.0554  0.7601
 2730TIP3    H229682   6.104   2.255   4.508  1.3630 -0.1725  0.8129
 2731TIP3   OH229683   2.456   6.128   0.075 -0.4127 -0.2887 -0.0829
 2731TIP3    H129684   2.464   6.211   0.027  0.8209  0.1114  0.7760
 2731TIP3    H229685   2.364   6.103   0.063 -0.5329  0.6254 -1.2843
 2732TIP3   OH229686   5.722   6.803   5.599  0.5273 -0.0621  0.7041
 2732TIP3    H129687   5.675   6.868   5.652  1.4245  0.5370  0.7916
 2732TIP3    H229688   5.814   6.825   5.611  0.7609  0.4851 -1.5914
 2733TIP3   OH229689   3.866   2.733   4.470 -0.5598 -0.2817 -0.5631
 2733TIP3    H129690   3.783   2.781   4.470 -0.5245 -0.2192 -0.6206
 2733TIP3    H229691   3.899   2.744   4.381 -1.6070 -2.2483 -1.2465
 2734TIP3   OH229692   6.389   0.011   4.718  0.2753  0.1424 -0.7545
 2734TIP3    H129693   6.318   0.047   4.665  0.6379 -0.0248 -1.3554
 2734TIP3    H229694   6.389   0.066   4.797 -2.1931 -1.4291  0.4740
 2735TIP3   OH229695   1.963   5.776   3.219  0.2136  0.3938  0.3215
 2735TIP3    H129696   1.873   5.763   3.191 -0.2612 -2.2938  2.6376
 2735TIP3    H229697   2.010   5.699   3.186  1.3444  1.0296  0.3764
 2736TIP3   OH229698   6.501   6.861   0.744 -0.4866  0.0354 -0.1542
 2736TIP3    H129699   6.564   6.933   0.735 -0.6826  0.6166  2.3425
 2736TIP3    H229700   6.416   6.904   0.740 -0.6367 -0.2409  0.0830
 2737TIP3   OH229701   2.275   3.176   5.674 -0.2054 -0.1951 -0.3198
 2737TIP3    H129702   2.360   3.133   5.676 -0.2812 -0.3379 -0.2093
 2737TIP3    H229703   2.292   3.264   5.709 -0.3398 -0.6241  0.8441
 2738TIP3   OH229704   5.184   6.045  14.928 -0.2154 -0.1157  0.5754
 2738TIP3    H129705   5.198   6.068  15.019  3.2997  0.3240  0.0587
 2738TIP3    H229706   5.190   6.129  14.881 -2.0888 -0.3183 -0.0986
 2739TIP3   OH229707   4.420   0.497  14.133  0.5224 -0.2781 -0.1964
 2739TIP3    H129708   4.366   0.474  14.057 -0.0127  0.5241 -0.0701
 2739TIP3    H229709   4.405   0.591  14.145  0.0104 -0.5288  1.3580
 2740TIP3   OH229710   4.398   3.633   3.577 -1.0200 -0.3428  0.1527
 2740TIP3    H129711   4.473   3.624   3.635 -0.5440 -1.9023 -0.6342
 2740TIP3    H229712   4.434   3.671   3.497 -0.5686 -2.9619 -0.9943
 2741TIP3   OH229713   6.607   6.497   1.489 -0.0618  0.5287  0.4518
 2741TIP3    H129714   6.652   6.507   1.405 -0.9054 -0.8181 -0.2047
 2741TIP3    H229715   6.535   6.560   1.486 -0.6629 -0.1628 -0.2743
 2742TIP3   OH229716   1.987   5.973  13.561 -0.3039  0.2187  0.2264
 2742TIP3    H129717   1.996   5.880  13.580 -2.7388  0.1205  1.2676
 2742TIP3    H229718   1.937   6.008  13.635  0.8776  2.4672  0.0554
 2743TIP3   OH229719   0.687   1.188  12.627 -0.0280  0.0630  0.2119
 2743TIP3    H129720   0.595   1.163  12.623 -0.5036  1.8768 -1.4110
 2743TIP3    H229721   0.703   1.206  12.719 -1.2764 -0.2946  0.5175
 2744TIP3   OH229722   5.310   1.785  12.812 -0.0399  0.2889 -0.1727
 2744TIP3    H129723   5.225   1.828  12.824 -0.4088 -0.6585  0.7337
 2744TIP3    H229724   5.289   1.698  12.779  0.6645  0.5166 -1.2537
 2745TIP3   OH229725   4.559   0.688  16.255  0.1241 -0.4309 -0.5726
 2745TIP3    H129726   4.602   0.608  16.285 -0.3131 -0.3515  0.2918
 2745TIP3    H229727   4.623   0.731  16.199  1.0708 -0.4547  0.4697
 2746TIP3   OH229728   3.967   5.111  12.661 -0.5381  0.1601 -0.0625
 2746TIP3    H129729   3.954   5.116  12.756  0.3215 -3.7987  0.4617
 2746TIP3    H229730   4.023   5.034  12.650 -1.3351 -0.0325 -3.8676
 2747TIP3   OH229731   0.644   0.092   2.383 -0.3204  0.1672 -0.1497
 2747TIP3    H129732   0.587   0.018   2.400  1.9239 -1.8680 -0.8640
 2747TIP3    H229733   0.647   0.140   2.466 -1.3819 -0.8481  0.5090
 2748TIP3   OH229734   0.142   2.922   2.614  0.1517 -0.4560  0.0208
 2748TIP3    H129735   0.115   2.944   2.525 -0.0510 -3.0577 -0.6382
 2748TIP3    H229736   0.237   2.932   2.613  0.0826  0.2451 -0.2405
 2749TIP3   OH229737   4.898   1.592  12.539  0.2226 -0.2192  0.0171
 2749TIP3    H129738   4.942   1.508  12.544  0.5861  0.0539  3.0127
 2749TIP3    H229739   4.961   1.654  12.576 -0.9092  0.9875 -0.0094
 2750TIP3   OH229740   4.851   6.219   2.998 -0.8345 -0.3004  0.2955
 2750TIP3    H129741   4.853   6.311   2.970 -0.1903  0.1380  1.7130
 2750TIP3    H229742   4.793   6.218   3.074  0.5747 -0.7256  1.3956
 2751TIP3   OH229743   1.645   4.601  13.706  0.3866 -0.4423  0.7353
 2751TIP3    H129744   1.617   4.510  13.700  0.2102 -0.3548  0.1638
 2751TIP3    H229745   1.723   4.599  13.762 -0.7445 -0.6864  2.3587
 2752TIP3   OH229746   3.165   5.472   6.665 -0.4655  0.8658  0.1093
 2752TIP3    H129747   3.254   5.455   6.634 -0.2936  0.3442  0.8687
 2752TIP3    H229748   3.117   5.391   6.646 -0.6313  0.9359  0.2259
 2753TIP3   OH229749   4.123   0.545  13.495  0.4782  0.6810 -0.0147
 2753TIP3    H129750   4.037   0.585  13.485  0.4467  1.0603  1.5643
 2753TIP3    H229751   4.144   0.556  13.587  0.9663 -1.9232  0.2720
 2754TIP3   OH229752   5.888   6.782   4.500  0.0038 -0.0120 -0.4643
 2754TIP3    H129753   5.913   6.874   4.495 -3.5743  1.2824  1.7412
 2754TIP3    H229754   5.945   6.745   4.568  1.3680  0.5461 -1.2700
 2755TIP3   OH229755   1.846   3.469   0.120 -0.0732  0.3692 -0.6818
 2755TIP3    H129756   1.759   3.477   0.160  0.8110  1.8307  1.0832
 2755TIP3    H229757   1.869   3.558   0.094  1.2185  0.1473 -0.3694
 2756TIP3   OH229758   0.330   4.363   2.058  0.0200  0.5014  0.2920
 2756TIP3    H129759   0.286   4.292   2.103 -0.5308 -0.7974 -2.1444
 2756TIP3    H229760   0.423   4.347   2.073 -0.1264 -0.2870  0.3639
 2757TIP3   OH229761   3.131   3.178  14.833 -0.3192  0.4518 -0.3074
 2757TIP3    H129762   3.071   3.246  14.862  0.3682  0.9235  0.0309
 2757TIP3    H229763   3.186   3.160  14.910 -0.0127  0.0418 -0.6151
 2758TIP3   OH229764   5.616   0.905  12.758  0.0702  0.0819  0.3921
 2758TIP3    H129765   5.685   0.966  12.783 -0.0362  0.1011  0.6432
 2758TIP3    H229766   5.660   0.840  12.704  0.2220  0.2738  0.2842
 2759TIP3   OH229767   6.526   2.982  15.070  0.4984 -0.3140  0.1240
 2759TIP3    H129768   6.549   2.911  15.131 -2.8926 -0.5273  1.3429
 2759TIP3    H229769   6.525   3.061  15.125  1.3846  0.2187 -0.6007
 2760TIP3   OH229770   3.268   1.543   6.266 -0.2269  0.5214 -0.2488
 2760TIP3    H129771   3.207   1.577   6.332 -2.1883 -0.2266 -1.5658
 2760TIP3    H229772   3.341   1.509   6.316 -1.8323 -0.4044  1.6115
 2761TIP3   OH229773   1.950   0.366  16.175 -0.3626  0.2823  0.5758
 2761TIP3    H129774   1.993   0.450  16.157 -1.1374  0.7019  0.6375
 2761TIP3    H229775   2.009   0.300  16.138  1.2543  0.6884  2.2803
 2762TIP3   OH229776   2.105   0.891  16.523 -0.2295 -0.1064 -0.1450
 2762TIP3    H129777   2.109   0.890  16.427  1.1530 -0.9852 -0.1035
 2762TIP3    H229778   2.196   0.887  16.551 -0.6069  0.3203  1.2175
 2763TIP3   OH229779   4.987   5.645  14.048  0.7303 -0.4696 -0.3051
 2763TIP3    H129780   5.064   5.691  14.016  0.2833  0.2756 -0.3250
 2763TIP3    H229781   5.021   5.561  14.080  1.6860  0.2132  0.5431
 2764TIP3   OH229782   3.275   6.631   2.889  0.1679  0.1351  0.3793
 2764TIP3    H129783   3.308   6.592   2.969  1.8454 -0.4909 -0.5781
 2764TIP3    H229784   3.237   6.558   2.840  0.2337  0.2989  0.0809
 2765TIP3   OH229785   2.138   4.104   0.782 -0.2391  0.3365  0.8169
 2765TIP3    H129786   2.045   4.102   0.762  0.1198  0.2153 -0.9318
 2765TIP3    H229787   2.165   4.012   0.784 -0.2198  0.3523  1.7088
 2766TIP3   OH229788   2.762   4.622   5.864 -0.2256 -0.3425 -0.3878
 2766TIP3    H129789   2.842   4.674   5.873  0.9130 -1.6615 -2.1112
 2766TIP3    H229790   2.755   4.607   5.769 -0.8482 -2.7385 -0.0180
 2767TIP3   OH229791   0.544   3.173  16.042  0.0084  0.5339  0.1635
 2767TIP3    H129792   0.561   3.266  16.049  0.7802  0.3473  0.9871
 2767TIP3    H229793   0.605   3.132  16.104 -1.6817 -0.3747  1.3350
 2768TIP3   OH229794   4.483   0.619   4.300  0.4570  0.2152  0.2254
 2768TIP3    H129795   4.504   0.560   4.373  0.5815  0.5093  0.4267
 2768TIP3    H229796   4.449   0.561   4.232 -0.7720  0.0593  0.9312
 2769TIP3   OH229797   1.814   5.710  12.226 -0.0918 -0.4012 -0.0129
 2769TIP3    H129798   1.909   5.722  12.215  0.0448 -0.9255  0.5224
 2769TIP3    H229799   1.775   5.783  12.178  0.5687 -0.4674 -0.6772
 2770TIP3   OH229800   3.535   5.773  15.380  0.4000  0.5570  0.0843
 2770TIP3    H129801   3.445   5.804  15.375  0.6018  1.3233  0.8912
 2770TIP3    H229802   3.551   5.761  15.474  0.9571 -0.1071 -0.0896
 2771TIP3   OH229803   2.364   1.232   2.202  0.1523  0.0008  0.4895
 2771TIP3    H129804   2.327   1.261   2.119  0.6338  2.0112  0.9096
 2771TIP3    H229805   2.288   1.204   2.253 -0.0049 -2.8989 -1.1384
 2772TIP3   OH229806   0.347   6.101   9.987 -0.2751 -0.4432  0.6989
 2772TIP3    H129807   0.295   6.025   9.961 -0.7695  0.4988 -1.2418
 2772TIP3    H229808   0.425   6.064  10.029 -0.2590 -2.0448 -0.6439
 2773TIP3   OH229809   2.720   2.098   0.091  0.0446  0.3349  0.6791
 2773TIP3    H129810   2.779   2.025   0.068 -0.4193  0.2163 -0.1883
 2773TIP3    H229811   2.714   2.095   0.186  0.3698 -0.5018  0.6841
 2774TIP3   OH229812   1.821   2.582  15.237  0.7357 -0.2995  0.7274
 2774TIP3    H129813   1.818   2.580  15.141 -2.5378 -0.2098  0.7229
 2774TIP3    H229814   1.820   2.490  15.263 -1.0670 -0.3353  0.6272
 2775TIP3   OH229815   3.021   3.347  16.570 -0.5148 -0.2318 -0.0736
 2775TIP3    H129816   2.969   3.267  16.583 -1.4494  0.3741  0.0187
 2775TIP3    H229817   3.111   3.320  16.588 -0.5462 -1.7120 -1.7762
 2776TIP3   OH229818   2.708   0.169   3.904 -0.4809  0.0642  0.1756
 2776TIP3    H129819   2.683   0.102   3.841  0.9479  0.2282 -0.6042
 2776TIP3    H229820   2.690   0.130   3.990  0.0272 -1.1958 -0.2732
 2777TIP3   OH229821   5.653   6.361   1.071  0.4651  0.7553  0.2901
 2777TIP3    H129822   5.685   6.386   0.984  0.4338  1.3579  0.4478
 2777TIP3    H229823   5.641   6.444   1.117  1.4688  0.4112  1.2206
 2778TIP3   OH229824   4.718   5.257   3.816  0.0465  0.0308  0.2122
 2778TIP3    H129825   4.624   5.261   3.835  0.2924 -0.2963  1.6236
 2778TIP3    H229826   4.757   5.318   3.878  0.6733  1.1982 -1.2660
 2779TIP3   OH229827   4.505   0.163   6.106  0.1531 -0.1653 -0.2688
 2779TIP3    H129828   4.498   0.119   6.022 -0.6704 -0.8178  0.1199
 2779TIP3    H229829   4.425   0.138   6.153  0.2382  0.7852  0.4225
 2780TIP3   OH229830   2.689   5.572   3.924  0.6787 -0.2219 -0.8304
 2780TIP3    H129831   2.736   5.542   4.002 -1.4230 -3.1345 -0.5400
 2780TIP3    H229832   2.712   5.509   3.856 -1.5965 -0.9076 -1.0484
 2781TIP3   OH229833   5.049   1.318  13.141  0.6369 -0.1274  0.6478
 2781TIP3    H129834   5.056   1.301  13.047 -1.3868  0.3119  0.3908
 2781TIP3    H229835   5.108   1.254  13.181  2.1113  0.1679 -0.9282
 2782TIP3   OH229836   5.732   2.061   0.159  0.3691  0.5679  0.1104
 2782TIP3    H129837   5.700   1.987   0.211 -0.7045  0.3116 -0.8773
 2782TIP3    H229838   5.702   2.138   0.208 -0.2712  0.3329  0.1018
 2783TIP3   OH229839   5.605   2.150  14.445  0.0402 -0.9514 -0.1363
 2783TIP3    H129840   5.689   2.117  14.412 -0.5011 -2.2206 -0.3173
 2783TIP3    H229841   5.541   2.117  14.382 -0.7337 -1.1154  0.7218
 2784TIP3   OH229842   1.071   1.004   1.833 -0.2097  0.3468  0.3267
 2784TIP3    H129843   1.113   1.059   1.899  1.7824 -0.4670 -0.1911
 2784TIP3    H229844   1.056   0.921   1.877 -0.4067  0.3291  0.2257
 2785TIP3   OH229845   6.327   1.748  11.901  0.4454  0.7291  0.4743
 2785TIP3    H129846   6.420   1.724  11.904  0.4820  0.6631 -0.6796
 2785TIP3    H229847   6.280   1.665  11.911  0.5501  0.4516 -1.0575
 2786TIP3   OH229848   4.265   2.103   6.332  0.5427  0.1876  0.2637
 2786TIP3    H129849   4.228   2.014   6.333 -0.7391  0.6938  0.0280
 2786TIP3    H229850   4.314   2.107   6.250 -0.7256  0.1896 -0.5270
 2787TIP3   OH229851   3.041   6.443  13.580  0.0948 -0.1120 -0.0325
 2787TIP3    H129852   3.100   6.368  13.591  1.4665  0.9300 -0.0016
 2787TIP3    H229853   2.996   6.451  13.664 -1.0568 -1.6719 -0.4501
 2788TIP3   OH229854   0.489   1.128  13.019  0.0614  0.0755 -0.4710
 2788TIP3    H129855   0.454   1.044  12.991 -0.9281  0.1122  0.5919
 2788TIP3    H229856   0.497   1.179  12.937 -1.1043 -0.4053 -0.9057
 2789TIP3   OH229857   2.635   5.592  12.310 -0.2317 -0.0385  0.6289
 2789TIP3    H129858   2.631   5.684  12.335  0.9822  0.1615  0.1571
 2789TIP3    H229859   2.629   5.593  12.214 -2.1348 -0.6108  0.6946
 2790TIP3   OH229860   5.332   3.969  16.787 -0.3409 -0.7929  0.1047
 2790TIP3    H129861   5.308   4.021  16.710  0.2082 -2.0894 -0.9848
 2790TIP3    H229862   5.412   4.011  16.820 -1.0830  0.3166  0.5368
 2791TIP3   OH229863   4.075   1.456  16.156 -0.3817  0.3194 -0.0641
 2791TIP3    H129864   4.001   1.459  16.095 -0.2212 -0.5121 -0.3058
 2791TIP3    H229865   4.048   1.397  16.225 -0.3983  0.9423  0.4734
 2792TIP3   OH229866   4.362   5.113  12.332 -0.1880 -0.1858  1.1175
 2792TIP3    H129867   4.432   5.178  12.327 -0.1702 -0.2587  0.1512
 2792TIP3    H229868   4.305   5.143  12.403 -0.6311  1.3464  0.1499
 2793TIP3   OH229869   6.195   4.483  16.251  0.4332  0.5797 -0.5728
 2793TIP3    H129870   6.125   4.515  16.194  0.2564 -0.6343 -1.0719
 2793TIP3    H229871   6.257   4.555  16.257 -1.1532  1.9161  0.3736
 2794TIP3   OH229872   4.015   4.555  13.395 -0.3536  0.0085 -0.1732
 2794TIP3    H129873   4.037   4.540  13.303 -1.3563 -0.7471 -0.3093
 2794TIP3    H229874   4.093   4.530  13.443  0.3337  0.8187 -0.8337
 2795TIP3   OH229875   4.523   0.954  15.130 -0.0509  0.3714 -0.2268
 2795TIP3    H129876   4.534   1.007  15.051  1.5607 -0.6858 -0.7576
 2795TIP3    H229877   4.491   1.016  15.196  0.5677  1.7348 -1.1665
 2796TIP3   OH229878   6.867   0.363   3.121  0.2624 -0.4981  0.2939
 2796TIP3    H129879   6.801   0.386   3.056 -1.3058 -0.4665  1.8090
 2796TIP3    H229880   6.891   0.273   3.100  0.1521 -0.3244 -0.6159
 2797TIP3   OH229881   2.898   6.613  14.909  0.2324  0.0100 -0.0897
 2797TIP3    H129882   2.853   6.697  14.900  0.5159  0.1960  0.1981
 2797TIP3    H229883   2.925   6.611  15.001  0.2712 -0.3763 -0.1085
 2798TIP3   OH229884   1.460   3.332  10.665 -0.0020 -0.7514 -0.0043
 2798TIP3    H129885   1.383   3.330  10.608 -1.0349  0.6157  1.2863
 2798TIP3    H229886   1.430   3.294  10.748  1.0530 -1.2910  0.1528
 2799TIP3   OH229887   4.014   5.785  16.094  0.1638 -0.3057  0.0194
 2799TIP3    H129888   4.083   5.746  16.042  0.2852 -0.4586  0.2925
 2799TIP3    H229889   3.955   5.713  16.115  0.0245 -0.2133 -0.0459
 2800TIP3   OH229890   5.039   4.774  12.858 -0.4343  0.2145  0.2575
 2800TIP3    H129891   5.018   4.761  12.950  0.0630  0.3068  0.3858
 2800TIP3    H229892   4.953   4.784  12.815 -0.6456  0.7660  0.7933
 2801TIP3   OH229893   1.077   3.824  12.810 -0.0951 -0.0111 -0.3649
 2801TIP3    H129894   1.087   3.884  12.884 -3.4100  1.6836 -1.0995
 2801TIP3    H229895   1.140   3.856  12.745 -1.2669  2.3487 -0.4579
 2802TIP3   OH229896   5.366   5.026   0.706 -0.1266  0.0911 -0.4946
 2802TIP3    H129897   5.404   4.962   0.645 -0.8894  0.9666 -1.9522
 2802TIP3    H229898   5.317   4.974   0.769 -0.3132 -0.7883 -1.3508
 2803TIP3   OH229899   3.097   2.273   5.918  0.0675  0.0741 -0.3224
 2803TIP3    H129900   3.054   2.253   6.001  0.7939  0.4206  0.1524
 2803TIP3    H229901   3.114   2.367   5.923 -0.5600  0.2418 -1.1991
 2804TIP3   OH229902   5.764   3.868  16.107  0.1802  0.6274  0.2496
 2804TIP3    H129903   5.847   3.845  16.065  1.1249  2.4108  1.0087
 2804TIP3    H229904   5.697   3.844  16.043  1.1446 -2.0179  0.1275
 2805TIP3   OH229905   4.820   2.454   2.966  0.1360 -0.7997 -0.0525
 2805TIP3    H129906   4.793   2.512   2.895 -1.6259 -0.8545  0.5211
 2805TIP3    H229907   4.862   2.380   2.921 -0.7822 -0.7524 -1.0264
 2806TIP3   OH229908   0.764   6.503  12.993 -0.3952  0.2622 -0.3843
 2806TIP3    H129909   0.814   6.438  12.944 -0.5030  0.2083 -0.4212
 2806TIP3    H229910   0.831   6.561  13.029 -0.0552 -1.4623  1.9963
 2807TIP3   OH229911   4.489   0.983  15.984  0.1284  0.7913 -0.1015
 2807TIP3    H129912   4.479   1.058  16.043  1.5856  0.5542  0.4712
 2807TIP3    H229913   4.520   1.022  15.902 -1.4408  1.0654 -0.5953
 2808TIP3   OH229914   4.735   5.436   9.898  0.1697 -0.0113  0.1984
 2808TIP3    H129915   4.662   5.407   9.843  0.3777 -0.4164  0.1328
 2808TIP3    H229916   4.751   5.363   9.958 -0.4881  0.6945  1.2537
 2809TIP3   OH229917   6.184   4.465  16.680  0.3624  0.5326  0.4730
 2809TIP3    H129918   6.107   4.459  16.624 -0.2084 -0.9010  1.3683
 2809TIP3    H229919   6.215   4.555  16.668 -1.5017  1.1748  0.1762
 2810TIP3   OH229920   6.143   1.278  14.638  0.3872 -0.5019 -0.4323
 2810TIP3    H129921   6.055   1.286  14.601  0.2635 -1.0357 -0.2680
 2810TIP3    H229922   6.159   1.362  14.681  0.1240 -0.2520 -0.8158
 2811TIP3   OH229923   1.337   2.037  13.303 -0.5569 -0.1743  0.1694
 2811TIP3    H129924   1.362   2.102  13.369  0.4138 -0.4456  0.0806
 2811TIP3    H229925   1.242   2.032  13.309 -0.6168  1.0032  0.4219
 2812TIP3   OH229926   2.423   4.307  12.340  0.6436 -0.0840 -0.4331
 2812TIP3    H129927   2.516   4.294  12.321  0.4320 -1.0457 -0.9027
 2812TIP3    H229928   2.385   4.219  12.334 -0.3168  0.3140 -0.3729
 2813TIP3   OH229929   0.448   1.346  10.439 -0.2468 -0.2409 -0.1675
 2813TIP3    H129930   0.486   1.275  10.388  0.9405  0.9785 -1.0546
 2813TIP3    H229931   0.361   1.360  10.401 -0.5349 -1.2575  0.0888
 2814TIP3   OH229932   6.652   6.565   1.769  0.2410 -0.2136 -0.1890
 2814TIP3    H129933   6.628   6.522   1.687 -1.5022 -0.3890  0.3803
 2814TIP3    H229934   6.686   6.494   1.824 -0.8859 -0.5502  0.0901
 2815TIP3   OH229935   0.162   6.380   2.252  0.1099 -0.3548 -0.0404
 2815TIP3    H129936   0.145   6.345   2.165  3.0838  1.7375 -1.6609
 2815TIP3    H229937   0.099   6.451   2.263 -1.2277 -1.5418  0.2007
 2816TIP3   OH229938   5.728   6.171  16.569 -0.6950 -0.0377  0.0929
 2816TIP3    H129939   5.774   6.241  16.616 -1.1775  0.4420 -0.1410
 2816TIP3    H229940   5.654   6.214  16.527  1.1102  0.1163 -3.3186
 2817TIP3   OH229941   3.612   6.396   6.377  0.4416 -0.3381  0.6076
 2817TIP3    H129942   3.700   6.397   6.338 -0.0914 -1.2356 -0.7011
 2817TIP3    H229943   3.596   6.486   6.403  0.7419  0.3854 -1.5279
 2818TIP3   OH229944   1.908   1.125   4.331  0.3211 -0.3425  0.0665
 2818TIP3    H129945   1.995   1.158   4.307  1.7441 -3.0756  0.9144
 2818TIP3    H229946   1.888   1.060   4.263 -1.2678  0.5208 -0.3262
 2819TIP3   OH229947   4.747   0.485  16.361 -0.1189 -0.3191 -0.2725
 2819TIP3    H129948   4.833   0.522  16.342 -0.3543  0.8267  0.7787
 2819TIP3    H229949   4.751   0.461  16.454 -0.5456 -1.3782 -0.5158
 2820TIP3   OH229950   3.159   0.300   0.824  0.0316 -0.6033 -0.4764
 2820TIP3    H129951   3.091   0.321   0.887  1.2081 -0.6952  0.8936
 2820TIP3    H229952   3.200   0.221   0.859  0.7787 -0.5933 -1.2920
 2821TIP3   OH229953   3.365   2.177  15.627 -0.4486  0.7987  0.1892
 2821TIP3    H129954   3.403   2.097  15.664  0.4584  0.4109 -1.4450
 2821TIP3    H229955   3.405   2.248  15.677 -0.2162  0.2694  0.7641
 2822TIP3   OH229956   2.872   5.437  16.099 -0.3602 -0.4288  0.0117
 2822TIP3    H129957   2.842   5.508  16.155  1.3990 -0.2672  0.8328
 2822TIP3    H229958   2.839   5.458  16.012 -1.2916  0.4731  0.5696
 2823TIP3   OH229959   4.587   3.668   1.111  0.6079 -0.2535 -0.1565
 2823TIP3    H129960   4.650   3.610   1.154  0.0683 -2.7506 -2.4687
 2823TIP3    H229961   4.603   3.655   1.017 -2.3274  0.2094 -0.8027
 2824TIP3   OH229962   4.843   5.768  13.085 -0.6380 -0.9813 -0.2881
 2824TIP3    H129963   4.875   5.805  13.003 -0.9477 -0.1477 -0.0544
 2824TIP3    H229964   4.922   5.744  13.133 -0.3937 -0.0609 -0.2085
 2825TIP3   OH229965   1.348   0.745   1.669 -0.0409  0.4726 -0.6052
 2825TIP3    H129966   1.368   0.835   1.693  0.7063  0.7617 -2.2023
 2825TIP3    H229967   1.393   0.731   1.586  0.5822 -1.6522  0.0220
 2826TIP3   OH229968   0.235   0.977   3.739  0.0482  0.3998 -0.1532
 2826TIP3    H129969   0.284   0.949   3.661  1.2700  0.4627  0.5708
 2826TIP3    H229970   0.299   1.025   3.792 -0.8227  0.5615  0.7793
 2827TIP3   OH229971   3.795   2.335   2.443 -0.0490  0.2003 -0.1052
 2827TIP3    H129972   3.784   2.250   2.486 -2.7986  1.5968  2.2790
 2827TIP3    H229973   3.836   2.391   2.509 -2.1595  1.7709 -0.0226
 2828TIP3   OH229974   1.557   1.332   3.952  0.2008 -0.1091  0.6410
 2828TIP3    H129975   1.617   1.294   3.887 -0.4919 -0.9899  0.4924
 2828TIP3    H229976   1.561   1.272   4.026 -0.8062 -0.4273  0.4578
 2829TIP3   OH229977   1.168   0.050   4.324  0.1654  0.4591  0.5004
 2829TIP3    H129978   1.078   0.081   4.328  0.2429  0.8309 -0.3302
 2829TIP3    H229979   1.181   0.028   4.231  1.3044  1.5441  0.3838
 2830TIP3   OH229980   5.449   0.443   5.091  0.0333  0.4469  0.0048
 2830TIP3    H129981   5.422   0.516   5.148  0.1994  0.5568 -0.0563
 2830TIP3    H229982   5.476   0.374   5.152  1.2290  0.9397  0.0665
 2831TIP3   OH229983   5.302   5.927   2.657 -0.1733 -0.5675  0.5090
 2831TIP3    H129984   5.212   5.897   2.671 -1.0795 -0.1605 -3.2701
 2831TIP3    H229985   5.346   5.854   2.616  0.9532 -0.3889  1.3530
 2832TIP3   OH229986   0.421   1.259   3.008 -0.2204  0.0241 -0.8904
 2832TIP3    H129987   0.478   1.334   3.027  0.3905 -0.8700  0.9754
 2832TIP3    H229988   0.357   1.259   3.079 -0.5060 -0.9415 -1.1351
 2833TIP3   OH229989   1.654   5.078   0.140  0.2383  0.5699 -0.3880
 2833TIP3    H129990   1.642   5.143   0.208 -1.5174 -0.4697  0.3705
 2833TIP3    H229991   1.582   5.092   0.079 -0.1234 -0.5863 -0.2566
 2834TIP3   OH229992   6.433   2.794   2.714 -0.1054 -0.0007  0.1749
 2834TIP3    H129993   6.357   2.754   2.670  0.4312 -0.7384 -0.0875
 2834TIP3    H229994   6.402   2.812   2.803 -0.4270 -0.7770  0.2271
 2835TIP3   OH229995   6.810   5.518   1.770 -0.7669 -0.0489 -0.3263
 2835TIP3    H129996   6.814   5.514   1.866 -2.9700  0.7547 -0.1291
 2835TIP3    H229997   6.717   5.504   1.750 -0.3412 -0.2583 -2.3620
 2836TIP3   OH229998   6.578   2.876  13.206 -0.4829 -0.2156  0.0672
 2836TIP3    H129999   6.637   2.943  13.239  0.4716 -0.5926 -0.8150
 2836TIP3    H230000   6.545   2.832  13.285 -0.4641  0.7229  0.6081
 2837TIP3   OH230001   3.884   6.611  11.028  0.3602  0.2477  0.2715
 2837TIP3    H130002   3.838   6.531  11.052 -0.8870  1.5033  2.3294
 2837TIP3    H230003   3.815   6.673  11.006  1.3295  0.5449 -2.3412
 2838TIP3   OH230004   0.017   5.639  10.431  0.2002 -0.0178  0.2440
 2838TIP3    H130005   0.024   5.546  10.452  0.5861  0.4898  2.6060
 2838TIP3    H230006  -0.076   5.653  10.414  0.1160 -0.7993  0.0336
 2839TIP3   OH230007   2.907   2.422   6.233 -0.0155  0.1291  0.9080
 2839TIP3    H130008   2.822   2.442   6.194  0.0204  0.4000  0.9722
 2839TIP3    H230009   2.928   2.334   6.199  0.9919  1.1703 -1.4211
 2840TIP3   OH230010   2.224   3.893  11.910 -0.2674 -0.1262 -0.0646
 2840TIP3    H130011   2.227   3.873  12.003  1.8178 -0.8481 -0.2365
 2840TIP3    H230012   2.205   3.987  11.906 -0.1816 -0.0486  1.0805
 2841TIP3   OH230013   1.261   5.142  16.649  0.0909  0.0738 -0.1546
 2841TIP3    H130014   1.259   5.175  16.559  1.1629  1.1056  0.1701
 2841TIP3    H230015   1.291   5.216  16.701  1.7476 -1.1344  0.7284
 2842TIP3   OH230016   5.691   2.281   6.265 -0.2016  0.0434  0.0646
 2842TIP3    H130017   5.783   2.256   6.271 -0.2090  0.2745  1.5446
 2842TIP3    H230018   5.692   2.365   6.220  0.3448  0.2376  0.4341
 2843TIP3   OH230019   2.928   0.580   2.701 -0.5208 -0.0820 -0.4476
 2843TIP3    H130020   2.961   0.524   2.631  0.3268  0.7251 -0.7108
 2843TIP3    H230021   2.880   0.520   2.759 -0.8560 -0.8334 -1.4696
 2844TIP3   OH230022   1.353   1.705  12.221 -0.0714  0.3001 -0.0892
 2844TIP3    H130023   1.409   1.739  12.150  0.2476  1.3271  0.6253
 2844TIP3    H230024   1.279   1.766  12.224  0.2275  0.6337  0.8578
 2845TIP3   OH230025   1.012   0.725   1.954 -0.1986  0.1665  0.1508
 2845TIP3    H130026   1.099   0.694   1.976 -0.7890 -0.5139  1.6460
 2845TIP3    H230027   0.986   0.671   1.879  0.5566  0.2197 -0.1614
 2846TIP3   OH230028   4.002   3.427   3.361 -0.0317  0.1666 -0.8839
 2846TIP3    H130029   3.937   3.356   3.361  1.0189 -0.8131 -0.5727
 2846TIP3    H230030   3.956   3.501   3.400 -1.7516  0.2515 -2.8474
 2847TIP3   OH230031   2.234   3.483   3.193  0.1336  0.7425 -0.2172
 2847TIP3    H130032   2.302   3.509   3.131 -0.8056  0.7448 -1.2772
 2847TIP3    H230033   2.225   3.388   3.181 -0.1329  0.7612 -0.1687
 2848TIP3   OH230034   0.788   5.445   4.313 -0.1457 -0.0435  0.1163
 2848TIP3    H130035   0.737   5.369   4.342  0.3514 -0.4231  0.0035
 2848TIP3    H230036   0.847   5.464   4.385 -0.6747  0.6203  0.3936
 2849TIP3   OH230037   6.169   2.621  16.742  0.1335  0.5528 -0.8841
 2849TIP3    H130038   6.255   2.598  16.779 -0.5060  0.3321  0.5294
 2849TIP3    H230039   6.189   2.683  16.672  1.3260  2.8292  1.3070
 2850TIP3   OH230040   2.557   4.461   0.773  0.1975 -0.7126 -0.0633
 2850TIP3    H130041   2.474   4.443   0.817 -0.1585  2.9560  1.1328
 2850TIP3    H230042   2.538   4.454   0.680 -1.9413  1.3638  0.1248
 2851TIP3   OH230043   0.704   4.285  13.881 -0.2813 -0.7804  1.0158
 2851TIP3    H130044   0.762   4.298  13.806  0.0842  0.3905  1.4840
 2851TIP3    H230045   0.617   4.306  13.847  0.0038  0.6967  1.1506
 2852TIP3   OH230046   0.048   5.890   3.456 -0.3189  0.3483  0.4025
 2852TIP3    H130047  -0.028   5.836   3.437 -0.1894  0.6231 -1.0494
 2852TIP3    H230048   0.123   5.830   3.452 -0.3407  0.3154  0.5031
 2853TIP3   OH230049   0.936   0.960  15.735 -0.2459 -0.1509 -0.2842
 2853TIP3    H130050   0.875   1.003  15.795  0.7510  0.8842  0.0398
 2853TIP3    H230051   0.883   0.935  15.659 -0.8495  1.8819 -0.5808
 2854TIP3   OH230052   3.035   0.936  14.340  0.1827  0.0429 -0.1612
 2854TIP3    H130053   3.119   0.929  14.294  1.3586 -0.5930  1.9406
 2854TIP3    H230054   3.044   1.015  14.394 -0.4466 -0.2007  0.3109
 2855TIP3   OH230055   5.749   5.696   1.238  0.6076  0.4243 -0.2208
 2855TIP3    H130056   5.833   5.741   1.225  1.5633 -0.8882  1.1058
 2855TIP3    H230057   5.757   5.654   1.323 -0.7778 -1.1199 -0.8043
 2856TIP3   OH230058   6.131   4.932   1.714 -0.1493 -0.2910 -0.0552
 2856TIP3    H130059   6.083   5.015   1.713  0.0178 -0.1923  0.1180
 2856TIP3    H230060   6.062   4.865   1.706 -0.3419 -0.1594  0.4463
 2857TIP3   OH230061   1.122   0.758  16.153 -0.2930  0.5329  0.3389
 2857TIP3    H130062   1.181   0.822  16.113  0.0789 -0.7690 -1.3622
 2857TIP3    H230063   1.035   0.783  16.122 -0.1230  0.1379 -0.5046
 2858TIP3   OH230064   0.458   3.070   1.292  0.2175 -0.0381 -0.1188
 2858TIP3    H130065   0.413   3.059   1.208 -0.8517 -0.8997  0.5322
 2858TIP3    H230066   0.388   3.069   1.357  0.9683  1.2204  0.7592
 2859TIP3   OH230067   5.682   0.154   2.914  0.6866  0.2594 -0.0292
 2859TIP3    H130068   5.724   0.101   2.981  0.8827 -0.5544 -0.7890
 2859TIP3    H230069   5.645   0.091   2.852  1.3634  1.0033 -1.2235
 2860TIP3   OH230070   6.716   6.830  14.802  0.2176  0.3606  0.1746
 2860TIP3    H130071   6.798   6.861  14.841  0.0879 -0.0481  0.7857
 2860TIP3    H230072   6.732   6.739  14.780 -0.0317  0.3144  0.1763
 2861TIP3   OH230073   5.105   5.770  12.399 -0.3943  0.2771  0.1042
 2861TIP3    H130074   5.014   5.756  12.424 -0.2570  1.7316  1.5872
 2861TIP3    H230075   5.104   5.850  12.348  0.0942  0.4735  0.3977
 2862TIP3   OH230076   0.385   3.295   4.726 -0.3031 -0.6028 -0.6012
 2862TIP3    H130077   0.324   3.334   4.663 -0.5796  0.0288  0.0440
 2862TIP3    H230078   0.449   3.249   4.671  0.0049  0.7189 -1.3996
 2863TIP3   OH230079   1.485   0.973   0.139  0.2316  1.0151  0.5917
 2863TIP3    H130080   1.540   1.003   0.211 -0.0791  0.2551  1.1568
 2863TIP3    H230081   1.402   0.948   0.181  0.6134 -1.0389  0.2261
 2864TIP3   OH230082   0.125   3.203  11.834  0.2267  0.3531 -0.5258
 2864TIP3    H130083   0.149   3.205  11.742 -0.0073 -0.0608 -0.5998
 2864TIP3    H230084   0.074   3.283  11.848 -0.7365 -0.1520 -1.0402
 2865TIP3   OH230085   2.875   6.126  16.713  0.1568  0.6181 -0.6363
 2865TIP3    H130086   2.971   6.132  16.715  0.2157  0.5979  2.3441
 2865TIP3    H230087   2.857   6.033  16.721 -0.0993  0.6432 -0.9327
 2866TIP3   OH230088   6.598   4.996  16.126 -0.1113 -0.0827 -0.1875
 2866TIP3    H130089   6.528   4.940  16.159 -0.1990 -1.5436 -2.6344
 2866TIP3    H230090   6.677   4.961  16.166 -0.3526 -0.9742 -0.4672
 2867TIP3   OH230091   1.677   0.185   1.865 -0.1197 -0.0320 -0.2631
 2867TIP3    H130092   1.585   0.211   1.867 -0.2253 -0.3927 -0.4243
 2867TIP3    H230093   1.679   0.103   1.816  0.3771  0.3114 -0.8439
 2868TIP3   OH230094   2.258   3.246   2.983  0.0784 -0.2720  0.0080
 2868TIP3    H130095   2.349   3.257   3.010 -0.4120  0.4579  1.4760
 2868TIP3    H230096   2.236   3.329   2.940 -0.2219 -0.0024  0.6757
 2869TIP3   OH230097   5.437   1.226   0.320 -0.4691  0.4536 -0.0054
 2869TIP3    H130098   5.474   1.300   0.272  2.1924 -1.1920 -0.6933
 2869TIP3    H230099   5.467   1.238   0.410 -0.3752  0.4537 -0.0361
 2870TIP3   OH230100   2.810   0.532  11.496  0.0745  0.0687  0.5162
 2870TIP3    H130101   2.856   0.597  11.550 -0.3067  0.6413  0.1601
 2870TIP3    H230102   2.869   0.457  11.493  0.9563  0.7624  0.1322
 2871TIP3   OH230103   2.944   6.040  14.015  0.2322 -0.5660 -0.3760
 2871TIP3    H130104   3.005   6.007  13.949  0.5882  0.7498 -0.7375
 2871TIP3    H230105   2.978   6.127  14.038 -0.9522 -0.2156  0.1402
 2872TIP3   OH230106   0.092   0.601  11.069  0.1221 -0.5629  0.4537
 2872TIP3    H130107   0.137   0.519  11.092 -0.1778 -0.5015  1.2753
 2872TIP3    H230108   0.076   0.644  11.153 -0.2196  0.0772  0.0629
 2873TIP3   OH230109   0.794   2.236   3.454  0.2139  0.7100  0.5250
 2873TIP3    H130110   0.709   2.234   3.411 -0.5244 -0.4323  1.9635
 2873TIP3    H230111   0.817   2.144   3.465  0.9216  0.9935  1.5179
 2874TIP3   OH230112   1.660   0.772   5.446  0.3896  0.4339  1.1658
 2874TIP3    H130113   1.716   0.825   5.503 -1.0607  2.0547  1.1462
 2874TIP3    H230114   1.577   0.765   5.494  0.1616 -0.8169  0.6116
 2875TIP3   OH230115   0.656   5.242  14.744 -0.0784 -0.3025 -0.3216
 2875TIP3    H130116   0.682   5.227  14.835  1.1495  0.6164 -0.4987
 2875TIP3    H230117   0.726   5.203  14.692  0.1510  0.7543 -0.8377
 2876TIP3   OH230118   2.149   6.791   1.741 -0.3840 -0.3234  0.0645
 2876TIP3    H130119   2.199   6.740   1.805 -0.2109 -0.1848  0.0378
 2876TIP3    H230120   2.158   6.742   1.659  0.4765  0.1922 -0.1563
 2877TIP3   OH230121   0.321   5.216  11.296  0.2827  0.5660  0.5196
 2877TIP3    H130122   0.266   5.287  11.330  0.1028  0.2220  0.9525
 2877TIP3    H230123   0.396   5.214  11.355  0.4416  0.6042  0.3182
 2878TIP3   OH230124   0.961   5.684  16.610 -0.4750 -0.6952 -0.3081
 2878TIP3    H130125   1.019   5.658  16.681 -0.3164 -1.8662 -0.8479
 2878TIP3    H230126   0.893   5.617  16.609 -1.1311 -0.0375 -0.5093
 2879TIP3   OH230127   4.852   1.273  14.108 -0.2322  0.3670  0.5837
 2879TIP3    H130128   4.918   1.251  14.174 -1.0494  0.4173  1.4420
 2879TIP3    H230129   4.855   1.201  14.045  0.6426  0.3748  0.6027
 2880TIP3   OH230130   6.798   2.128   5.559 -0.2596  0.4333 -0.3727
 2880TIP3    H130131   6.800   2.182   5.638  1.1233  0.0857 -0.1410
 2880TIP3    H230132   6.826   2.042   5.588 -0.4309  0.1154 -1.1239
 2881TIP3   OH230133   5.688   0.224   6.333  0.1207 -0.3714 -0.3217
 2881TIP3    H130134   5.598   0.191   6.321 -0.5693  1.2419  0.1795
 2881TIP3    H230135   5.678   0.304   6.384  1.8223  0.1038 -0.6678
 2882TIP3   OH230136   5.223   1.648   1.251  0.0174 -0.2806 -0.2393
 2882TIP3    H130137   5.293   1.608   1.200 -0.8442 -1.9881 -0.1558
 2882TIP3    H230138   5.213   1.590   1.327 -0.3089  0.9073  0.6538
 2883TIP3   OH230139   6.849   2.567  11.288 -0.0558  0.0582 -0.0675
 2883TIP3    H130140   6.769   2.526  11.322  0.2265  0.0279  0.5821
 2883TIP3    H230141   6.857   2.648  11.339 -0.2280  0.5807 -0.8531
 2884TIP3   OH230142   4.393   5.894  14.173  0.0914 -0.1168 -0.1745
 2884TIP3    H130143   4.357   5.954  14.108 -0.4851 -0.1565  0.0987
 2884TIP3    H230144   4.433   5.951  14.239  1.1616 -0.0900 -0.8256
 2885TIP3   OH230145   1.522   3.218   1.174  0.5711 -0.0176 -0.5933
 2885TIP3    H130146   1.443   3.170   1.149 -0.7337  1.2893  0.8792
 2885TIP3    H230147   1.542   3.273   1.098 -1.7082  1.8301  0.0500
 2886TIP3   OH230148   0.444   2.999   3.990 -0.3035  0.3969 -0.0095
 2886TIP3    H130149   0.523   2.995   4.044 -0.1350 -0.6925 -0.3024
 2886TIP3    H230150   0.462   3.068   3.926  1.8035 -1.9018 -2.1121
 2887TIP3   OH230151   1.324   4.730   1.248 -0.4968 -0.1452  0.0315
 2887TIP3    H130152   1.350   4.665   1.314  1.8663 -0.4938 -1.1422
 2887TIP3    H230153   1.243   4.694   1.211 -0.1392 -1.5865  0.5622
 2888TIP3   OH230154   0.954   6.474   1.798 -0.0987 -0.2528  0.7274
 2888TIP3    H130155   0.968   6.564   1.829 -0.6779 -0.9178  3.1360
 2888TIP3    H230156   0.988   6.419   1.868  3.2836 -2.0945 -2.0209
 2889TIP3   OH230157   4.511   1.226   3.199 -0.0129  0.1841  0.1198
 2889TIP3    H130158   4.596   1.191   3.223 -0.0434  0.6495  0.9303
 2889TIP3    H230159   4.494   1.190   3.112  0.7698 -0.3301  0.1724
 2890TIP3   OH230160   4.739   0.112   1.797  0.4508  0.0081  0.0188
 2890TIP3    H130161   4.740   0.027   1.754  0.8449 -0.2720  0.5640
 2890TIP3    H230162   4.660   0.110   1.851 -0.6455  0.7850 -1.4893
 2891TIP3   OH230163   6.148   4.570  11.075 -0.5952  0.7013 -0.5771
 2891TIP3    H130164   6.170   4.478  11.089 -1.4926  0.6702  0.7526
 2891TIP3    H230165   6.233   4.615  11.074 -0.1347 -0.1518 -1.4547
 2892TIP3   OH230166   3.101   6.468  13.243 -0.0944  0.6307 -0.2165
 2892TIP3    H130167   3.117   6.552  13.286 -0.3845 -0.0957  1.3829
 2892TIP3    H230168   3.183   6.448  13.199  0.2532  1.3592  0.0827
 2893TIP3   OH230169   6.625   5.551  11.841 -0.7777 -0.4788  0.1533
 2893TIP3    H130170   6.625   5.473  11.896 -1.9621 -0.2849  0.4644
 2893TIP3    H230171   6.604   5.623  11.901 -0.4666 -0.0346 -0.2636
 2894TIP3   OH230172   5.170   1.075   5.034  0.2714 -0.0182 -0.4663
 2894TIP3    H130173   5.226   1.079   5.111  0.1392 -0.6013 -0.3331
 2894TIP3    H230174   5.083   1.101   5.067  0.1071 -0.7585 -0.3060
 2895TIP3   OH230175   5.711   0.982   1.554 -0.1858  0.5734 -0.2384
 2895TIP3    H130176   5.729   1.006   1.645  1.9377 -1.5536 -0.0063
 2895TIP3    H230177   5.674   0.894   1.559 -2.1412  1.2509 -1.3872
 2896TIP3   OH230178   6.064   3.422  11.011  0.1131 -0.8188 -0.0555
 2896TIP3    H130179   6.005   3.481  11.057  0.5523  1.2480 -1.9573
 2896TIP3    H230180   6.140   3.414  11.069 -0.7019 -1.0095  1.0266
 2897TIP3   OH230181   4.398   4.393  13.731 -0.1459  0.0573 -0.4610
 2897TIP3    H130182   4.490   4.391  13.758  0.2285 -0.4659 -1.7418
 2897TIP3    H230183   4.374   4.301  13.721 -1.4813  0.0458  1.9481
 2898TIP3   OH230184   1.214   4.168   5.233  0.4078 -0.1130 -0.4432
 2898TIP3    H130185   1.151   4.210   5.174 -0.8135 -1.1156  0.0922
 2898TIP3    H230186   1.235   4.085   5.191  0.4618 -0.2953 -0.0611
 2899TIP3   OH230187   6.145   6.268  14.775  0.2187 -0.0152 -0.3709
 2899TIP3    H130188   6.060   6.263  14.820  0.1475  1.1061 -0.3404
 2899TIP3    H230189   6.152   6.360  14.749  1.0016 -0.3018 -1.2220
 2900TIP3   OH230190   3.584   2.154   3.131  0.3339 -0.9416 -0.2017
 2900TIP3    H130191   3.563   2.106   3.051 -1.4513 -2.2564  0.9748
 2900TIP3    H230192   3.679   2.167   3.128  0.4247 -1.8120 -2.0354
 2901TIP3   OH230193   1.435   4.949   1.159 -0.2196 -0.1936 -0.4988
 2901TIP3    H130194   1.379   4.877   1.189 -0.8916 -0.3404 -2.0108
 2901TIP3    H230195   1.398   5.027   1.200 -0.1983 -0.5607  0.2297
 2902TIP3   OH230196   0.201   1.061   2.294  0.1229  0.0955  0.1896
 2902TIP3    H130197   0.143   1.128   2.259  0.7526  0.6791  0.2404
 2902TIP3    H230198   0.281   1.108   2.317  0.3477 -0.5698  0.8068
 2903TIP3   OH230199   6.577   1.405   4.189  0.4657 -0.1438 -0.3358
 2903TIP3    H130200   6.596   1.326   4.139 -0.2117 -0.8979  0.5597
 2903TIP3    H230201   6.606   1.385   4.278 -1.6344 -0.2083  0.3811
 2904TIP3   OH230202   0.388   4.255  15.568 -0.2864 -0.0222 -0.2653
 2904TIP3    H130203   0.368   4.273  15.660  0.2997 -1.3982  0.1705
 2904TIP3    H230204   0.481   4.277  15.559 -0.6307  1.2679 -0.8701
 2905TIP3   OH230205   4.060   1.290   3.022 -0.7178 -0.2339  0.5501
 2905TIP3    H130206   3.993   1.359   3.027  0.8138  1.5843 -1.7163
 2905TIP3    H230207   4.093   1.283   3.111 -0.2111  2.8434  0.7355
 2906TIP3   OH230208   2.913   6.687  10.564 -0.1796  0.1645  0.5409
 2906TIP3    H130209   2.977   6.757  10.548  0.7571 -0.7758  0.0604
 2906TIP3    H230210   2.941   6.647  10.646  1.9965 -2.4509 -1.3014
 2907TIP3   OH230211   1.947   2.830   2.996  0.7494  0.2332  0.0861
 2907TIP3    H130212   1.881   2.897   2.979 -0.3117 -0.7542  0.1833
 2907TIP3    H230213   1.975   2.801   2.909  2.1213  1.6195  0.0191
 2908TIP3   OH230214   3.444   1.870   1.819 -0.9300 -0.4111 -0.4145
 2908TIP3    H130215   3.420   1.786   1.781 -0.5807 -0.1963 -1.1406
 2908TIP3    H230216   3.409   1.935   1.758 -0.7617 -0.0433 -0.1269
 2909TIP3   OH230217   3.803   3.534  12.090  0.1525 -0.2131  0.3830
 2909TIP3    H130218   3.823   3.445  12.119 -1.9445 -0.6354  0.7389
 2909TIP3    H230219   3.709   3.531  12.069  0.5269  1.3267 -1.8230
 2910TIP3   OH230220   0.344   3.559   1.749 -0.8472  0.0223  0.2004
 2910TIP3    H130221   0.418   3.531   1.803 -0.5275  0.4642 -0.0096
 2910TIP3    H230222   0.267   3.528   1.797 -0.6110  1.1427  1.3512
 2911TIP3   OH230223   1.120   2.267  12.466  0.1688 -0.2001  0.6255
 2911TIP3    H130224   1.111   2.197  12.531  1.4576  1.0126  2.1780
 2911TIP3    H230225   1.074   2.233  12.388 -0.8964 -1.9526  1.9369
 2912TIP3   OH230226   1.526   3.556  16.592 -0.1265 -0.8584 -0.5321
 2912TIP3    H130227   1.491   3.600  16.669  1.0970 -0.7251 -0.0247
 2912TIP3    H230228   1.450   3.537  16.537 -1.1605 -1.9205  1.2012
 2913TIP3   OH230229   5.270   0.112  13.678  0.2288 -0.7300 -0.2194
 2913TIP3    H130230   5.330   0.081  13.747  0.1698 -0.4781 -0.0530
 2913TIP3    H230231   5.320   0.180  13.633  0.0183 -0.4156  0.0129
 2914TIP3   OH230232   0.392   6.634   0.665 -0.0385 -0.9173 -0.0275
 2914TIP3    H130233   0.393   6.539   0.658  0.3772 -0.9702  0.5779
 2914TIP3    H230234   0.300   6.659   0.659 -0.1114 -1.3136 -0.6329
 2915TIP3   OH230235   0.178   5.384  12.338  0.7785 -0.0890 -0.3366
 2915TIP3    H130236   0.169   5.388  12.433  3.4365 -1.3778  0.0715
 2915TIP3    H230237   0.106   5.328  12.310  0.6991 -0.7669  1.0981
 2916TIP3   OH230238   2.717   1.038   4.331  0.0013  0.1072  0.4195
 2916TIP3    H130239   2.720   1.001   4.419  0.2032  1.1497  0.8741
 2916TIP3    H230240   2.663   0.978   4.281  0.3669 -0.8129  1.1043
 2917TIP3   OH230241   6.673   4.041   3.702  0.1888  0.1050 -0.5747
 2917TIP3    H130242   6.611   3.997   3.645  0.6839 -2.7383  0.9095
 2917TIP3    H230243   6.642   4.023   3.791  2.7378 -0.9729  0.2076
 2918TIP3   OH230244   2.685   1.706   1.259 -0.2215  0.9341 -0.3061
 2918TIP3    H130245   2.597   1.690   1.294 -0.2224 -0.2684 -0.8249
 2918TIP3    H230246   2.678   1.790   1.214 -1.4297  0.2920 -1.3584
 2919TIP3   OH230247   6.807   2.572  15.208  0.3168 -0.0908  1.1674
 2919TIP3    H130248   6.782   2.507  15.142 -1.7785  1.8625 -0.1183
 2919TIP3    H230249   6.851   2.641  15.158  1.3412  0.1058  2.2941
 2920TIP3   OH230250   4.531   6.346  16.036 -0.1599  0.2164 -0.6246
 2920TIP3    H130251   4.500   6.433  16.013  0.4490  0.4942 -0.4149
 2920TIP3    H230252   4.459   6.307  16.087 -0.3276  0.6951 -0.4922
 2921TIP3   OH230253   3.414   6.728  13.185  0.1454 -0.2887  0.4385
 2921TIP3    H130254   3.498   6.754  13.146  0.5324  0.0444  1.4685
 2921TIP3    H230255   3.365   6.810  13.193  0.3293 -0.2466  1.2438
 2922TIP3   OH230256   3.435   0.277  13.796 -0.6865 -0.1540 -0.4653
 2922TIP3    H130257   3.429   0.211  13.865  0.2085  0.3370  0.1021
 2922TIP3    H230258   3.386   0.352  13.831 -1.1626 -0.2886 -0.8365
 2923TIP3   OH230259   2.653   2.357   0.249  0.2661 -0.1016  0.0853
 2923TIP3    H130260   2.574   2.405   0.274  0.9139  0.7944  0.4638
 2923TIP3    H230261   2.621   2.284   0.196 -1.0393 -1.2004  2.2292
 2924TIP3   OH230262   3.863   1.702  13.382 -0.2789  0.6716  0.4551
 2924TIP3    H130263   3.787   1.705  13.440 -0.4655  0.5949  0.2223
 2924TIP3    H230264   3.930   1.657  13.432 -0.0604  1.6112  1.0302
 2925TIP3   OH230265   0.662   5.302  15.261  0.5110 -0.4226  0.5080
 2925TIP3    H130266   0.755   5.317  15.245  0.9422 -3.5616 -0.7063
 2925TIP3    H230267   0.618   5.339  15.185  0.7011  1.2971  1.2053
 2926TIP3   OH230268   3.354   2.173   5.511 -0.1832  0.1072  0.1978
 2926TIP3    H130269   3.277   2.177   5.455 -0.1819  4.0428  0.1516
 2926TIP3    H230270   3.427   2.191   5.452  0.4036 -0.4774  0.7323
 2927TIP3   OH230271   6.726   1.401   4.491 -0.2453 -0.1248  0.2934
 2927TIP3    H130272   6.677   1.407   4.573 -0.2087  2.4679  0.2086
 2927TIP3    H230273   6.718   1.488   4.452  2.1147 -0.4316 -1.0655
 2928TIP3   OH230274   6.447   4.420  15.152 -0.3952  0.5621 -0.4330
 2928TIP3    H130275   6.468   4.350  15.214  1.4905 -1.7948 -3.4273
 2928TIP3    H230276   6.509   4.490  15.174 -1.6514  1.0320  1.9955
 2929TIP3   OH230277   3.662   4.251  10.581 -0.0547 -0.0590 -0.1418
 2929TIP3    H130278   3.625   4.309  10.515  1.2027  3.0334  1.6671
 2929TIP3    H230279   3.757   4.266  10.575  0.0874  0.4259  2.4089
 2930TIP3   OH230280   2.501   2.971   3.844  0.7042  0.1574  0.0913
 2930TIP3    H130281   2.497   2.923   3.761  0.9608  0.8246 -0.3099
 2930TIP3    H230282   2.579   3.026   3.836  1.0736 -0.1976  1.0123
 2931TIP3   OH230283   5.217   5.417   2.558  0.0742 -0.0304 -0.8002
 2931TIP3    H130284   5.192   5.509   2.565 -0.4161 -0.0147 -2.4419
 2931TIP3    H230285   5.150   5.370   2.607  2.6510  0.6518  4.0413
 2932TIP3   OH230286   1.505   2.037  16.699 -0.2299 -0.6302 -0.3153
 2932TIP3    H130287   1.479   1.945  16.699 -2.0512 -0.1917 -2.5560
 2932TIP3    H230288   1.426   2.084  16.725  0.9387  0.3283  1.7694
 2933TIP3   OH230289   2.450   0.648   3.488 -0.6655 -0.1404  0.3572
 2933TIP3    H130290   2.526   0.686   3.534 -0.7338 -1.1807  1.3803
 2933TIP3    H230291   2.444   0.698   3.407  1.2983 -0.1961  0.1170
 2934TIP3   OH230292   6.001   2.175   4.270 -0.7820 -0.0596  0.0205
 2934TIP3    H130293   6.021   2.120   4.345 -1.2895 -2.5499 -1.5764
 2934TIP3    H230294   6.085   2.188   4.227 -0.5971  0.8412  0.6052
 2935TIP3   OH230295   2.728   4.759   2.891  0.3329  0.1426  0.2613
 2935TIP3    H130296   2.647   4.808   2.899  0.8014  0.7895  1.2588
 2935TIP3    H230297   2.746   4.757   2.797 -0.5114  0.5170  0.0868
 2936TIP3   OH230298   0.343   5.211   1.880 -0.0670  0.4923 -0.4553
 2936TIP3    H130299   0.267   5.233   1.825 -0.9439  2.5818  1.4655
 2936TIP3    H230300   0.415   5.263   1.844 -0.9395  2.8525  1.0172
 2937TIP3   OH230301   0.310   5.091   4.432 -0.1980  0.3788 -0.3958
 2937TIP3    H130302   0.314   5.107   4.338  1.2997  0.1815 -0.3917
 2937TIP3    H230303   0.368   5.156   4.471  0.5314 -0.6016  0.2195
 2938TIP3   OH230304   5.953   4.343  12.610  0.1849 -0.4540  0.7538
 2938TIP3    H130305   5.872   4.390  12.591  0.6378  0.5575  1.2519
 2938TIP3    H230306   5.993   4.327  12.525  0.5920  1.1129  0.6258
 2939TIP3   OH230307   1.632   4.089  14.440  0.4396 -0.6873  0.1596
 2939TIP3    H130308   1.650   4.079  14.346  1.7947 -2.2525  0.5452
 2939TIP3    H230309   1.596   4.005  14.466  2.8738 -1.3855  1.5926
 2940TIP3   OH230310   2.441   4.991   1.380  0.0149  0.0209 -0.6047
 2940TIP3    H130311   2.454   4.902   1.415 -0.6005 -0.9588 -2.6847
 2940TIP3    H230312   2.346   4.998   1.369  0.0940  0.7863 -0.8486
 2941TIP3   OH230313   2.371   6.623   0.008 -0.0908 -0.3387 -0.0638
 2941TIP3    H130314   2.321   6.611   0.089 -1.2396  1.0932 -0.5211
 2941TIP3    H230315   2.379   6.718  -0.001 -0.2129 -0.4717 -1.7612
 2942TIP3   OH230316   6.317   5.062   2.807  0.1106  0.0559 -0.8098
 2942TIP3    H130317   6.396   5.021   2.843 -1.0930  0.0937  2.1273
 2942TIP3    H230318   6.278   4.994   2.752  1.0234 -0.7436 -0.5014
 2943TIP3   OH230319   5.035   3.201  12.016 -0.2202  0.4200 -0.5144
 2943TIP3    H130320   4.941   3.217  12.023 -0.1649  0.5134  0.0899
 2943TIP3    H230321   5.072   3.243  12.094  0.1985 -0.6003 -0.1511
 2944TIP3   OH230322   5.982   6.741  16.439  0.1308  0.2272 -0.2288
 2944TIP3    H130323   6.054   6.791  16.400  0.1585  1.4541  1.3151
 2944TIP3    H230324   5.906   6.764  16.386  0.2721  1.4136  0.0532
 2945TIP3   OH230325   5.566   0.754  13.446  0.2740  0.4297 -0.2031
 2945TIP3    H130326   5.487   0.789  13.406  0.9997  1.2770 -0.9401
 2945TIP3    H230327   5.546   0.749  13.540 -0.3482  1.4665 -0.2722
 2946TIP3   OH230328   6.467   3.648   3.492  0.2764 -0.4149  0.1026
 2946TIP3    H130329   6.409   3.572   3.498 -0.2463 -0.1948 -1.6577
 2946TIP3    H230330   6.534   3.621   3.428  1.1142 -0.0226  0.7976
 2947TIP3   OH230331   2.299   1.563  13.396 -0.1889 -0.4654 -0.5573
 2947TIP3    H130332   2.218   1.612  13.383 -0.2612 -0.0878  1.0987
 2947TIP3    H230333   2.358   1.625  13.440  0.1171 -1.4821  0.5303
 2948TIP3   OH230334   1.379   2.114  14.136  0.5926  0.2619 -0.4688
 2948TIP3    H130335   1.465   2.093  14.174 -0.1871 -2.0481  0.1650
 2948TIP3    H230336   1.387   2.088  14.044  0.1346 -1.4406 -0.0554
 2949TIP3   OH230337   5.230   2.962   4.082  0.0047  0.5230  0.3012
 2949TIP3    H130338   5.288   3.015   4.027  0.2624  0.9894  1.0112
 2949TIP3    H230339   5.161   2.932   4.022  0.1159  1.2671 -0.2089
 2950TIP3   OH230340   4.691   4.302  15.784 -0.3045  0.1231  0.2765
 2950TIP3    H130341   4.748   4.377  15.766  2.1984 -2.0780 -1.9121
 2950TIP3    H230342   4.632   4.298  15.709 -0.7894  0.2082  0.6528
 2951TIP3   OH230343   0.780   6.304   0.984 -0.3479  0.1769  0.3771
 2951TIP3    H130344   0.848   6.349   0.933  0.3256 -1.3956 -0.1829
 2951TIP3    H230345   0.704   6.303   0.926  0.2803 -1.2076 -0.4817
 2952TIP3   OH230346   2.510   1.766  16.327  0.0805 -0.2994 -0.8122
 2952TIP3    H130347   2.444   1.723  16.273 -0.6190 -1.0497  0.5650
 2952TIP3    H230348   2.493   1.734  16.416 -0.0334  2.2851  0.1977
 2953TIP3   OH230349   1.334   6.328  11.266  0.1398 -0.8765  0.8115
 2953TIP3    H130350   1.380   6.397  11.313 -0.6288  0.8549 -0.8578
 2953TIP3    H230351   1.394   6.301  11.197  0.2223 -1.5261  1.1268
 2954TIP3   OH230352   3.148   0.772   4.801  0.1654 -0.2007 -0.3616
 2954TIP3    H130353   3.155   0.730   4.715 -0.3472  1.2854 -1.1486
 2954TIP3    H230354   3.239   0.779   4.831  0.3994 -0.1306 -1.0673
 2955TIP3   OH230355   3.670   2.519  14.641  0.0328 -0.0833 -0.0583
 2955TIP3    H130356   3.762   2.543  14.631  0.2191 -0.2294  1.1132
 2955TIP3    H230357   3.672   2.442  14.699 -0.8045 -0.2561 -0.2448
 2956TIP3   OH230358   1.001   1.483   1.843 -0.1247 -0.1425  0.5433
 2956TIP3    H130359   1.096   1.488   1.831 -0.1646  0.1529  0.3459
 2956TIP3    H230360   0.975   1.402   1.798 -0.2604  0.8797 -1.3191
 2957TIP3   OH230361   2.108   2.292  11.905  0.0489  0.2389  0.3032
 2957TIP3    H130362   2.156   2.235  11.965 -1.1761  0.6688  1.7502
 2957TIP3    H230363   2.082   2.234  11.833  0.0532 -0.7053  1.0376
 2958TIP3   OH230364   5.812   6.322   0.408 -0.2475 -0.2200  0.4643
 2958TIP3    H130365   5.843   6.402   0.452 -1.3492  0.1992  0.4979
 2958TIP3    H230366   5.734   6.296   0.457 -0.6902 -0.5365 -0.3954
 2959TIP3   OH230367   4.972   1.134   6.189  0.0369 -0.7535 -0.6543
 2959TIP3    H130368   4.900   1.163   6.246  0.0260 -1.3046 -0.3745
 2959TIP3    H230369   4.984   1.206   6.127 -0.6358 -0.5740 -0.5923
 2960TIP3   OH230370   4.508   2.570   3.400  0.3015  0.9463  0.3956
 2960TIP3    H130371   4.568   2.556   3.327 -0.2908  0.0182  0.0823
 2960TIP3    H230372   4.563   2.611   3.467  1.4836 -0.4659  0.3565
 2961TIP3   OH230373   4.805   5.533   5.963  0.3559 -0.2344 -0.2952
 2961TIP3    H130374   4.756   5.490   6.034  2.7841  0.0036  1.6498
 2961TIP3    H230375   4.760   5.504   5.883 -2.9463  0.0390  1.2676
 2962TIP3   OH230376   0.909   5.060   5.051  0.0336 -0.7011 -0.0015
 2962TIP3    H130377   0.927   5.139   5.102 -3.1900  0.1713 -0.0352
 2962TIP3    H230378   0.853   5.007   5.107 -3.9302  0.4447 -2.4621
 2963TIP3   OH230379   4.751   3.685  13.659  0.0436  0.0305  0.3321
 2963TIP3    H130380   4.697   3.607  13.646  1.1843 -1.1233  2.0627
 2963TIP3    H230381   4.825   3.673  13.598  0.8803 -0.9535  1.4776
 2964TIP3   OH230382   5.011   6.672  16.179  0.4676 -0.6912 -0.7589
 2964TIP3    H130383   4.958   6.593  16.184  0.8734 -0.9135  0.1731
 2964TIP3    H230384   5.049   6.682  16.266 -1.3316  1.7639 -0.1695
 2965TIP3   OH230385   3.536   3.859   2.598  0.1634 -0.6921 -0.0646
 2965TIP3    H130386   3.631   3.858   2.586  0.3587  0.2865  1.2106
 2965TIP3    H230387   3.501   3.825   2.515  1.6628 -2.6093  0.0196
 2966TIP3   OH230388   5.068   4.915  10.789  0.1002  0.1921  0.4899
 2966TIP3    H130389   5.160   4.928  10.812  0.2330  0.7517 -0.3243
 2966TIP3    H230390   5.056   4.820  10.793  0.6501  0.1329  0.8316
 2967TIP3   OH230391   0.698   4.123   0.293  0.0178  0.0544 -0.3753
 2967TIP3    H130392   0.732   4.153   0.208 -0.8851 -0.8562 -1.0863
 2967TIP3    H230393   0.665   4.202   0.335  0.8417  0.5799 -0.6897
 2968TIP3   OH230394   6.272   6.561   0.022 -0.1519  0.1686  0.0828
 2968TIP3    H130395   6.278   6.481   0.074  0.2018 -0.7794 -1.3360
 2968TIP3    H230396   6.181   6.589   0.032 -0.2254 -0.2844  0.7767
 2969TIP3   OH230397   5.818   3.774  14.597 -0.4819 -0.0567  0.1284
 2969TIP3    H130398   5.795   3.718  14.671 -1.3963  0.4868  0.2796
 2969TIP3    H230399   5.911   3.793  14.609  0.5478 -3.5078 -1.2786
 2970TIP3   OH230400   3.404   5.301   3.707  0.2176 -1.0543  0.7836
 2970TIP3    H130401   3.422   5.229   3.646  0.3961 -0.6837  0.3909
 2970TIP3    H230402   3.484   5.311   3.757  0.3469 -0.8451  0.5384
 2971TIP3   OH230403   2.857   5.024   3.238 -0.0444 -0.5799 -0.6206
 2971TIP3    H130404   2.878   5.089   3.172  0.5481  0.9396  1.0036
 2971TIP3    H230405   2.938   4.975   3.252 -0.2142 -1.0131 -1.0999
 2972TIP3   OH230406   6.504   4.934  10.739  0.5657 -0.0824 -0.0681
 2972TIP3    H130407   6.519   4.981  10.657 -1.1493  2.6148  1.0279
 2972TIP3    H230408   6.436   4.869  10.717  0.5659  0.1899 -0.9033
 2973TIP3   OH230409   1.440   2.367  11.856  0.3958  0.3967 -0.4114
 2973TIP3    H130410   1.413   2.281  11.824  1.4208 -0.0496 -0.1089
 2973TIP3    H230411   1.460   2.352  11.948 -2.3628  1.6237  0.5047
 2974TIP3   OH230412   3.724   2.999  12.248 -0.6863 -0.3405  0.2067
 2974TIP3    H130413   3.650   3.010  12.189  0.7708 -1.7972 -2.0598
 2974TIP3    H230414   3.730   2.905  12.263  1.2527 -0.3934 -0.5225
 2975TIP3   OH230415   1.061   4.714  11.649 -0.0238 -0.0379 -0.4096
 2975TIP3    H130416   1.124   4.715  11.577 -0.0493 -0.2725 -0.4369
 2975TIP3    H230417   1.113   4.734  11.727 -0.0586  0.5792 -0.5367
 2976TIP3   OH230418   3.418   3.512  13.669  0.8270  0.4882  0.4969
 2976TIP3    H130419   3.436   3.449  13.739 -0.8059  0.3429  0.8293
 2976TIP3    H230420   3.443   3.467  13.589  1.3692  0.1051  0.8752
 2977TIP3   OH230421   4.220   5.158   2.913 -0.1390  0.3038  0.0570
 2977TIP3    H130422   4.151   5.216   2.947 -1.5990 -1.7263  0.8252
 2977TIP3    H230423   4.287   5.158   2.982 -1.4071 -0.9599  1.3842
 2978TIP3   OH230424   0.378   0.864   2.225  0.3945  0.0742  0.1938
 2978TIP3    H130425   0.319   0.918   2.277 -1.2311 -3.0590  1.8773
 2978TIP3    H230426   0.418   0.804   2.287  0.1072 -2.3707 -1.8067
 2979TIP3   OH230427   3.626   3.265   5.776 -0.1193  0.1727 -0.1137
 2979TIP3    H130428   3.583   3.273   5.861 -1.5293 -0.9952 -0.6686
 2979TIP3    H230429   3.606   3.347   5.731 -0.4216  0.2875  0.2291
 2980TIP3   OH230430   6.001   5.394   3.891 -0.0369  0.0693 -0.4012
 2980TIP3    H130431   6.059   5.467   3.870 -1.4940  2.1735  2.2355
 2980TIP3    H230432   6.054   5.334   3.943  0.7559 -0.0252 -1.2883
 2981TIP3   OH230433   0.347   1.653   2.177  0.2292 -0.6519  0.2872
 2981TIP3    H130434   0.292   1.582   2.210  2.5854 -2.6333  0.2147
 2981TIP3    H230435   0.418   1.661   2.240  0.6233  0.9249 -0.2938
 2982TIP3   OH230436   6.386   5.974   1.495  0.1122  0.6237 -0.3504
 2982TIP3    H130437   6.417   6.065   1.502  0.0035  0.5529  2.3992
 2982TIP3    H230438   6.291   5.981   1.502  0.0744  0.3442 -0.5966
 2983TIP3   OH230439   5.017   0.145   1.081 -0.6031 -0.2623  0.4519
 2983TIP3    H130440   4.950   0.208   1.106  0.1203  0.1968  1.2893
 2983TIP3    H230441   5.043   0.171   0.993 -1.9833 -0.8566 -0.1515
 2984TIP3   OH230442   2.124   0.246  15.752 -0.1502  0.1284 -0.6149
 2984TIP3    H130443   2.048   0.291  15.788 -0.3018  1.3452 -2.3650
 2984TIP3    H230444   2.172   0.313  15.703  1.4648 -0.8590 -0.4856
 2985TIP3   OH230445   6.104   3.304   2.002 -0.5728 -0.6484 -0.1846
 2985TIP3    H130446   6.166   3.239   1.967  1.0126 -0.1600  1.5397
 2985TIP3    H230447   6.032   3.305   1.939  1.3935 -0.8866 -2.5870
 2986TIP3   OH230448   3.170   5.084   2.686  0.2120  0.1844  0.0512
 2986TIP3    H130449   3.149   5.120   2.600  3.3298  0.8276 -0.5483
 2986TIP3    H230450   3.212   5.156   2.733  0.7681 -0.8619  1.2246
 2987TIP3   OH230451   6.047   3.037  15.805  0.2854 -0.5721  0.1159
 2987TIP3    H130452   6.117   3.101  15.790  1.1564 -1.1655  1.4390
 2987TIP3    H230453   6.049   2.980  15.728 -0.4984  0.9417 -1.0773
 2988TIP3   OH230454   6.292   1.689  12.895 -0.2481 -0.2187  0.2272
 2988TIP3    H130455   6.248   1.633  12.831 -0.7496  0.2350  0.1712
 2988TIP3    H230456   6.373   1.715  12.853  0.1748 -1.2106  0.3998
 2989TIP3   OH230457   0.744   6.157  12.572  0.0682 -0.1210  0.3476
 2989TIP3    H130458   0.682   6.191  12.637  0.5366 -0.0484  0.7593
 2989TIP3    H230459   0.729   6.063  12.571  3.1499 -0.8733  3.9584
 2990TIP3   OH230460   4.685   3.600   2.248 -0.1512  0.0504 -0.1383
 2990TIP3    H130461   4.618   3.533   2.233  0.5320 -0.2793 -2.0415
 2990TIP3    H230462   4.641   3.682   2.226 -0.5626  0.0797  0.7691
 2991TIP3   OH230463   0.680   4.425   0.483  0.3911 -0.7081  0.4683
 2991TIP3    H130464   0.727   4.463   0.558  1.9383 -1.7540  0.0773
 2991TIP3    H230465   0.749   4.402   0.421 -0.8038 -0.7237 -0.8917
 2992TIP3   OH230466   4.659   4.839   4.328 -0.2125  0.0901  0.0053
 2992TIP3    H130467   4.615   4.773   4.274  2.1231 -1.4674 -0.1548
 2992TIP3    H230468   4.627   4.823   4.417 -2.0929  0.9314 -0.4727
 2993TIP3   OH230469   1.977   3.533  14.470 -0.2677  0.7952 -0.2299
 2993TIP3    H130470   2.031   3.606  14.500 -1.7124  2.3147 -1.1620
 2993TIP3    H230471   1.888   3.557  14.493 -1.0291  0.3689 -2.4762
 2994TIP3   OH230472   3.244   3.297   4.772  0.0983 -0.1445  0.2464
 2994TIP3    H130473   3.333   3.264   4.760 -0.0087 -0.4229  0.2016
 2994TIP3    H230474   3.200   3.277   4.688  0.3814  1.2360 -0.2438
 2995TIP3   OH230475   0.319   0.870   5.566  0.0309  0.0809  0.3481
 2995TIP3    H130476   0.331   0.958   5.530 -1.1210 -0.7952 -2.4990
 2995TIP3    H230477   0.394   0.821   5.532  0.0122 -0.3256  0.8957
 2996TIP3   OH230478   0.907   0.857   0.557 -0.4926 -0.4954  0.2484
 2996TIP3    H130479   0.954   0.879   0.638 -3.2694 -0.5124  2.0160
 2996TIP3    H230480   0.895   0.762   0.562 -0.9856 -0.4499  0.0162
 2997TIP3   OH230481   5.957   0.931  13.339  0.3197 -0.4472 -0.1055
 2997TIP3    H130482   5.865   0.951  13.321  0.2642 -1.4292 -0.9740
 2997TIP3    H230483   5.999   0.931  13.253  1.2515  0.4964  0.3212
 2998TIP3   OH230484   0.700   4.822  12.131  0.4902  0.2106 -0.6523
 2998TIP3    H130485   0.623   4.869  12.163  0.4452  1.0354 -1.8696
 2998TIP3    H230486   0.767   4.890  12.123  1.1605 -0.3928 -0.1633
 2999TIP3   OH230487   4.073   5.304  13.863 -0.2018 -0.3478  0.0368
 2999TIP3    H130488   4.035   5.321  13.777  1.2314 -2.3124 -1.0683
 2999TIP3    H230489   4.166   5.327  13.854  0.3485 -2.1738  0.4715
 3000TIP3   OH230490   6.837   2.538  12.891 -0.0486  0.2667 -0.7550
 3000TIP3    H130491   6.808   2.463  12.839  2.0183 -0.9967 -0.2166
 3000TIP3    H230492   6.795   2.526  12.976 -0.6269  0.3580 -1.0261
 3001TIP3   OH230493   0.601   4.954   3.080  0.1618 -0.0925 -0.6937
 3001TIP3    H130494   0.526   4.903   3.049  1.6091 -2.4008 -0.6519
 3001TIP3    H230495   0.631   5.001   3.003 -0.4112 -0.3711 -1.0943
 3002TIP3   OH230496   0.166   0.849   0.112  0.0356  0.1692  0.1312
 3002TIP3    H130497   0.136   0.915   0.050  0.4948  0.3221  0.0673
 3002TIP3    H230498   0.211   0.899   0.180  0.9900 -0.1241 -0.2673
 3003TIP3   OH230499   0.581   5.672   1.297 -0.2022  0.0057  0.0219
 3003TIP3    H130500   0.540   5.610   1.237 -1.0778  0.7311 -0.1528
 3003TIP3    H230501   0.549   5.757   1.269 -1.4255  0.3063  2.1206
 3004TIP3   OH230502   1.139   2.710   3.168  0.0346 -0.5099 -0.1136
 3004TIP3    H130503   1.154   2.617   3.152  1.4415 -0.2809 -0.2666
 3004TIP3    H230504   1.045   2.722   3.153 -0.1664 -1.8971 -0.0872
 3005TIP3   OH230505   1.601   2.107   2.852 -0.2440 -0.0538  0.2919
 3005TIP3    H130506   1.641   2.034   2.898  1.6551  0.1964 -0.8631
 3005TIP3    H230507   1.663   2.179   2.863 -2.3950  1.6898  2.0376
 3006TIP3   OH230508   1.053   6.830   4.060 -0.0167  0.6653 -0.1292
 3006TIP3    H130509   0.979   6.792   4.108 -0.0198  1.0719  0.1829
 3006TIP3    H230510   1.129   6.781   4.090 -0.1492  0.2671 -0.4278
 3007TIP3   OH230511   6.621   1.613   4.986 -0.2777  0.7240 -0.2171
 3007TIP3    H130512   6.692   1.650   5.039  1.5857 -2.2438 -0.4379
 3007TIP3    H230513   6.662   1.594   4.901 -1.8480  0.6210 -0.9820
 3008TIP3   OH230514   5.748   5.475   2.815 -0.0119 -0.1722 -0.4064
 3008TIP3    H130515   5.671   5.428   2.785 -2.3184  1.5881  2.2533
 3008TIP3    H230516   5.749   5.463   2.910  1.5531  1.8454 -0.0878
 3009TIP3   OH230517   0.791   3.430  16.045 -0.5604 -0.1321 -0.0693
 3009TIP3    H130518   0.809   3.523  16.061 -1.8570  0.4243 -1.6653
 3009TIP3    H230519   0.808   3.388  16.130  0.2621  1.5143  0.6240
 3010TIP3   OH230520   3.938   5.978  13.782  0.4813 -0.0750 -0.7075
 3010TIP3    H130521   3.970   5.890  13.800 -1.9068 -0.6239  1.7400
 3010TIP3    H230522   3.919   5.979  13.689  0.5395 -2.1886 -0.7845
 3011TIP3   OH230523   1.030   2.000  11.405 -0.3114  0.0573  0.1166
 3011TIP3    H130524   1.070   2.047  11.331 -0.4374  0.6672  0.4241
 3011TIP3    H230525   0.937   2.000  11.386 -0.1215 -2.2853 -1.1208
 3012TIP3   OH230526   2.686   4.629   0.448  0.9490  0.4300 -0.2429
 3012TIP3    H130527   2.602   4.608   0.489  0.6975  1.7900 -0.0348
 3012TIP3    H230528   2.704   4.555   0.390  0.5815 -0.8247  1.1862
 3013TIP3   OH230529   3.171   2.130  16.478 -0.0379 -0.0589 -0.3826
 3013TIP3    H130530   3.199   2.216  16.446  0.8052 -0.0491  0.3417
 3013TIP3    H230531   3.079   2.142  16.501 -0.1618  0.4135 -1.0837
 3014TIP3   OH230532   3.165   3.330  15.442 -0.5545 -0.1275  1.1186
 3014TIP3    H130533   3.253   3.351  15.473 -0.6067 -1.0920  2.0045
 3014TIP3    H230534   3.174   3.242  15.406 -1.0036  0.0722  0.5172
 3015TIP3   OH230535   5.793   1.284  11.045  0.3010 -0.3962  0.4069
 3015TIP3    H130536   5.749   1.199  11.037  1.0853 -0.6503 -1.8116
 3015TIP3    H230537   5.818   1.288  11.138  0.2305 -2.6037  0.5923
 3016TIP3   OH230538   5.799   0.495  12.574  0.3471  0.1700  0.3713
 3016TIP3    H130539   5.840   0.418  12.534  1.1587  0.7118  0.1137
 3016TIP3    H230540   5.873   0.551  12.597 -0.1699  0.3313  1.6959
 3017TIP3   OH230541   5.912   6.038  16.042  0.2486 -0.1975 -0.3412
 3017TIP3    H130542   5.862   6.035  15.960 -0.4169 -0.8668  0.0777
 3017TIP3    H230543   5.999   6.069  16.016 -0.5814  1.7382 -0.9900
 3018TIP3   OH230544   4.039   6.062  13.271 -0.1187  0.4404  0.2203
 3018TIP3    H130545   3.985   6.138  13.251  1.0490  0.9909 -0.9673
 3018TIP3    H230546   4.099   6.093  13.339  1.4798  1.1646 -1.4288
 3019TIP3   OH230547   2.020   5.561  13.127 -0.0596  0.3434  0.0131
 3019TIP3    H130548   1.992   5.496  13.191 -0.7746  0.5231 -0.1081
 3019TIP3    H230549   2.111   5.579  13.149  0.2933 -1.0552 -0.2530
 3020TIP3   OH230550   5.488   2.931  15.841  0.4624 -0.6267  0.8538
 3020TIP3    H130551   5.555   2.876  15.800 -0.4594 -1.1959  0.0721
 3020TIP3    H230552   5.459   2.989  15.771  0.6995  0.1715  1.4057
 3021TIP3   OH230553   0.045   3.572  12.174 -0.7280  0.1051 -0.2567
 3021TIP3    H130554   0.037   3.636  12.246  0.1554  0.6826 -0.6524
 3021TIP3    H230555   0.005   3.492  12.209  1.2457 -0.1816  1.5751
 3022TIP3   OH230556   3.882   3.778  14.553 -0.2598  0.9666 -1.0903
 3022TIP3    H130557   3.862   3.820  14.470  0.7763  0.6241 -1.5254
 3022TIP3    H230558   3.891   3.850  14.615 -1.6157  1.2003 -1.1162
 3023TIP3   OH230559   1.127   3.346  10.580  0.2110 -0.1540  0.1557
 3023TIP3    H130560   1.084   3.387  10.655 -1.5789 -0.0397 -0.8625
 3023TIP3    H230561   1.099   3.254  10.584 -0.0175 -0.1143 -0.4359
 3024TIP3   OH230562   2.042   2.283  13.301 -0.2310  0.7179  0.1026
 3024TIP3    H130563   1.989   2.361  13.319  2.5690  2.1316  3.2512
 3024TIP3    H230564   1.989   2.210  13.333 -2.1036  1.4506 -1.1301
 3025TIP3   OH230565   5.425   2.217  13.928  0.6204 -0.4856 -0.2750
 3025TIP3    H130566   5.409   2.237  14.020 -1.4691 -1.2890 -0.3933
 3025TIP3    H230567   5.339   2.227  13.886  1.8957  1.9867 -2.6101
 3026TIP3   OH230568   0.010   5.937  13.525 -0.6520 -0.2243  0.2067
 3026TIP3    H130569  -0.042   5.884  13.586  0.4673 -1.8781 -0.1818
 3026TIP3    H230570   0.079   5.975  13.579 -2.0316  1.7693  0.6757
 3027TIP3   OH230571   5.926   5.973  16.465  0.5785  0.3207 -0.2817
 3027TIP3    H130572   5.852   6.021  16.504  2.2291  0.6424  2.7542
 3027TIP3    H230573   5.985   6.041  16.434  0.0915  0.0703 -1.8467
 3028TIP3   OH230574   6.221   4.537   4.942 -0.8802 -0.6723 -0.1429
 3028TIP3    H130575   6.221   4.575   5.029  0.4750 -0.3398 -0.2635
 3028TIP3    H230576   6.256   4.606   4.885 -1.4382 -0.9914 -0.8903
 3029TIP3   OH230577   3.791   3.441  12.410  0.1122  0.1851  0.2107
 3029TIP3    H130578   3.696   3.440  12.406  0.0624  1.3136  0.7215
 3029TIP3    H230579   3.819   3.381  12.341 -0.9530  0.0827 -0.1453
 3030TIP3   OH230580   1.963   0.675  13.675 -0.0812  0.0914 -0.5826
 3030TIP3    H130581   1.992   0.679  13.583  0.2772  0.0664 -0.4726
 3030TIP3    H230582   2.041   0.648  13.723 -0.2410  0.2111 -0.2546
 3031TIP3   OH230583   5.581   2.149   3.295 -0.0982 -0.3855  0.0593
 3031TIP3    H130584   5.564   2.132   3.202 -1.0169 -1.9803  0.4625
 3031TIP3    H230585   5.637   2.076   3.322 -0.2736 -0.2213  0.8691
 3032TIP3   OH230586   1.954   4.092   3.833  0.9133  0.1366  0.1930
 3032TIP3    H130587   1.996   4.102   3.748 -1.2443  0.8810 -0.8413
 3032TIP3    H230588   1.921   4.002   3.833 -0.7451  0.7194 -0.5860
 3033TIP3   OH230589   0.141   3.400   3.283 -0.1129 -0.3223  0.4724
 3033TIP3    H130590   0.123   3.455   3.207  1.0551  0.1301  0.4964
 3033TIP3    H230591   0.143   3.311   3.249 -1.1091 -0.2772  0.2639
 3034TIP3   OH230592   5.084   1.753  12.065 -0.1229  0.1431 -0.4381
 3034TIP3    H130593   5.059   1.765  11.974  2.6598  0.4185 -1.2714
 3034TIP3    H230594   5.043   1.670  12.091 -3.8359  1.6970 -0.7211
 3035TIP3   OH230595   2.046   1.826  12.233  0.0241  0.2667  0.6612
 3035TIP3    H130596   2.021   1.805  12.143 -0.6254  1.1084  0.6410
 3035TIP3    H230597   2.129   1.873  12.224  1.1356 -1.5873  0.6618
 3036TIP3   OH230598   6.571   4.925  13.156  0.0807  0.1776  0.0912
 3036TIP3    H130599   6.592   4.996  13.097  1.0016  0.1703  0.4012
 3036TIP3    H230600   6.521   4.966  13.226 -0.2346  0.3414 -0.2264
 3037TIP3   OH230601   3.259   5.310   1.835 -0.0344  0.5348  0.4139
 3037TIP3    H130602   3.299   5.278   1.754 -3.7263  0.2843 -1.4926
 3037TIP3    H230603   3.252   5.405   1.823 -1.7657  0.3588 -0.2269
 3038TIP3   OH230604   1.204   4.834   6.117  0.3399 -0.2871  0.2045
 3038TIP3    H130605   1.286   4.839   6.068 -0.4038  1.0330 -0.9988
 3038TIP3    H230606   1.194   4.742   6.139  1.4793 -0.6715 -0.7855
 3039TIP3   OH230607   4.241   1.104  16.807 -0.8983  0.4026 -0.3148
 3039TIP3    H130608   4.255   1.096  16.712 -0.8852  1.1491 -0.3761
 3039TIP3    H230609   4.218   1.015  16.835 -0.8569  0.1679 -1.0116
 3040TIP3   OH230610   4.014   3.003   5.656 -0.4563 -0.9505  0.0977
 3040TIP3    H130611   4.063   2.922   5.640  1.2411 -0.1722  1.1134
 3040TIP3    H230612   4.079   3.072   5.649 -1.2446  0.0768  2.1872
 3041TIP3   OH230613   0.557   5.583   2.493 -0.0474  0.3923  0.1145
 3041TIP3    H130614   0.564   5.562   2.586  3.0597  0.1916 -0.0683
 3041TIP3    H230615   0.606   5.513   2.449 -1.0840  0.7251 -1.6612
 3042TIP3   OH230616   0.787   0.476  11.374  0.1655  0.0652  0.7251
 3042TIP3    H130617   0.731   0.471  11.297 -0.8339 -1.6574  1.5080
 3042TIP3    H230618   0.856   0.411  11.357  0.8678  0.8291  0.5979
 3043TIP3   OH230619   3.125   5.913   3.269  0.3289  0.4115  0.8955
 3043TIP3    H130620   3.056   5.861   3.310 -0.2139  0.8931  0.6049
 3043TIP3    H230621   3.082   5.995   3.245  0.3161 -0.2755 -1.7321
 3044TIP3   OH230622   5.604   6.802   4.839  0.0730  0.3992 -0.0180
 3044TIP3    H130623   5.510   6.810   4.850 -0.1076 -2.0192  0.8078
 3044TIP3    H230624   5.641   6.844   4.916 -0.6160 -2.8724  2.3004
 3045TIP3   OH230625   1.647   6.553  12.699  0.6371  0.3324  0.1040
 3045TIP3    H130626   1.709   6.607  12.748 -1.6383  2.4413  0.8994
 3045TIP3    H230627   1.600   6.504  12.766  0.8400 -0.6049 -0.4209
 3046TIP3   OH230628   6.274   3.234   3.689 -0.3639 -0.1754 -0.0118
 3046TIP3    H130629   6.360   3.245   3.728 -0.5215  0.5115  0.1679
 3046TIP3    H230630   6.213   3.229   3.763 -0.3100 -2.6341 -0.0661
 3047TIP3   OH230631   6.297   6.597  10.758  0.1665  0.5435 -0.0342
 3047TIP3    H130632   6.301   6.541  10.835  1.6217  0.2850 -0.2850
 3047TIP3    H230633   6.229   6.557  10.703  0.3316 -0.2640  0.3375
 3048TIP3   OH230634   1.768   4.587  14.663 -0.3827  0.0556  1.1969
 3048TIP3    H130635   1.727   4.502  14.648  0.0220  0.1642 -0.7933
 3048TIP3    H230636   1.768   4.630  14.578  1.9748  0.8977  1.5189
 3049TIP3   OH230637   1.794   5.253   5.706 -0.2729  0.2971  0.7600
 3049TIP3    H130638   1.855   5.181   5.691 -1.3630 -0.4052 -0.4235
 3049TIP3    H230639   1.851   5.329   5.719  0.8661 -0.4230  0.1737
 3050TIP3   OH230640   0.144   4.278  16.781 -0.0748 -0.0637 -0.0765
 3050TIP3    H130641   0.202   4.203  16.770 -1.5415 -1.0936 -1.1213
 3050TIP3    H230642   0.167   4.337  16.709  0.1111 -0.1571 -0.0940
 3051TIP3   OH230643   6.739   0.435  10.732 -0.1038  0.0040  0.3075
 3051TIP3    H130644   6.702   0.405  10.649  1.2783  0.1748 -0.3825
 3051TIP3    H230645   6.665   0.429  10.793 -0.9834 -0.7204 -0.7700
 3052TIP3   OH230646   6.829   4.086   5.422 -0.6043  0.2778  0.6509
 3052TIP3    H130647   6.881   4.160   5.451 -0.2066  0.3274 -0.1573
 3052TIP3    H230648   6.785   4.055   5.501  1.4245 -0.4015  1.5907
 3053TIP3   OH230649   4.326   0.629   3.641 -0.3400  0.0895 -0.1477
 3053TIP3    H130650   4.295   0.699   3.582 -1.3592 -1.7742 -1.9501
 3053TIP3    H230651   4.245   0.595   3.680  0.1312 -0.2557  0.5271
 3054TIP3   OH230652   1.554   1.264  12.209 -0.4579  0.1284  0.7531
 3054TIP3    H130653   1.600   1.344  12.236 -0.1668  0.1521  0.1949
 3054TIP3    H230654   1.616   1.193  12.226 -0.7477  0.0078  1.3278
 3055TIP3   OH230655   0.519   4.427  12.752 -0.0815 -0.5839 -0.5449
 3055TIP3    H130656   0.481   4.502  12.799  0.9701  0.2861 -1.0175
 3055TIP3    H230657   0.512   4.451  12.660  1.7842 -0.2469 -0.6474
 3056TIP3   OH230658   1.287   2.902  12.198  0.7717  0.3190 -0.5805
 3056TIP3    H130659   1.331   2.856  12.126 -0.5589 -2.1406  0.0837
 3056TIP3    H230660   1.353   2.907  12.267  0.1403 -3.6540  0.5439
 3057TIP3   OH230661   2.503   1.007   6.302 -0.6944 -0.1856  0.0940
 3057TIP3    H130662   2.585   1.005   6.351  0.4081 -1.6624 -1.6803
 3057TIP3    H230663   2.467   0.919   6.313 -0.0413 -0.8129 -2.2416
 3058TIP3   OH230664   4.997   6.133   0.601 -0.2989  0.5373 -0.1957
 3058TIP3    H130665   5.057   6.201   0.569  0.6487 -0.2916 -0.2283
 3058TIP3    H230666   4.926   6.133   0.537  0.2079  0.7953 -0.7740
 3059TIP3   OH230667   6.876   3.024   5.467 -0.1503  0.3912 -0.5980
 3059TIP3    H130668   6.922   3.098   5.508  0.7267  0.1307 -1.1066
 3059TIP3    H230669   6.842   3.060   5.385  2.0006 -0.2632 -1.8326
 3060TIP3   OH230670   0.983   2.126   5.773  0.1835  0.3143  0.1781
 3060TIP3    H130671   1.012   2.052   5.827 -1.5469  0.3298  1.1862
 3060TIP3    H230672   0.966   2.087   5.687 -0.9436 -0.5359  0.7636
 3061TIP3   OH230673   2.151   0.344  14.210 -0.0519 -1.1506 -0.4550
 3061TIP3    H130674   2.058   0.330  14.192  0.0270 -1.5569 -0.5755
 3061TIP3    H230675   2.190   0.364  14.125 -0.2223  0.2219 -0.2297
 3062TIP3   OH230676   2.396   1.808  15.599  0.3973  0.3749 -0.2741
 3062TIP3    H130677   2.310   1.801  15.641  0.6057 -0.0526  0.0912
 3062TIP3    H230678   2.424   1.717  15.586  0.5879  0.5119 -0.8190
 3063TIP3   OH230679   6.181   6.073   3.908  0.4722 -0.1568  0.1917
 3063TIP3    H130680   6.106   6.125   3.881  0.8093  0.5509  0.5809
 3063TIP3    H230681   6.199   6.102   3.998  0.4635 -1.1895  0.5484
 3064TIP3   OH230682   2.965   5.499   4.493  0.0536  0.5306 -0.0497
 3064TIP3    H130683   2.877   5.504   4.456 -0.2904  1.0895  0.7994
 3064TIP3    H230684   2.951   5.506   4.588  0.9927  0.3402  0.1132
 3065TIP3   OH230685   0.279   3.087  14.412  0.2972  0.3859  0.1142
 3065TIP3    H130686   0.335   3.020  14.375 -2.0243 -1.6986  0.1120
 3065TIP3    H230687   0.243   3.048  14.491 -0.1355  2.1417  0.8410
 3066TIP3   OH230688   1.097   4.942  15.131  0.3148 -0.8794  0.0756
 3066TIP3    H130689   1.017   4.985  15.160 -0.0058 -0.4802 -1.3221
 3066TIP3    H230690   1.168   4.992  15.170 -0.0857  0.0321 -0.3476
 3067TIP3   OH230691   5.082   1.988  12.900 -0.1940  0.6430  0.2750
 3067TIP3    H130692   5.162   1.987  12.952 -0.0168  0.2698  0.0044
 3067TIP3    H230693   5.020   1.935  12.951 -0.3455  1.1299  0.5987
 3068TIP3   OH230694   3.590   5.490  16.632 -0.4953  0.4471  0.1756
 3068TIP3    H130695   3.661   5.550  16.653  0.5621 -0.9449  0.7334
 3068TIP3    H230696   3.545   5.475  16.716 -1.4020  1.2307 -0.1512
 3069TIP3   OH230697   1.899   0.161   4.455 -0.0292  0.3297 -0.2101
 3069TIP3    H130698   1.961   0.106   4.407 -0.6381  0.9907 -1.8461
 3069TIP3    H230699   1.903   0.245   4.410 -2.4843  0.2308 -0.7415
 3070TIP3   OH230700   2.155   2.567  13.977  0.3744  0.0497  0.0362
 3070TIP3    H130701   2.146   2.631  14.048  0.1822  0.0249  0.0352
 3070TIP3    H230702   2.127   2.614  13.899 -2.1067 -0.7301  0.3864
 3071TIP3   OH230703   5.043   2.957  11.603 -0.4056  0.3661 -0.5677
 3071TIP3    H130704   5.065   2.879  11.654  0.6978  0.3197 -1.0940
 3071TIP3    H230705   5.023   2.923  11.516  0.1296  0.6685 -0.8132
 3072TIP3   OH230706   1.963   3.084  14.120  0.1683 -0.0573 -0.2844
 3072TIP3    H130707   2.024   3.070  14.192 -0.5246 -1.4379  0.0491
 3072TIP3    H230708   1.880   3.103  14.162 -0.0636 -0.0827 -0.7295
 3073TIP3   OH230709   5.785   5.383   1.175  0.0331 -0.2289  0.4321
 3073TIP3    H130710   5.817   5.463   1.134 -1.5064 -0.6436 -1.7004
 3073TIP3    H230711   5.745   5.412   1.257  0.4422  1.0331  0.2019
 3074TIP3   OH230712   4.820   3.274   3.580 -0.4247  0.2050  0.0965
 3074TIP3    H130713   4.817   3.264   3.675 -2.2106 -0.6205  0.0043
 3074TIP3    H230714   4.731   3.299   3.556 -0.1857 -0.2697 -1.4105
 3075TIP3   OH230715   3.599   5.612   4.936 -0.3988 -0.5125 -0.5810
 3075TIP3    H130716   3.592   5.706   4.947  0.9200 -0.1383 -2.3349
 3075TIP3    H230717   3.512   5.583   4.909 -2.2366 -0.6905  4.5238
 3076TIP3   OH230718   4.940   5.554  12.790 -0.3089  0.5523  0.2995
 3076TIP3    H130719   4.930   5.471  12.744  1.5872 -0.3059  1.2969
 3076TIP3    H230720   4.995   5.607  12.732  0.2775  0.2860  0.6065
 3077TIP3   OH230721   5.166   2.709   1.128  0.6412 -0.0799 -0.0378
 3077TIP3    H130722   5.168   2.647   1.200 -1.5439  0.2498  0.3632
 3077TIP3    H230723   5.190   2.657   1.051  0.3834 -1.0420  0.5206
 3078TIP3   OH230724   3.355   6.605   1.147  0.6623 -0.0538 -0.5174
 3078TIP3    H130725   3.353   6.688   1.101 -0.8280 -0.1595 -0.7083
 3078TIP3    H230726   3.289   6.614   1.216  0.0307 -1.2653 -0.9227
 3079TIP3   OH230727   6.493   0.469  12.015 -0.3335 -0.0791  0.2426
 3079TIP3    H130728   6.553   0.400  11.989 -1.2477 -0.2620 -1.5253
 3079TIP3    H230729   6.485   0.525  11.938 -1.0072  0.9791  1.0493
 3080TIP3   OH230730   3.021   1.254   2.026 -0.3341 -0.0886  0.4257
 3080TIP3    H130731   2.947   1.207   1.988  0.1663 -0.1371 -0.5295
 3080TIP3    H230732   3.083   1.184   2.049  0.0093  0.0271 -0.1166
 3081TIP3   OH230733   4.823   6.277   1.411 -0.1878 -0.3803 -0.1379
 3081TIP3    H130734   4.899   6.219   1.421 -1.3145 -1.8518  0.2997
 3081TIP3    H230735   4.805   6.309   1.500  0.6350  0.9681 -0.4278
 3082TIP3   OH230736   5.249   6.212  15.142  0.0447  0.4411  0.4170
 3082TIP3    H130737   5.246   6.187  15.234 -0.1782 -0.2266  0.2374
 3082TIP3    H230738   5.174   6.270  15.130 -1.9511 -2.0667 -0.0499
 3083TIP3   OH230739   3.880   1.408   4.165 -0.3912  0.4591  0.2045
 3083TIP3    H130740   3.843   1.320   4.161  0.2410  0.2373 -1.4911
 3083TIP3    H230741   3.805   1.465   4.179 -1.1813 -0.1468 -1.3206
 3084TIP3   OH230742   5.748   0.737  16.476  0.4522 -0.5828  0.4087
 3084TIP3    H130743   5.748   0.731  16.380 -0.2299 -3.4114  0.4820
 3084TIP3    H230744   5.817   0.677  16.503  0.6568  0.2057  1.7182
 3085TIP3   OH230745   5.275   5.942  16.343  0.8364 -0.2988  0.2050
 3085TIP3    H130746   5.367   5.966  16.343  1.2328 -1.5981  2.1205
 3085TIP3    H230747   5.254   5.926  16.251  2.1068  1.3517 -0.4194
 3086TIP3   OH230748   6.333   4.356  14.421  0.1307 -0.2453  0.0798
 3086TIP3    H130749   6.293   4.433  14.380  1.5443 -0.4239 -1.7401
 3086TIP3    H230750   6.413   4.388  14.462 -0.3712 -0.3901  1.2030
 3087TIP3   OH230751   1.244   4.116   2.522 -0.1957 -0.4225 -0.4095
 3087TIP3    H130752   1.259   4.103   2.428  0.5997 -1.4440 -0.1572
 3087TIP3    H230753   1.306   4.056   2.564  0.3089  0.8958  0.7844
 3088TIP3   OH230754   5.277   3.989  15.649 -0.3578 -0.3037 -0.1581
 3088TIP3    H130755   5.191   3.984  15.607  0.1202  0.6220 -1.2917
 3088TIP3    H230756   5.327   3.919  15.607 -0.1172  0.1172 -0.5838
 3089TIP3   OH230757   1.105   5.984  14.561 -0.0238  0.0072  0.0224
 3089TIP3    H130758   1.027   6.019  14.519 -1.1366  1.6837  3.1616
 3089TIP3    H230759   1.146   6.060  14.603 -0.7068 -1.6854  4.3627
 3090TIP3   OH230760   3.890   5.165  12.932 -0.2543  0.3560 -0.4516
 3090TIP3    H130761   3.922   5.241  12.981 -0.5486  1.3972 -1.7990
 3090TIP3    H230762   3.795   5.171  12.940 -0.2773  0.0926 -0.5299
 3091TIP3   OH230763   5.191   1.322   0.808  0.0878 -0.1386 -0.8518
 3091TIP3    H130764   5.112   1.341   0.757  0.3216  2.4908 -0.4042
 3091TIP3    H230765   5.200   1.227   0.805 -4.4969 -0.8801  1.2212
 3092TIP3   OH230766   0.661   3.992  16.279  0.2012 -0.2337  0.3398
 3092TIP3    H130767   0.719   4.051  16.232 -0.9739  0.5079 -0.2146
 3092TIP3    H230768   0.686   3.904  16.249 -0.9970  0.2414 -2.2743
 3093TIP3   OH230769   6.261   0.325  13.050  0.2185 -0.2277  0.5439
 3093TIP3    H130770   6.286   0.235  13.070  1.3863 -0.3694 -1.2518
 3093TIP3    H230771   6.334   0.378  13.080  0.3315 -0.0781  0.0223
 3094TIP3   OH230772   6.146   1.517  13.077  0.1564  0.2987 -0.4861
 3094TIP3    H130773   6.198   1.570  13.017  1.5262 -1.5439 -1.0116
 3094TIP3    H230774   6.196   1.516  13.159 -0.7213  1.1631  0.0966
 3095TIP3   OH230775   3.767   1.051   4.812 -0.6807  0.4711  0.3233
 3095TIP3    H130776   3.815   1.106   4.874  1.3307 -0.6322 -0.1771
 3095TIP3    H230777   3.789   1.086   4.726  1.2331 -1.4471 -0.0547
 3096TIP3   OH230778   5.530   2.316  12.005 -0.5143  0.4377  0.1991
 3096TIP3    H130779   5.593   2.326  11.934 -0.4264  2.4740  0.5025
 3096TIP3    H230780   5.452   2.280  11.962  0.5078 -1.2542 -0.3369
 3097TIP3   OH230781   2.801   4.672  13.373 -0.4471 -0.2365  0.1305
 3097TIP3    H130782   2.772   4.727  13.445 -2.3467  1.6143 -1.8919
 3097TIP3    H230783   2.787   4.726  13.295  1.8664 -1.9882 -1.6147
 3098TIP3   OH230784   0.161   1.487  10.075  0.1110  0.7163 -0.1418
 3098TIP3    H130785   0.135   1.414  10.019 -1.4274  0.7324  0.4961
 3098TIP3    H230786   0.208   1.546  10.017  0.3618 -0.2367 -0.9353
 3099TIP3   OH230787   4.475   0.156   3.004  0.2608 -0.7021  0.2682
 3099TIP3    H130788   4.417   0.149   3.080 -0.1935  1.2656  0.1612
 3099TIP3    H230789   4.534   0.081   3.012 -0.6126 -1.2689  1.8359
 3100TIP3   OH230790   2.685   0.010   2.636  0.1786  0.0919 -0.2908
 3100TIP3    H130791   2.664   0.019   2.543  0.0624  3.4391 -0.0643
 3100TIP3    H230792   2.606   0.042   2.681  1.0387  0.6136  0.8804
 3101TIP3   OH230793   0.242   5.503  13.732  0.3348 -0.1599 -0.1351
 3101TIP3    H130794   0.152   5.532  13.745  0.6892  0.5853  0.7732
 3101TIP3    H230795   0.292   5.547  13.801  0.8428 -3.3282  1.7537
 3102TIP3   OH230796   3.548   2.378  15.322 -0.4651 -0.3169 -0.2922
 3102TIP3    H130797   3.471   2.433  15.311 -0.9624 -0.7381  0.8445
 3102TIP3    H230798   3.594   2.417  15.397 -0.4945 -1.0529  0.1223
 3103TIP3   OH230799   0.054   5.944   3.018  0.0214  0.1944 -0.0555
 3103TIP3    H130800   0.060   5.879   2.948 -0.4140 -1.0301  0.9968
 3103TIP3    H230801   0.099   5.902   3.092  1.7667  2.0414  0.0197
 3104TIP3   OH230802   4.999   4.200   4.336 -0.0920 -0.4817 -0.4775
 3104TIP3    H130803   4.959   4.152   4.264 -0.9030 -0.5063 -0.0227
 3104TIP3    H230804   4.957   4.164   4.415  0.6721 -0.3606 -0.0021
 3105TIP3   OH230805   0.015   5.195   4.418 -0.3189  0.3632 -0.0293
 3105TIP3    H130806   0.093   5.246   4.440  1.0637 -1.2317 -1.0279
 3105TIP3    H230807  -0.044   5.208   4.493 -0.0073  3.2804 -0.1850
 3106TIP3   OH230808   2.420   5.120  12.156  0.1916  0.0256 -0.5904
 3106TIP3    H130809   2.515   5.110  12.161  0.4339  0.2814 -3.3340
 3106TIP3    H230810   2.388   5.083  12.238  2.5715 -1.0442 -0.0549
 3107TIP3   OH230811   4.807   1.292  15.584  0.0284  0.6463 -0.4470
 3107TIP3    H130812   4.870   1.226  15.556 -0.2574  0.7389 -1.3319
 3107TIP3    H230813   4.837   1.319  15.671  1.9364  1.5686 -1.3343
 3108TIP3   OH230814   4.136   6.403   4.889  0.5342  0.2584 -0.2490
 3108TIP3    H130815   4.167   6.312   4.886 -1.1658 -0.3212 -1.5210
 3108TIP3    H230816   4.204   6.449   4.939  0.4601 -2.0656  2.2534
 3109TIP3   OH230817   3.840   6.388  12.658 -0.2108 -0.4066  0.1171
 3109TIP3    H130818   3.788   6.326  12.709  0.3479 -0.0453  1.1578
 3109TIP3    H230819   3.931   6.370  12.683 -0.0223  0.6180  0.2152
 3110TIP3   OH230820   0.905   0.159   4.855 -0.3018  0.5352  0.3478
 3110TIP3    H130821   0.980   0.155   4.913 -1.9145  1.2149  2.6250
 3110TIP3    H230822   0.923   0.233   4.796  1.3278 -0.1177 -0.0117
 3111TIP3   OH230823   6.780   2.840   1.260  0.1097 -0.0794 -0.1351
 3111TIP3    H130824   6.740   2.754   1.246  0.1709 -0.2028  0.4382
 3111TIP3    H230825   6.870   2.830   1.229 -0.0902 -0.0062 -0.7580
 3112TIP3   OH230826   1.502   5.754  11.190 -0.2070 -0.3565  0.3083
 3112TIP3    H130827   1.446   5.705  11.131 -0.6418 -1.8659  1.8912
 3112TIP3    H230828   1.550   5.687  11.239  0.1951  0.8273  1.6101
 3113TIP3   OH230829   0.183   5.599   0.604  0.3910  0.3442  0.3682
 3113TIP3    H130830   0.184   5.534   0.675  0.3393  0.7606  0.7520
 3113TIP3    H230831   0.190   5.546   0.524  0.2774 -0.1408  0.6710
 3114TIP3   OH230832   1.688   1.615   3.595  0.2906 -0.0519 -0.0847
 3114TIP3    H130833   1.783   1.607   3.607  0.3784  2.8924  2.6723
 3114TIP3    H230834   1.676   1.616   3.500  3.1321  0.3123 -0.5370
 3115TIP3   OH230835   5.635   3.972  13.764  0.1226  0.2116 -0.1549
 3115TIP3    H130836   5.600   3.992  13.677  0.6019 -1.7954 -0.8664
 3115TIP3    H230837   5.569   3.915  13.804  0.6606 -0.2349  0.1215
 3116TIP3   OH230838   3.589   1.505   4.068 -0.3546  0.6899 -0.0092
 3116TIP3    H130839   3.549   1.457   4.140  1.1719 -0.8248 -0.1055
 3116TIP3    H230840   3.614   1.589   4.107  2.1276 -0.7678  1.8734
 3117TIP3   OH230841   0.815   0.479  14.078  0.0951  0.0214  0.6300
 3117TIP3    H130842   0.879   0.544  14.107 -0.2544  0.8421 -0.3610
 3117TIP3    H230843   0.732   0.511  14.114  0.1868 -0.9058  1.7049
 3118TIP3   OH230844   2.938   6.531  16.836 -0.1089 -0.1559  0.1745
 3118TIP3    H130845   2.996   6.603  16.811 -0.4916  0.2663  0.4818
 3118TIP3    H230846   2.966   6.506  16.924 -0.0647 -0.2921  0.1230
 3119TIP3   OH230847   2.790   3.042   2.693 -0.4809 -0.1727  0.0305
 3119TIP3    H130848   2.717   3.017   2.637 -1.3023 -0.3567  1.1590
 3119TIP3    H230849   2.795   3.138   2.684  0.3876 -0.3314 -1.5187
 3120TIP3   OH230850   5.111   2.867   3.617 -0.1420 -0.5103  0.1048
 3120TIP3    H130851   5.096   2.899   3.528 -2.1717  3.2181  1.5240
 3120TIP3    H230852   5.199   2.897   3.639  0.7012 -2.1692 -0.8068
 3121TIP3   OH230853   3.310   4.862   3.756  0.4353  0.6190  0.3885
 3121TIP3    H130854   3.262   4.792   3.712  1.6420  0.8739 -1.4861
 3121TIP3    H230855   3.326   4.828   3.844 -3.6211  0.7987  1.3961
 3122TIP3   OH230856   1.535   3.906   0.203  0.0087 -0.0062  0.3374
 3122TIP3    H130857   1.449   3.867   0.220 -0.9645  2.3612  1.3329
 3122TIP3    H230858   1.537   3.917   0.108  0.1566 -1.9637  0.0590
 3123TIP3   OH230859   4.882   2.618  11.056 -0.3262 -0.1348  0.5062
 3123TIP3    H130860   4.833   2.662  10.987 -0.2932 -0.2071  0.4364
 3123TIP3    H230861   4.860   2.526  11.046 -0.9490 -0.0576  1.0931
 3124TIP3   OH230862   6.536   2.607   1.018  0.0780 -0.3973  0.1096
 3124TIP3    H130863   6.451   2.645   0.996  0.5756  0.5494 -0.2587
 3124TIP3    H230864   6.549   2.630   1.110  0.6817  0.9834 -0.2936
 3125TIP3   OH230865   6.423   5.896   2.759 -0.4571  0.0017  0.1250
 3125TIP3    H130866   6.385   5.834   2.696 -2.2419 -0.5644  1.6721
 3125TIP3    H230867   6.436   5.845   2.839  1.0706  0.8940  0.4906
 3126TIP3   OH230868   2.957   2.643   0.559 -0.1776  0.0403 -0.0338
 3126TIP3    H130869   2.945   2.685   0.474  1.2327  1.7480  0.5522
 3126TIP3    H230870   2.992   2.712   0.616 -0.0981 -1.3161  1.6581
 3127TIP3   OH230871   0.348   5.667  13.920 -0.4721 -0.2544 -0.0563
 3127TIP3    H130872   0.390   5.618  13.990 -1.5858 -2.0790 -0.5653
 3127TIP3    H230873   0.307   5.742  13.963  1.4823  0.4001  0.7264
 3128TIP3   OH230874   3.859   5.181  13.368  0.3205 -0.2893  0.3145
 3128TIP3    H130875   3.788   5.137  13.416  0.6000  0.3160  1.3252
 3128TIP3    H230876   3.863   5.136  13.284  0.8861 -2.4833  1.4406
 3129TIP3   OH230877   0.549   3.678  12.831 -0.2335  0.1106 -0.0417
 3129TIP3    H130878   0.641   3.704  12.825 -0.0100 -0.5769  0.3401
 3129TIP3    H230879   0.550   3.598  12.883 -1.1587  0.7344  0.9797
 3130TIP3   OH230880   4.735   1.978   2.596  0.1419  0.1054 -0.1138
 3130TIP3    H130881   4.675   1.905   2.611 -0.3364  0.5588  0.2452
 3130TIP3    H230882   4.713   2.042   2.664  1.2510  0.1538  0.2185
 3131TIP3   OH230883   6.578   1.164  10.133 -0.2280  0.1164  0.1925
 3131TIP3    H130884   6.502   1.114  10.102 -0.1906 -0.0950  0.4407
 3131TIP3    H230885   6.596   1.129  10.220  1.3187 -1.1631 -0.5960
 3132TIP3   OH230886   3.130   3.122  12.319  0.4803  0.2186 -0.1668
 3132TIP3    H130887   3.205   3.064  12.327 -1.5235 -2.7935 -1.1854
 3132TIP3    H230888   3.154   3.183  12.249  1.4729 -1.6234 -1.5188
 3133TIP3   OH230889   5.683   3.271  10.119 -0.1259 -0.3791 -0.0620
 3133TIP3    H130890   5.771   3.244  10.095 -0.0964 -0.2477 -0.1012
 3133TIP3    H230891   5.648   3.314  10.041 -0.0195  0.0718  0.1336
 3134TIP3   OH230892   6.788   5.587  16.502 -0.0861  0.2521  0.6377
 3134TIP3    H130893   6.848   5.661  16.499  1.0001 -0.5994  0.4395
 3134TIP3    H230894   6.835   5.516  16.457  0.1603 -1.4103  3.2997
 3135TIP3   OH230895   5.525   4.522  16.312 -0.0009 -0.4006  0.6907
 3135TIP3    H130896   5.537   4.430  16.334  0.4824 -0.4124  0.3995
 3135TIP3    H230897   5.485   4.561  16.390 -1.2054 -1.0680  0.4238
 3136TIP3   OH230898   2.664   2.510  13.179  0.0130 -0.2931  0.1475
 3136TIP3    H130899   2.693   2.585  13.127 -1.2641  0.1950  0.0842
 3136TIP3    H230900   2.724   2.439  13.156  0.8243  0.5264 -0.3045
 3137TIP3   OH230901   0.925   0.029   1.561  0.0645 -0.7852 -0.4015
 3137TIP3    H130902   0.853   0.084   1.592  0.0522 -1.9321  1.7554
 3137TIP3    H230903   1.004   0.076   1.585  0.0417 -1.1922  0.5160
 3138TIP3   OH230904   4.673   5.074  15.019  0.0839  0.3705  0.1250
 3138TIP3    H130905   4.605   5.050  15.082  0.0758  0.5574  0.1899
 3138TIP3    H230906   4.686   4.995  14.966  0.1207  0.1991  0.3880
 3139TIP3   OH230907   0.650   4.702  10.986 -0.2175  0.4389  0.3954
 3139TIP3    H130908   0.657   4.644  10.910  0.5117  1.9778 -0.7627
 3139TIP3    H230909   0.561   4.687  11.019 -0.6510 -0.0356 -0.9332
 3140TIP3   OH230910   5.814   5.810  12.473 -0.3271  0.0999  0.4102
 3140TIP3    H130911   5.807   5.813  12.568 -0.0068  0.7964  0.4220
 3140TIP3    H230912   5.794   5.900  12.444  0.1015  0.0280 -0.1363
 3141TIP3   OH230913   2.536   2.094   4.219 -0.3586 -0.6132 -0.1156
 3141TIP3    H130914   2.568   2.065   4.133 -0.6809  0.9231 -0.8013
 3141TIP3    H230915   2.609   2.145   4.255 -0.4983 -0.6197  0.1792
 3142TIP3   OH230916   6.113   6.750   3.023 -0.2730 -0.1639  0.0333
 3142TIP3    H130917   6.172   6.727   2.951 -1.1065 -2.0831 -0.0745
 3142TIP3    H230918   6.171   6.756   3.099  0.2643 -0.5542 -0.3367
 3143TIP3   OH230919   3.062   4.011   1.560  0.1660 -0.3169 -0.2056
 3143TIP3    H130920   3.150   4.018   1.596  0.7809 -0.1792 -1.6853
 3143TIP3    H230921   3.048   4.094   1.514  0.0015 -1.0607 -1.5423
 3144TIP3   OH230922   4.945   3.187  13.093  0.1965  0.2083 -0.3379
 3144TIP3    H130923   4.929   3.100  13.055 -0.5068  0.5084 -0.7516
 3144TIP3    H230924   5.040   3.193  13.100  0.2241 -0.9331  0.4928
 3145TIP3   OH230925   2.031   2.358   4.835 -0.0519  0.4676 -0.7850
 3145TIP3    H130926   2.069   2.445   4.824  0.3762  0.2120 -1.4136
 3145TIP3    H230927   2.106   2.299   4.834 -0.2733  0.1392  0.3739
 3146TIP3   OH230928   3.585   3.677  15.183  0.0894  0.6232 -0.2940
 3146TIP3    H130929   3.500   3.653  15.219 -0.3183 -0.3758 -1.8029
 3146TIP3    H230930   3.602   3.765  15.215 -0.8111  0.2587  1.2357
 3147TIP3   OH230931   5.860   2.428   4.895  0.4293  0.3478  0.3336
 3147TIP3    H130932   5.769   2.435   4.868  0.2767  0.9869  0.9964
 3147TIP3    H230933   5.864   2.471   4.981  1.1088 -0.7457  0.8705
 3148TIP3   OH230934   2.616   4.562   1.046  0.4523 -0.2178 -0.0819
 3148TIP3    H130935   2.529   4.602   1.052  1.5510  2.2828  0.2816
 3148TIP3    H230936   2.617   4.522   0.959 -1.2671 -0.8552  0.1558
 3149TIP3   OH230937   5.273   5.465  15.236 -0.1373  0.2031 -0.2099
 3149TIP3    H130938   5.269   5.420  15.321  1.0861  0.2583 -0.1152
 3149TIP3    H230939   5.223   5.409  15.177  1.3391 -1.2878 -0.0895
 3150TIP3   OH230940   1.204   5.224  12.437 -0.6164  0.1601 -0.2830
 3150TIP3    H130941   1.243   5.194  12.355  1.6374 -0.0809  0.8063
 3150TIP3    H230942   1.238   5.313  12.448 -0.0852 -0.1660  0.8497
 3151TIP3   OH230943   5.917   1.185   2.607  0.2836  0.1211 -0.0389
 3151TIP3    H130944   5.947   1.222   2.690 -0.5678  1.5497 -0.3171
 3151TIP3    H230945   5.988   1.127   2.579 -0.0525 -1.5892  2.3929
 3152TIP3   OH230946   6.076   3.523   3.221 -0.2931  0.1327 -0.0450
 3152TIP3    H130947   6.012   3.588   3.193  0.4274  0.6444 -0.5709
 3152TIP3    H230948   6.078   3.530   3.316 -0.7633  0.3515 -0.0502
 3153TIP3   OH230949   5.811   3.345   0.783  0.1811 -0.6460  0.0890
 3153TIP3    H130950   5.822   3.434   0.816 -0.6266 -1.5346  3.0883
 3153TIP3    H230951   5.718   3.326   0.795 -0.1772 -1.1694 -2.7746
 3154TIP3   OH230952   4.847   0.744  13.167  0.8667  0.1818  0.4539
 3154TIP3    H130953   4.871   0.827  13.126 -1.0038 -0.1643 -1.4993
 3154TIP3    H230954   4.813   0.768  13.253  1.8818  1.2460  0.5790
 3155TIP3   OH230955   3.142   5.211   3.031  0.0579  0.3681 -0.2427
 3155TIP3    H130956   3.138   5.208   3.126  0.8730 -1.6625 -0.2230
 3155TIP3    H230957   3.096   5.132   3.002  3.0474 -1.1218 -1.3315
 3156TIP3   OH230958   2.172   6.534  11.666  0.4865  0.3153  0.3751
 3156TIP3    H130959   2.263   6.548  11.640  0.4237  0.2564  0.1273
 3156TIP3    H230960   2.122   6.599  11.618  0.3963  0.3501  0.5149
 3157TIP3   OH230961   3.842   3.486   1.636 -0.1664  0.2706  0.6080
 3157TIP3    H130962   3.865   3.467   1.545  0.7954  1.1387  0.6567
 3157TIP3    H230963   3.926   3.493   1.681 -0.5050  2.3802  1.0295
 3158TIP3   OH230964   3.056   4.448   5.433  0.5178 -0.8492  0.0776
 3158TIP3    H130965   2.990   4.495   5.381 -2.1833 -0.5312  3.4362
 3158TIP3    H230966   3.017   4.362   5.449  2.4090 -1.8460 -0.4532
 3159TIP3   OH230967   0.208   5.922   2.155 -0.0360  0.1109  0.1096
 3159TIP3    H130968   0.162   5.977   2.091  0.3178 -0.4176 -0.6038
 3159TIP3    H230969   0.298   5.921   2.126 -0.0027 -0.7077  0.2223
 3160TIP3   OH230970   6.549   2.699   1.638 -0.1576 -0.3873 -0.2248
 3160TIP3    H130971   6.499   2.663   1.564 -0.4084  0.9902 -0.7519
 3160TIP3    H230972   6.620   2.636   1.652  0.2032 -0.4050 -1.9849
 3161TIP3   OH230973   0.194   5.056  15.850  0.6884  0.1638 -0.1412
 3161TIP3    H130974   0.105   5.088  15.866  0.2591 -1.6260  1.4270
 3161TIP3    H230975   0.181   4.974  15.801  1.4290 -0.3804  0.5434
 3162TIP3   OH230976   1.378   1.312  13.089 -0.1103  0.6466  0.5504
 3162TIP3    H130977   1.384   1.309  13.184 -2.6523  1.5229  0.8167
 3162TIP3    H230978   1.284   1.313  13.071  0.3072  0.6551 -1.9697
 3163TIP3   OH230979   6.815   5.291   3.523 -0.0420  0.4154  0.0076
 3163TIP3    H130980   6.734   5.305   3.572 -0.1873 -1.1701  0.2794
 3163TIP3    H230981   6.786   5.257   3.438  0.3365 -0.9805  0.4110
 3164TIP3   OH230982   2.541   0.840   4.201 -0.6646 -0.0674  0.3296
 3164TIP3    H130983   2.499   0.840   4.115  0.0291  0.3652 -0.0111
 3164TIP3    H230984   2.467   0.838   4.263 -1.3694  3.5817 -0.1805
 3165TIP3   OH230985   4.780   6.145  15.035  0.8053  0.5090 -0.0561
 3165TIP3    H130986   4.854   6.195  15.067  1.5263 -0.5088 -0.0817
 3165TIP3    H230987   4.800   6.129  14.943  0.6179  0.1192 -0.0302
 3166TIP3   OH230988   6.154   2.116   3.788  0.2817 -0.4031  0.1279
 3166TIP3    H130989   6.102   2.046   3.828 -2.1203 -0.7768 -3.1883
 3166TIP3    H230990   6.116   2.197   3.823 -2.5177 -0.6836 -1.8440
 3167TIP3   OH230991   6.648   1.146   4.092 -0.1150 -0.4598  0.3833
 3167TIP3    H130992   6.593   1.184   4.023 -1.0247 -0.3885  1.1417
 3167TIP3    H230993   6.633   1.052   4.085 -0.3627 -0.4380  0.6112
 3168TIP3   OH230994   4.712   3.986   0.557 -0.7303  0.1746 -0.0554
 3168TIP3    H130995   4.687   3.923   0.490  0.7999  0.2145 -0.7202
 3168TIP3    H230996   4.763   4.052   0.510 -0.8098  0.9483  0.9234
 3169TIP3   OH230997   0.599   2.519  15.384 -0.0807 -0.0493 -0.7227
 3169TIP3    H130998   0.519   2.483  15.421  1.0717  0.0928  2.0979
 3169TIP3    H230999   0.591   2.614  15.397 -0.2879  0.1781 -2.2815
 3170TIP3   OH231000   3.753   6.314  11.392  0.0580  0.3037 -0.1632
 3170TIP3    H131001   3.795   6.232  11.365  0.9843  0.9292 -0.6805
 3170TIP3    H231002   3.659   6.297  11.383  0.2602 -0.4346 -1.0862
 3171TIP3   OH231003   5.210   3.348  15.810  0.1639 -0.4122 -0.0433
 3171TIP3    H131004   5.140   3.406  15.839  1.3018  0.7511  0.4654
 3171TIP3    H231005   5.290   3.391  15.839  1.1437 -1.3007 -1.3417
 3172TIP3   OH231006   0.193   5.538  14.640 -0.6738  0.0101 -0.1568
 3172TIP3    H131007   0.197   5.453  14.684  0.2107  0.0631 -0.1238
 3172TIP3    H231008   0.277   5.580  14.660 -1.1010  0.9031 -0.1577
 3173TIP3   OH231009   4.254   0.554   3.023  0.3358  0.0228  0.0081
 3173TIP3    H131010   4.207   0.486   3.070  1.0231  0.0204  0.7166
 3173TIP3    H231011   4.242   0.633   3.075 -1.0081  0.6184 -1.1557
 3174TIP3   OH231012   0.670   6.000  12.073  0.1704 -0.3357 -0.2977
 3174TIP3    H131013   0.753   6.039  12.100 -0.6411  0.1938  1.6000
 3174TIP3    H231014   0.625   6.070  12.025 -0.3757  0.4124  1.2350
 3175TIP3   OH231015   4.538   0.779   1.167 -0.5243  0.0532  0.1858
 3175TIP3    H131016   4.460   0.834   1.167 -1.1820 -0.8473  0.8252
 3175TIP3    H231017   4.505   0.689   1.159  0.4990 -0.2822 -0.4988
 3176TIP3   OH231018   1.801   4.018   0.943  0.2743 -0.1188  0.3303
 3176TIP3    H131019   1.808   3.923   0.934 -2.1853 -0.1721 -2.9402
 3176TIP3    H231020   1.836   4.052   0.860 -1.6082  1.5879  0.1717
 3177TIP3   OH231021   1.335   5.725  14.080  0.0969 -0.0785  0.6390
 3177TIP3    H131022   1.250   5.680  14.086  0.2948 -0.5203  0.1952
 3177TIP3    H231023   1.318   5.812  14.116 -0.8692  0.2682 -0.5553
 3178TIP3   OH231024   6.260   6.305   1.084 -0.1918 -0.0097 -0.1361
 3178TIP3    H131025   6.292   6.220   1.112 -0.2515 -0.4834 -1.4382
 3178TIP3    H231026   6.280   6.309   0.991 -3.4962 -0.1911 -0.9975
 3179TIP3   OH231027   1.500   4.908   3.424  0.2252 -0.4705  0.2762
 3179TIP3    H131028   1.459   4.936   3.342 -0.6426 -0.8115  0.5779
 3179TIP3    H231029   1.516   4.989   3.472 -0.6443 -0.3582  0.3963
 3180TIP3   OH231030   2.754   4.117   5.390  0.1656  0.0141  0.6726
 3180TIP3    H131031   2.795   4.040   5.351  0.0792 -0.2738  1.1306
 3180TIP3    H231032   2.678   4.082   5.437 -0.3790  0.4893  0.1618
 3181TIP3   OH231033   0.867   2.501  11.704  0.4140  0.5336 -0.9033
 3181TIP3    H131034   0.866   2.594  11.724  1.6506  0.3428  0.1789
 3181TIP3    H231035   0.945   2.488  11.651 -1.2954  0.5348 -3.6399
 3182TIP3   OH231036   5.744   2.021   2.447  0.5756 -0.4719  0.2912
 3182TIP3    H131037   5.780   2.022   2.358  0.6268  0.2825  0.3100
 3182TIP3    H231038   5.771   1.937   2.483 -0.8710 -1.5516 -0.9797
 3183TIP3   OH231039   3.217   4.914  15.901 -0.7601  0.0172  0.0185
 3183TIP3    H131040   3.190   4.866  15.823  0.0633 -0.1058 -0.2033
 3183TIP3    H231041   3.274   4.853  15.949 -0.5339  0.4064  0.2543
 3184TIP3   OH231042   2.700   6.622  11.154 -0.2555  0.0159  0.1617
 3184TIP3    H131043   2.639   6.678  11.202 -0.9176 -0.8222  0.3413
 3184TIP3    H231044   2.710   6.664  11.069  0.2385  1.0503  0.7136
 3185TIP3   OH231045   0.898   0.054   0.009 -0.3953 -0.2774  0.1449
 3185TIP3    H131046   0.825   0.101   0.049 -0.0969 -0.7860  1.3180
 3185TIP3    H231047   0.936   0.116  -0.053 -1.8098 -0.0049 -0.4743
 3186TIP3   OH231048   4.854   1.266   4.475  0.1120 -0.6912  0.0966
 3186TIP3    H131049   4.844   1.347   4.426 -0.6591 -1.1373 -0.4969
 3186TIP3    H231050   4.864   1.294   4.566  0.6231  0.0951 -0.1875
 3187TIP3   OH231051   2.801   3.815   1.341 -0.1531  0.2279 -0.4193
 3187TIP3    H131052   2.759   3.887   1.388  0.7857  0.8904 -0.5615
 3187TIP3    H231053   2.744   3.740   1.357  0.0620  0.4605  1.6388
 3188TIP3   OH231054   1.348   1.095  15.204 -0.0232 -0.3340 -0.1073
 3188TIP3    H131055   1.273   1.130  15.252  0.0812 -0.2185 -0.0277
 3188TIP3    H231056   1.408   1.169  15.197  0.9295 -0.9174  1.5028
 3189TIP3   OH231057   6.172   4.193   4.256  0.1753 -0.0795 -0.6109
 3189TIP3    H131058   6.128   4.277   4.252 -1.2258 -0.8026 -0.7579
 3189TIP3    H231059   6.127   4.138   4.192  0.6305 -1.1497 -0.0518
 3190TIP3   OH231060   3.418   1.908   0.923  0.6587  0.3746 -0.1890
 3190TIP3    H131061   3.462   1.875   0.845  1.4191 -1.4237  0.9171
 3190TIP3    H231062   3.437   2.001   0.925  2.0102  0.1470 -1.2824
 3191TIP3   OH231063   6.379   0.072   3.267 -0.3030  0.3431  0.4767
 3191TIP3    H131064   6.354   0.007   3.201  1.6744 -0.4329  0.4502
 3191TIP3    H231065   6.473   0.083   3.256  0.1900 -0.1945  3.4888
 3192TIP3   OH231066   0.593   2.246  12.757  0.0400 -0.0381 -0.0303
 3192TIP3    H131067   0.593   2.211  12.667  0.8995  0.3195 -0.1786
 3192TIP3    H231068   0.541   2.326  12.752  0.8155  0.4525 -0.4092
 3193TIP3   OH231069   1.353   1.415  14.964  0.3869  0.1025  0.0180
 3193TIP3    H131070   1.299   1.491  14.940 -0.4131 -0.3773  0.2512
 3193TIP3    H231071   1.301   1.339  14.936  0.0005 -0.4422  2.0527
 3194TIP3   OH231072   6.784   2.900  14.804 -0.3501 -0.7108 -0.0831
 3194TIP3    H131073   6.831   2.916  14.722 -1.6351 -0.0723 -0.7201
 3194TIP3    H231074   6.714   2.965  14.805 -1.1101 -1.5092  0.9188
 3195TIP3   OH231075   4.606   1.551  15.860 -0.3709  0.1723  0.5842
 3195TIP3    H131076   4.544   1.510  15.799  0.4450 -0.8730  0.4255
 3195TIP3    H231077   4.692   1.530  15.824  0.1586 -1.1183  2.4780
 3196TIP3   OH231078   0.960   6.459  10.265 -0.4936  0.1477  0.1536
 3196TIP3    H131079   0.943   6.383  10.209 -2.2440  0.2812  0.4291
 3196TIP3    H231080   0.996   6.525  10.207  1.1012 -0.8680 -0.0876
 3197TIP3   OH231081   4.494   3.425   5.190  0.0969 -0.3068 -0.4551
 3197TIP3    H131082   4.509   3.371   5.268 -0.1144 -1.2031 -1.0193
 3197TIP3    H231083   4.573   3.415   5.138  0.6783  1.1269  0.0967
 3198TIP3   OH231084   4.426   5.097   5.472 -0.1337  0.1555 -0.0038
 3198TIP3    H131085   4.512   5.139   5.484  0.4615 -1.2919  1.0445
 3198TIP3    H231086   4.377   5.120   5.551 -0.4571  0.3583 -0.2614
 3199TIP3   OH231087   2.897   0.892   1.102 -0.2119  0.3471 -0.2107
 3199TIP3    H131088   2.940   0.973   1.129 -0.7991  0.2687  1.0423
 3199TIP3    H231089   2.958   0.852   1.040 -0.0510  1.8733 -1.0795
 3200TIP3   OH231090   0.857   0.670   4.463 -0.3252 -0.1181  0.1792
 3200TIP3    H131091   0.935   0.615   4.468 -0.0049  0.3528  0.5266
 3200TIP3    H231092   0.784   0.609   4.459  0.0567 -0.5647 -0.0003
 3201TIP3   OH231093   1.458   1.942   4.589  0.5290 -0.3073 -0.4381
 3201TIP3    H131094   1.422   1.987   4.513  2.1809 -0.4684 -1.3481
 3201TIP3    H231095   1.551   1.964   4.589  0.8699 -1.6002  0.6161
 3202TIP3   OH231096   6.642   1.099  13.921 -0.5222 -0.1434  0.5549
 3202TIP3    H131097   6.729   1.141  13.920 -0.0463 -1.1134  0.3374
 3202TIP3    H231098   6.582   1.169  13.894 -0.1493  1.2569  2.9750
 3203TIP3   OH231099   5.834   5.460   5.159  0.4998  0.0215  0.1215
 3203TIP3    H131100   5.928   5.440   5.152  0.7667  0.1654  2.4192
 3203TIP3    H231101   5.815   5.451   5.253 -1.2073  2.4629  0.0859
 3204TIP3   OH231102   6.192   0.314   4.455  0.1974 -0.2579 -0.0757
 3204TIP3    H131103   6.121   0.375   4.435  0.1159 -0.1752  0.4424
 3204TIP3    H231104   6.261   0.370   4.493  0.1092 -0.4853  0.4331
 3205TIP3   OH231105   6.399   3.530   1.247  0.0082  0.0893 -0.0694
 3205TIP3    H131106   6.486   3.492   1.261  0.1901  1.0650  1.8411
 3205TIP3    H231107   6.416   3.620   1.218 -0.3544  0.2828  0.3078
 3206TIP3   OH231108   2.985   5.129  15.392  0.2095  0.4257 -0.6003
 3206TIP3    H131109   2.926   5.058  15.369  2.4222 -0.9688 -2.4305
 3206TIP3    H231110   2.928   5.201  15.418 -2.2052 -1.1088 -1.3652
 3207TIP3   OH231111   5.285   6.409  13.700 -0.4730 -0.5176  0.4120
 3207TIP3    H131112   5.211   6.466  13.719 -1.6556 -2.1009  0.7388
 3207TIP3    H231113   5.360   6.469  13.692 -1.3447  0.9191  2.2925
 3208TIP3   OH231114   1.219   3.082  16.681 -0.3330  0.3735  0.2894
 3208TIP3    H131115   1.198   3.080  16.588 -2.5172  1.5780  0.6937
 3208TIP3    H231116   1.188   2.998  16.715 -0.2035  0.2376  0.0755
 3209TIP3   OH231117   6.395   0.035  15.710 -0.1758  0.1174 -0.3972
 3209TIP3    H131118   6.486   0.040  15.741 -0.4365 -0.7756  0.5741
 3209TIP3    H231119   6.399   0.066  15.620  1.0360  0.4323 -0.2569
 3210TIP3   OH231120   5.561   0.431   0.007  0.1689 -0.4002 -0.4279
 3210TIP3    H131121   5.578   0.525   0.011  0.7922 -0.3989 -2.2619
 3210TIP3    H231122   5.477   0.423  -0.038  0.2154 -0.7215 -0.4666
 3211TIP3   OH231123   0.427   1.515   3.802  0.4031  0.3477  0.1897
 3211TIP3    H131124   0.509   1.557   3.825  0.0469  2.4246 -1.9530
 3211TIP3    H231125   0.382   1.503   3.885  1.6014  1.9948  1.1292
 3212TIP3   OH231126   5.144   3.024   5.947 -0.6727 -0.0263 -0.1555
 3212TIP3    H131127   5.161   3.090   6.014  0.0790 -1.1520  0.7997
 3212TIP3    H231128   5.169   3.066   5.865  0.6934  0.5742  0.5365
 3213TIP3   OH231129   4.117   3.738   2.556  0.3787 -0.3337  0.3279
 3213TIP3    H131130   4.132   3.645   2.569 -1.2941 -0.7269 -0.3344
 3213TIP3    H231131   4.063   3.743   2.476  0.6724  1.2117  0.1944
 3214TIP3   OH231132   0.669   2.671   0.362 -0.0956  0.3304  0.2651
 3214TIP3    H131133   0.693   2.589   0.319 -0.6926  0.3854 -0.1874
 3214TIP3    H231134   0.648   2.730   0.290  0.3058  0.8765  0.5906
 3215TIP3   OH231135   4.237   3.564   4.802 -0.3999 -0.5441 -0.4887
 3215TIP3    H131136   4.247   3.582   4.895 -2.3831  0.7471 -0.4480
 3215TIP3    H231137   4.315   3.516   4.777  2.0410  2.3139  1.0336
 3216TIP3   OH231138   1.528   4.540  15.187 -0.2150  0.5130  0.0069
 3216TIP3    H131139   1.545   4.608  15.122 -1.3169 -0.7958 -1.7614
 3216TIP3    H231140   1.614   4.504  15.208  0.2333  1.4996 -0.1050
 3217TIP3   OH231141   3.202   4.700  14.703 -0.5738  0.0477  0.1156
 3217TIP3    H131142   3.256   4.634  14.659 -2.2348  0.1510 -2.2796
 3217TIP3    H231143   3.262   4.773  14.719  0.0051  0.3383 -2.8453
 3218TIP3   OH231144   1.092   2.913   0.796  0.2463  0.2747 -0.0065
 3218TIP3    H131145   1.040   2.838   0.767  1.4925 -0.0797 -1.4810
 3218TIP3    H231146   1.028   2.980   0.818 -0.8895 -1.0891  1.0059
 3219TIP3   OH231147   0.197   2.214  11.781 -0.4629 -0.1723 -0.8379
 3219TIP3    H131148   0.276   2.229  11.729 -0.6340 -0.3390 -1.1513
 3219TIP3    H231149   0.165   2.302  11.802 -0.4762 -0.1009 -1.1486
 3220TIP3   OH231150   1.852   6.022  16.179  0.0136 -0.2497 -0.3058
 3220TIP3    H131151   1.916   6.087  16.208 -0.7067  0.0921  0.5603
 3220TIP3    H231152   1.828   6.050  16.090  1.5254 -0.7553 -0.9102
 3221TIP3   OH231153   4.826   3.545  16.374 -0.4829 -0.2485 -0.0697
 3221TIP3    H131154   4.862   3.457  16.361 -0.8445 -0.5443  0.8160
 3221TIP3    H231155   4.856   3.570  16.462 -2.2321 -0.4302  0.6274
 3222TIP3   OH231156   0.600   6.705  11.564 -0.0044 -0.0669 -0.0595
 3222TIP3    H131157   0.578   6.642  11.496  0.5865  0.0035 -0.3250
 3222TIP3    H231158   0.637   6.780  11.516  0.0758  0.1338  0.3110
 3223TIP3   OH231159   5.019   6.647   6.011 -0.4459 -0.2989  0.1686
 3223TIP3    H131160   5.112   6.667   6.027 -0.4700  1.4933 -1.5284
 3223TIP3    H231161   5.013   6.553   6.023  1.4476 -0.3782  0.9774
 3224TIP3   OH231162   3.714   5.504   9.858 -0.3655  0.3949 -0.4783
 3224TIP3    H131163   3.747   5.415   9.870  0.3346  0.9792  2.6354
 3224TIP3    H231164   3.792   5.557   9.840 -0.5891  0.6549 -0.7121
 3225TIP3   OH231165   6.835   3.192  12.559  0.1967 -0.4867  0.2233
 3225TIP3    H131166   6.924   3.225  12.574  0.3074  0.0295 -1.3982
 3225TIP3    H231167   6.782   3.235  12.627  0.9545  0.2775  0.3524
 3226TIP3   OH231168   2.271   3.351  12.348 -0.4362  0.6856  0.0840
 3226TIP3    H131169   2.305   3.352  12.438  1.1875  0.0968 -0.4837
 3226TIP3    H231170   2.349   3.352  12.293 -1.4157  1.4942 -1.3411
 3227TIP3   OH231171   2.841   5.899  12.842  0.0838 -0.0441  0.4379
 3227TIP3    H131172   2.772   5.960  12.817  0.0798 -0.0869  0.3425
 3227TIP3    H231173   2.916   5.954  12.863  0.2680 -0.0264 -0.2272
 3228TIP3   OH231174   3.511   6.730  15.493 -0.5283 -0.1038  0.3281
 3228TIP3    H131175   3.588   6.778  15.461 -1.6042  0.9160 -0.7890
 3228TIP3    H231176   3.541   6.692  15.576  1.2238  0.1517 -0.1324
 3229TIP3   OH231177   4.708   2.290  13.699 -0.5367  0.6676  0.1337
 3229TIP3    H131178   4.770   2.353  13.736 -0.4306  1.0274 -0.6360
 3229TIP3    H231179   4.705   2.311  13.606 -1.1515  0.0805  0.0120
 3230TIP3   OH231180   4.316   0.589  15.773 -0.2849  0.0924 -0.0582
 3230TIP3    H131181   4.402   0.561  15.741 -0.3001  0.8077 -0.7628
 3230TIP3    H231182   4.288   0.519  15.832  0.7063 -0.2273  0.0475
 3231TIP3   OH231183   2.078   5.664  10.695  0.2931  0.1286  0.0036
 3231TIP3    H131184   2.164   5.663  10.653  2.1202 -0.3016  3.4043
 3231TIP3    H231185   2.080   5.590  10.756 -2.0011  0.8875  1.1045
 3232TIP3   OH231186   5.486   1.713  16.185  0.0172  0.1856 -0.4564
 3232TIP3    H131187   5.434   1.657  16.127 -2.0417  1.2099  0.2990
 3232TIP3    H231188   5.455   1.802  16.166  0.6984  0.7213  0.8448
 3233TIP3   OH231189   3.713   2.534   5.273  0.1965  0.2558 -0.2343
 3233TIP3    H131190   3.807   2.548   5.263  0.2643 -0.2663 -0.3177
 3233TIP3    H231191   3.674   2.619   5.253  0.6741  0.5675  0.1492
 3234TIP3   OH231192   6.522   3.903  12.963  0.0368 -0.4314 -0.6756
 3234TIP3    H131193   6.490   3.844  12.895  1.0088  1.8831 -3.3530
 3234TIP3    H231194   6.482   3.987  12.942  3.0211  1.1572 -0.5428
 3235TIP3   OH231195   5.070   2.044  14.334 -0.1413  0.3592  0.1090
 3235TIP3    H131196   5.010   2.086  14.395 -2.2441 -1.5561 -0.5225
 3235TIP3    H231197   5.037   2.068  14.247 -1.0768 -2.0468 -0.2621
 3236TIP3   OH231198   4.553   2.806  15.609 -0.2875  0.1708 -0.3066
 3236TIP3    H131199   4.552   2.805  15.514 -0.2865  1.5620 -0.3513
 3236TIP3    H231200   4.477   2.754  15.635  0.7338 -1.7554 -1.0018
 3237TIP3   OH231201   1.498   6.612   1.005 -0.6532 -0.0748 -0.0952
 3237TIP3    H131202   1.406   6.601   0.979 -0.5614 -0.8253 -0.1080
 3237TIP3    H231203   1.493   6.640   1.096 -0.8633 -2.3561  0.6572
 3238TIP3   OH231204   4.674   0.300   0.463 -0.0664  0.0001  0.3993
 3238TIP3    H131205   4.744   0.310   0.399 -0.5370 -0.4367 -0.2039
 3238TIP3    H231206   4.700   0.355   0.536 -0.6213  2.4252 -1.1019
 3239TIP3   OH231207   1.031   1.981   3.711 -0.2984 -0.0427  0.4962
 3239TIP3    H131208   1.011   1.982   3.617 -0.5273  2.8033  0.4765
 3239TIP3    H231209   0.947   1.962   3.753 -0.3962 -0.3956  0.1468
 3240TIP3   OH231210   0.464   1.137   4.622 -0.1535 -0.0367 -0.9544
 3240TIP3    H131211   0.464   1.047   4.655 -0.6883 -0.1290 -1.1923
 3240TIP3    H231212   0.544   1.176   4.656  1.5930 -1.4521 -3.1568
 3241TIP3   OH231213   6.123   0.576   4.285 -0.2863 -0.1367  0.6596
 3241TIP3    H131214   6.181   0.534   4.221 -2.8707 -0.7257 -1.5142
 3241TIP3    H231215   6.111   0.665   4.251  0.0185  0.2563  1.5721
 3242TIP3   OH231216   0.343   4.702  14.096 -0.1570  0.2708 -0.1395
 3242TIP3    H131217   0.334   4.769  14.028  2.8851 -0.8389 -1.8153
 3242TIP3    H231218   0.437   4.684  14.100 -0.4573 -1.2689  2.9182
 3243TIP3   OH231219   0.165   2.863   2.041  0.0340 -0.5807 -0.3855
 3243TIP3    H131220   0.083   2.818   2.061 -0.0247 -0.8250 -1.1572
 3243TIP3    H231221   0.175   2.926   2.113 -0.4984 -0.9841  0.0564
 3244TIP3   OH231222   4.201   5.855  14.469 -0.5798 -0.1706 -0.5602
 3244TIP3    H131223   4.127   5.845  14.409  0.0344  0.5746 -1.4824
 3244TIP3    H231224   4.211   5.950  14.479  0.0625 -0.2685 -0.2116
 3245TIP3   OH231225   2.664   2.793  13.116  0.5290  0.7285 -0.4951
 3245TIP3    H131226   2.620   2.794  13.031 -0.0901  1.6490 -0.1803
 3245TIP3    H231227   2.593   2.795  13.180  0.9869 -0.0648  0.0566
 3246TIP3   OH231228   3.975   0.061   2.198  0.4691  0.0194 -0.0826
 3246TIP3    H131229   3.898   0.055   2.142  0.3325 -3.2888  0.2595
 3246TIP3    H231230   4.009   0.150   2.184 -3.1992  1.5365 -0.4074
 3247TIP3   OH231231   4.001   3.804  14.089  0.2237  0.2795  0.5853
 3247TIP3    H131232   3.917   3.801  14.043  0.5994 -2.6459 -0.0809
 3247TIP3    H231233   4.066   3.810  14.019  0.6830 -0.9480  0.8959
 3248TIP3   OH231234   6.715   6.873   3.941  0.5436  0.4031  0.2882
 3248TIP3    H131235   6.803   6.881   3.978  0.2820 -0.2624  1.0756
 3248TIP3    H231236   6.680   6.962   3.942  1.3684  0.7541 -0.4771
 3249TIP3   OH231237   5.595   2.792   0.179 -0.3007 -0.3338  0.3988
 3249TIP3    H131238   5.558   2.869   0.224  1.3733  0.7378  0.0686
 3249TIP3    H231239   5.634   2.741   0.250 -0.3122 -0.2148  0.4929
 3250TIP3   OH231240   5.027   4.106   4.834  0.0962  0.4105 -0.0431
 3250TIP3    H131241   5.045   4.026   4.883 -2.9834 -2.4655 -3.1186
 3250TIP3    H231242   4.951   4.144   4.878 -0.2000  0.0464 -0.2356
 3251TIP3   OH231243   5.249   3.490  13.735 -0.0450  0.2168 -0.3554
 3251TIP3    H131244   5.283   3.486  13.645  0.0383  0.1682 -0.3221
 3251TIP3    H231245   5.224   3.581  13.747  0.5433  0.3668 -0.2114
 3252TIP3   OH231246   1.097   1.780   1.011  0.1102 -0.0937 -0.2663
 3252TIP3    H131247   1.046   1.853   1.046  1.4319 -0.1499  1.9201
 3252TIP3    H231248   1.065   1.770   0.921 -2.8918  0.5794  0.6193
 3253TIP3   OH231249   1.049   1.553   5.452  0.1868 -1.1045 -0.1765
 3253TIP3    H131250   1.008   1.517   5.531 -0.6724  0.7843  0.2920
 3253TIP3    H231251   1.137   1.578   5.481 -1.0201  2.2640  1.1284
 3254TIP3   OH231252   3.274   6.790  15.680 -0.4479  0.1178  0.0157
 3254TIP3    H131253   3.345   6.754  15.627  1.8298  1.5937  1.8451
 3254TIP3    H231254   3.212   6.718  15.689  0.7507 -1.2191 -1.7384
 3255TIP3   OH231255   5.607   4.656   5.837  0.7474  0.0806 -0.4796
 3255TIP3    H131256   5.678   4.604   5.874  1.1142  0.9999  0.1476
 3255TIP3    H231257   5.539   4.592   5.815  0.5401 -0.5299  1.7292
 3256TIP3   OH231258   2.974   5.210  15.836  0.0259  0.1348 -0.2559
 3256TIP3    H131259   2.977   5.301  15.865  1.3740 -0.1988  0.7243
 3256TIP3    H231260   2.883   5.197  15.810 -0.2164  1.7240 -0.3221
 3257TIP3   OH231261   5.229   0.969   6.198  0.2167 -0.3548 -0.3740
 3257TIP3    H131262   5.144   1.005   6.224  0.7320  1.6225 -1.2627
 3257TIP3    H231263   5.211   0.876   6.182 -1.2950 -0.4476  1.4929
 3258TIP3   OH231264   3.724   3.605   3.852  0.4713 -0.1103  0.1273
 3258TIP3    H131265   3.694   3.575   3.767  2.6629 -0.1744 -0.7046
 3258TIP3    H231266   3.660   3.571   3.915 -0.2820 -1.4743 -1.3300
 3259TIP3   OH231267   5.932   1.378   5.036  0.1329  0.3963  0.1939
 3259TIP3    H131268   5.840   1.356   5.045  0.0064  0.9755  0.3295
 3259TIP3    H231269   5.933   1.463   4.991  0.6081  0.2133 -0.1546
 3260TIP3   OH231270   0.118   5.104   3.228 -0.1603  0.3090  0.3900
 3260TIP3    H131271   0.168   5.054   3.292  0.9646  1.7870  0.7279
 3260TIP3    H231272   0.184   5.140   3.169 -1.1889 -1.2853 -1.8729
 3261TIP3   OH231273   3.623   3.462  12.897  0.3870 -0.0992  0.1829
 3261TIP3    H131274   3.689   3.393  12.901  0.6695 -0.0440 -2.2363
 3261TIP3    H231275   3.596   3.475  12.988 -0.2943 -3.9589  0.6848
 3262TIP3   OH231276   2.921   3.992  11.737 -0.2527  0.2338 -0.4946
 3262TIP3    H131277   3.003   3.991  11.687  0.4204  0.5661  0.5691
 3262TIP3    H231278   2.882   3.906  11.721  0.8703 -0.3650 -0.1148
 3263TIP3   OH231279   2.748   0.985   3.256  0.3076 -0.1528  0.1877
 3263TIP3    H131280   2.760   0.918   3.324  0.5230 -0.2211  0.0831
 3263TIP3    H231281   2.821   0.971   3.195  1.5758  1.4456  1.2292
 3264TIP3   OH231282   2.222   3.483  13.432  1.1411  0.3568  0.1703
 3264TIP3    H131283   2.210   3.565  13.480 -0.2499 -0.5025  1.3821
 3264TIP3    H231284   2.312   3.457  13.452  1.0708  0.7826  1.0892
 3265TIP3   OH231285   3.767   4.567   1.602 -0.5891 -0.0727  0.8050
 3265TIP3    H131286   3.829   4.558   1.675 -0.3138  1.0196  0.7161
 3265TIP3    H231287   3.793   4.498   1.540 -0.5031 -0.6815  1.5021
 3266TIP3   OH231288   0.062   6.167  11.472 -0.1035  0.6226 -0.4820
 3266TIP3    H131289   0.153   6.140  11.476 -0.4578 -0.5106  0.5285
 3266TIP3    H231290   0.064   6.262  11.473  1.0499  0.5981 -0.0111
 3267TIP3   OH231291   6.647   4.698   2.759 -0.1588 -0.4803 -0.6465
 3267TIP3    H131292   6.601   4.623   2.799 -3.3218  1.9487  0.6976
 3267TIP3    H231293   6.724   4.659   2.718 -0.9766 -4.2993  0.9698
 3268TIP3   OH231294   4.787   2.261   0.511  0.1364 -0.7920 -0.2749
 3268TIP3    H131295   4.715   2.306   0.466 -0.4798 -0.5120  0.9352
 3268TIP3    H231296   4.856   2.327   0.517  0.0063 -0.6492 -0.3227
 3269TIP3   OH231297   0.930   3.773  14.243  0.0266 -0.2142  0.8169
 3269TIP3    H131298   0.941   3.835  14.170 -0.7616 -0.5000  0.4427
 3269TIP3    H231299   0.945   3.687  14.204 -0.4148 -0.3699  0.9841
 3270TIP3   OH231300   1.123   0.477   3.125 -0.2268  0.3054 -0.4163
 3270TIP3    H131301   1.039   0.466   3.081  0.0297  2.7169 -1.6908
 3270TIP3    H231302   1.185   0.494   3.055  1.4499 -1.7467  0.4749
 3271TIP3   OH231303   4.118   6.895  11.544  0.7659 -0.1544  0.5194
 3271TIP3    H131304   4.159   6.921  11.627  0.1829 -0.0729  0.7898
 3271TIP3    H231305   4.118   6.975  11.492 -1.3653  0.5638  1.4924
 3272TIP3   OH231306   6.098   2.849  14.250 -0.2137 -0.3695  0.4647
 3272TIP3    H131307   6.152   2.878  14.176  1.2362 -1.5989  0.9713
 3272TIP3    H231308   6.159   2.845  14.324 -1.2754 -0.6698  1.3540
 3273TIP3   OH231309   3.266   2.817   4.982  0.2145 -0.4820 -0.1608
 3273TIP3    H131310   3.299   2.870   4.909 -0.5198  1.2673  0.7098
 3273TIP3    H231311   3.239   2.881   5.048 -2.7040 -1.8457  0.1207
 3274TIP3   OH231312   3.896   4.830   0.204  0.1019 -0.2993  0.1325
 3274TIP3    H131313   3.833   4.898   0.180  0.0024 -0.5777 -0.4156
 3274TIP3    H231314   3.853   4.781   0.275  0.2828  0.3622  0.7038
 3275TIP3   OH231315   0.400   0.263   3.218  0.4394  0.4621 -0.2626
 3275TIP3    H131316   0.439   0.299   3.138  1.0065  1.1091  0.2980
 3275TIP3    H231317   0.474   0.235   3.271  0.0445 -0.6408 -0.2530
 3276TIP3   OH231318   4.152   4.628   3.071  0.0505  0.0228 -0.0867
 3276TIP3    H131319   4.084   4.695   3.076 -1.3046 -1.3949  1.6579
 3276TIP3    H231320   4.104   4.546   3.067  1.5582 -1.1969  3.5193
 3277TIP3   OH231321   1.217   4.997   1.778  0.3696  0.2253  0.0296
 3277TIP3    H131322   1.162   4.987   1.700  1.8113 -1.7048 -0.8471
 3277TIP3    H231323   1.243   5.089   1.777  0.0298  0.3441 -1.5580
 3278TIP3   OH231324   2.462   5.848  16.429  0.4775 -0.3191 -0.4306
 3278TIP3    H131325   2.462   5.941  16.408 -1.6037 -0.0091  0.6889
 3278TIP3    H231326   2.403   5.809  16.365  0.5327 -0.6932 -0.2576
 3279TIP3   OH231327   1.608   6.385  11.904 -0.5326 -0.2303  0.0106
 3279TIP3    H131328   1.542   6.448  11.875  0.8384  0.7258 -1.1652
 3279TIP3    H231329   1.601   6.386  12.000 -1.4907  0.6371 -0.0510
 3280TIP3   OH231330   1.139   5.601   1.604 -0.0283 -0.2416 -0.4155
 3280TIP3    H131331   1.229   5.632   1.615  0.5738 -1.6302 -1.0889
 3280TIP3    H231332   1.122   5.547   1.681 -0.2431 -0.0876 -0.3528
 3281TIP3   OH231333   6.720   6.038  11.515 -0.3745  0.0699  0.3785
 3281TIP3    H131334   6.812   6.065  11.523 -0.2256 -0.5218  0.7443
 3281TIP3    H231335   6.700   5.998  11.600 -0.2522 -1.9218 -0.4669
 3282TIP3   OH231336   4.338   4.752   2.925 -0.1723  0.1262 -0.2631
 3282TIP3    H131337   4.252   4.732   2.962  0.1796 -0.9775 -0.0016
 3282TIP3    H231338   4.375   4.666   2.903  0.5480  0.6383 -1.0842
 3283TIP3   OH231339   1.136   0.534  11.480  0.0514 -0.4561 -0.1218
 3283TIP3    H131340   1.152   0.619  11.521 -1.2213 -1.1121  1.9430
 3283TIP3    H231341   1.187   0.472  11.533 -0.6044 -1.1969 -0.3269
 3284TIP3   OH231342   5.160   2.204   3.691  0.0484 -0.4186  0.2704
 3284TIP3    H131343   5.189   2.113   3.704 -2.2208 -0.9877  1.9785
 3284TIP3    H231344   5.155   2.240   3.780  1.0016  1.4634 -0.3897
 3285TIP3   OH231345   5.997   4.711   4.720  0.3690 -0.5412  0.0040
 3285TIP3    H131346   5.922   4.768   4.732  1.3552  0.6945  0.5494
 3285TIP3    H231347   6.004   4.662   4.802  0.9884  0.4124  0.5521
 3286TIP3   OH231348   5.849   2.864   0.062 -0.1074 -0.0839 -0.0953
 3286TIP3    H131349   5.888   2.888  -0.022 -0.0205  0.7212  0.1586
 3286TIP3    H231350   5.760   2.837   0.041  0.1395 -0.5857 -0.5226
 3287TIP3   OH231351   6.281   2.628  14.856  0.0135  0.3504 -0.4149
 3287TIP3    H131352   6.354   2.577  14.820 -0.3199  0.5717 -1.4375
 3287TIP3    H231353   6.254   2.685  14.784 -1.4885 -0.0691 -0.2045
 3288TIP3   OH231354   0.929   2.359  13.321 -0.1450  0.3997  0.3467
 3288TIP3    H131355   0.938   2.446  13.284  0.6707  0.2567  0.1785
 3288TIP3    H231356   0.835   2.342  13.323 -0.2545  0.8582 -0.6039
 3289TIP3   OH231357   3.395   6.220   1.218 -0.2241 -0.7688 -0.2886
 3289TIP3    H131358   3.330   6.151   1.229 -2.3305  1.1891  0.2364
 3289TIP3    H231359   3.391   6.241   1.124  0.9233 -1.7662 -0.5875
 3290TIP3   OH231360   1.932   2.727   1.781  0.2599  0.1880  0.0976
 3290TIP3    H131361   1.960   2.811   1.743  1.5793 -0.6327 -0.8639
 3290TIP3    H231362   1.843   2.742   1.811  0.3358  1.8258 -0.4117
 3291TIP3   OH231363   3.409   4.467  16.296  0.0091 -0.7380 -0.0228
 3291TIP3    H131364   3.316   4.465  16.316 -0.1507  0.4224 -0.6025
 3291TIP3    H231365   3.415   4.435  16.206  0.4070 -2.8190  0.6834
 3292TIP3   OH231366   3.028   4.020  13.688 -0.1505  0.2211 -0.2887
 3292TIP3    H131367   2.939   4.026  13.722  0.3896  0.8335  1.1021
 3292TIP3    H231368   3.044   3.926  13.680 -0.6908  0.0883  0.1084
 3293TIP3   OH231369   2.536   5.079  13.237  0.2344  0.3162  0.3433
 3293TIP3    H131370   2.561   5.091  13.145  3.8169  1.4521  1.3119
 3293TIP3    H231371   2.489   5.159  13.260  0.4073  0.5739 -0.1828
 3294TIP3   OH231372   6.472   4.389  16.353 -0.0739 -0.8329  0.2027
 3294TIP3    H131373   6.428   4.473  16.339 -0.3426 -1.1643 -1.0771
 3294TIP3    H231374   6.429   4.352  16.430 -0.2523  0.0080  0.5173
 3295TIP3   OH231375   2.478   5.994  11.896 -0.2767 -0.3054  0.0973
 3295TIP3    H131376   2.487   5.954  11.983 -0.2089  0.8760  0.6543
 3295TIP3    H231377   2.461   5.920  11.837  0.7742 -1.2515  0.9400
 3296TIP3   OH231378   5.493   2.188   0.816  0.5081  0.1765  0.5918
 3296TIP3    H131379   5.557   2.256   0.797 -0.6882  0.4943 -3.1635
 3296TIP3    H231380   5.542   2.107   0.811  1.2437  0.5757  1.2183
 3297TIP3   OH231381   0.787   5.176   3.346 -0.3164  0.4234 -0.4166
 3297TIP3    H131382   0.717   5.118   3.316 -1.2483  0.7003  1.1159
 3297TIP3    H231383   0.831   5.128   3.416  0.2864  0.7237 -0.5818
 3298TIP3   OH231384   6.098   0.399   0.652 -0.2066  0.0546  0.4285
 3298TIP3    H131385   6.082   0.384   0.745  2.0174  1.4107  1.1389
 3298TIP3    H231386   6.193   0.412   0.647 -0.0668 -1.3528 -2.2724
 3299TIP3   OH231387   5.161   3.758  16.815  0.2645 -0.0636 -0.1663
 3299TIP3    H131388   5.216   3.798  16.748  0.1202 -1.2734 -1.0412
 3299TIP3    H231389   5.220   3.741  16.888  1.0531 -1.1875 -1.0267
 3300TIP3   OH231390   2.731   1.665   6.368 -0.1614 -0.4274  0.3720
 3300TIP3    H131391   2.755   1.587   6.316 -0.7440 -0.3200 -0.0705
 3300TIP3    H231392   2.656   1.636   6.421 -0.3518 -0.1858  0.2382
 3301TIP3   OH231393   6.558   6.745   3.035  0.3806  0.3483 -0.0021
 3301TIP3    H131394   6.568   6.701   2.950  0.7761  0.9969 -0.2977
 3301TIP3    H231395   6.535   6.674   3.095 -0.1044 -0.0927 -0.6836
 3302TIP3   OH231396   3.172   3.872  16.410 -0.9996  0.0281  0.0949
 3302TIP3    H131397   3.102   3.813  16.439 -0.5170 -0.2616  0.7005
 3302TIP3    H231398   3.170   3.943  16.474  0.8728 -1.2175  1.6629
 3303TIP3   OH231399   5.212   1.442   3.240 -0.0293  0.3204  0.2037
 3303TIP3    H131400   5.292   1.466   3.193  0.8215 -0.6358  1.0918
 3303TIP3    H231401   5.230   1.354   3.274 -1.5270  0.0290  0.2974
 3304TIP3   OH231402   3.274   2.694  15.020 -0.2589  0.2381 -0.9055
 3304TIP3    H131403   3.292   2.638  14.944  1.1809 -0.9244  0.2162
 3304TIP3    H231404   3.358   2.738  15.037 -0.1569 -0.5280  0.7569
 3305TIP3   OH231405   2.281   4.729  14.248  0.1645  0.3087 -0.1470
 3305TIP3    H131406   2.325   4.760  14.327  2.0085 -3.3367  0.4519
 3305TIP3    H231407   2.284   4.804  14.188  3.0681  1.7239  1.5591
 3306TIP3   OH231408   6.838   2.357  12.695  0.0874  0.3638 -0.7069
 3306TIP3    H131409   6.923   2.312  12.692  0.5075  1.1017 -0.2185
 3306TIP3    H231410   6.774   2.289  12.674  0.7756 -0.2713 -0.7944
 3307TIP3   OH231411   1.946   2.089  12.117 -0.0376 -0.4716 -0.0589
 3307TIP3    H131412   1.995   2.015  12.081  1.6125  0.5781 -0.0940
 3307TIP3    H231413   2.009   2.134  12.173 -0.7893  1.2610 -0.5333
 3308TIP3   OH231414   3.799   3.522   3.111 -0.3128 -0.7412 -0.0479
 3308TIP3    H131415   3.762   3.559   3.191 -2.3284  2.0894 -2.1001
 3308TIP3    H231416   3.886   3.562   3.104  0.1767 -1.5677  1.0235
 3309TIP3   OH231417   0.111   5.169  13.878  0.9757 -0.3768 -0.6193
 3309TIP3    H131418   0.172   5.242  13.886  1.5079 -0.8652  0.0179
 3309TIP3    H231419   0.167   5.093  13.864  0.6354 -1.0091  1.0978
 3310TIP3   OH231420   3.488   6.780   2.050  0.3095 -0.3017 -0.3645
 3310TIP3    H131421   3.561   6.805   2.107  0.1965  1.0719 -0.7779
 3310TIP3    H231422   3.459   6.862   2.011 -0.5733 -1.0133 -1.2728
 3311TIP3   OH231423   2.732   1.492  13.614 -0.2429 -0.1461 -0.5412
 3311TIP3    H131424   2.707   1.400  13.620 -0.2198 -0.2783 -2.0323
 3311TIP3    H231425   2.827   1.492  13.631 -0.4791 -0.1832  0.9183
 3312TIP3   OH231426   6.680   5.191   1.641  1.0525  0.7728  0.8053
 3312TIP3    H131427   6.662   5.273   1.687 -1.0530  0.1706  1.1308
 3312TIP3    H231428   6.633   5.199   1.558 -2.0540 -1.3600  2.2004
 3313TIP3   OH231429   1.710   2.940   4.938 -0.6073 -0.3456 -0.4615
 3313TIP3    H131430   1.629   2.982   4.911 -0.5917 -0.0492 -0.0611
 3313TIP3    H231431   1.690   2.904   5.025 -0.0179  0.6113  0.0893
 3314TIP3   OH231432   6.670   6.315   1.987 -0.0796  0.3744 -0.6862
 3314TIP3    H131433   6.625   6.368   2.053  0.7648  1.1982 -0.7528
 3314TIP3    H231434   6.605   6.305   1.917 -0.7980 -0.0478  0.0112
 3315TIP3   OH231435   4.216   4.171  15.513  0.8318  0.0159 -0.0081
 3315TIP3    H131436   4.239   4.205  15.426 -0.7603  1.3750  0.0555
 3315TIP3    H231437   4.298   4.174  15.562  1.2427  1.6893 -0.7112
 3316TIP3   OH231438   5.695   2.068   4.294 -0.4709  0.2982  0.7044
 3316TIP3    H131439   5.790   2.075   4.289 -0.3478 -1.5956 -0.6499
 3316TIP3    H231440   5.677   1.975   4.280 -2.3932  0.0875  3.5540
 3317TIP3   OH231441   2.332   2.378   3.557  0.1112  0.1330  0.1185
 3317TIP3    H131442   2.346   2.414   3.470  0.9490  0.4600  0.3820
 3317TIP3    H231443   2.236   2.377   3.567 -0.0294 -0.6319 -1.0894
 3318TIP3   OH231444   3.347   4.906   6.020 -0.2520 -0.1956 -0.6778
 3318TIP3    H131445   3.438   4.898   5.992  0.0105 -1.4939  0.4421
 3318TIP3    H231446   3.304   4.829   5.985 -0.1571 -1.2862  1.4185
 3319TIP3   OH231447   0.437   6.125  15.180  0.0645 -0.0465  0.7177
 3319TIP3    H131448   0.490   6.070  15.237 -1.0498 -0.2036  1.6233
 3319TIP3    H231449   0.440   6.081  15.095  0.1050 -0.9034  1.1536
 3320TIP3   OH231450   5.096   0.950   3.423 -0.3640  0.6972 -0.1224
 3320TIP3    H131451   5.090   0.957   3.518  0.6192 -1.8524  0.1997
 3320TIP3    H231452   5.032   1.014   3.391 -1.1247  1.2400  2.2283
 3321TIP3   OH231453   0.646   1.131  10.647  0.3903 -0.1613  0.2166
 3321TIP3    H131454   0.598   1.115  10.565 -0.2535 -0.0413  0.5705
 3321TIP3    H231455   0.634   1.051  10.698  0.1455  0.0708  0.5185
 3322TIP3   OH231456   5.208   4.655   2.518  0.1267 -0.3373 -0.0927
 3322TIP3    H131457   5.286   4.708   2.532  0.7568  0.0176 -3.8944
 3322TIP3    H231458   5.135   4.716   2.529  0.2925 -0.5135  2.7648
 3323TIP3   OH231459   5.300   2.416   3.209 -0.7407  0.0904 -0.8372
 3323TIP3    H131460   5.211   2.451   3.210 -0.3540  1.2483  2.1314
 3323TIP3    H231461   5.289   2.323   3.231 -1.3317 -0.3991 -2.9670
 3324TIP3   OH231462   1.345   1.062   3.895  0.0077 -0.0088  0.1608
 3324TIP3    H131463   1.310   1.150   3.882 -0.0811  0.2569  1.8824
 3324TIP3    H231464   1.398   1.045   3.817 -0.1882  1.4590 -0.3272
 3325TIP3   OH231465   0.441   0.960   6.079  0.5001  0.3048  0.1091
 3325TIP3    H131466   0.528   0.996   6.063  1.0147 -1.5020 -1.4208
 3325TIP3    H231467   0.406   0.942   5.991 -0.7505 -0.4963  0.7470
 3326TIP3   OH231468   3.976   5.570  14.232 -0.2272  0.0341  0.0534
 3326TIP3    H131469   3.954   5.506  14.299  0.3968 -0.9417 -0.6387
 3326TIP3    H231470   4.071   5.561  14.220 -0.4293 -0.4545 -1.5406
 3327TIP3   OH231471   2.360   2.343  12.064 -0.0719  0.0530  0.3571
 3327TIP3    H131472   2.338   2.296  11.983  1.6406 -0.4102  0.1262
 3327TIP3    H231473   2.430   2.403  12.039 -0.8702  1.3498  1.0962
 3328TIP3   OH231474   0.637   2.277   1.585  0.2171  0.0256 -0.1852
 3328TIP3    H131475   0.710   2.338   1.598  0.7368 -0.7143  0.4994
 3328TIP3    H231476   0.577   2.323   1.527  0.7557  1.0520  0.0494
 3329TIP3   OH231477   5.162   4.922  11.242 -0.0532  0.3975 -0.4175
 3329TIP3    H131478   5.099   4.855  11.213  3.0192 -2.9032 -0.2253
 3329TIP3    H231479   5.198   4.957  11.162 -0.2132  0.2832 -0.5419
 3330TIP3   OH231480   3.426   2.761  11.924  0.1857 -0.3968 -0.0674
 3330TIP3    H131481   3.494   2.736  11.987  1.4707  1.2122 -0.7390
 3330TIP3    H231482   3.343   2.743  11.970  1.0607 -0.1556  1.7118
 3331TIP3   OH231483   0.007   4.871   5.720  0.0624 -0.1547 -0.3752
 3331TIP3    H131484  -0.056   4.843   5.787  1.8334  0.4099  1.6160
 3331TIP3    H231485   0.022   4.792   5.668 -0.0369 -1.1049  0.9911
 3332TIP3   OH231486   5.983   3.891   3.356 -0.0137 -0.0689 -0.3360
 3332TIP3    H131487   5.895   3.886   3.394 -0.6526  1.1160 -1.5536
 3332TIP3    H231488   6.042   3.868   3.428 -1.2180  1.1174  1.1062
 3333TIP3   OH231489   2.089   0.233  12.813  0.1074 -0.4667  0.0941
 3333TIP3    H131490   2.090   0.138  12.820  1.8698 -0.6372 -1.6995
 3333TIP3    H231491   2.033   0.262  12.885  1.2007 -2.7469  1.9864
 3334TIP3   OH231492   1.072   4.308   0.711 -0.0604  0.4018 -0.0482
 3334TIP3    H131493   1.140   4.246   0.739 -0.2992  0.1212 -0.0784
 3334TIP3    H231494   1.111   4.352   0.635  1.3954  2.6133  1.8534
 3335TIP3   OH231495   2.697   1.805  13.220  0.2831 -0.0500  0.3818
 3335TIP3    H131496   2.697   1.881  13.161  0.8406 -1.2341 -1.2177
 3335TIP3    H231497   2.680   1.842  13.307 -1.9862  1.6409 -0.6785
 3336TIP3   OH231498   5.344   1.203  10.429  0.6104  0.1523  0.1994
 3336TIP3    H131499   5.260   1.237  10.399  0.6114  0.6081  0.7185
 3336TIP3    H231500   5.321   1.122  10.475  0.4030  0.5243  0.7609
 3337TIP3   OH231501   3.588   4.839   0.538  0.5654 -0.0184 -0.0830
 3337TIP3    H131502   3.543   4.763   0.575  0.1007 -0.0992 -0.7974
 3337TIP3    H231503   3.563   4.839   0.445  2.1763 -0.1634 -0.5448
 3338TIP3   OH231504   1.698   0.114  11.667 -0.0218 -0.1938 -0.1221
 3338TIP3    H131505   1.607   0.141  11.675 -0.4565 -1.5977 -0.1232
 3338TIP3    H231506   1.699   0.052  11.594  1.0139  0.1493 -0.4155
 3339TIP3   OH231507   1.742   1.958   4.303 -0.3293 -0.6424  0.2374
 3339TIP3    H131508   1.698   1.995   4.380  0.0609 -2.6900  1.5357
 3339TIP3    H231509   1.752   2.032   4.243 -1.8525  0.7458  1.5881
 3340TIP3   OH231510   3.710   0.672   2.260  0.0633  0.3027  0.1505
 3340TIP3    H131511   3.755   0.631   2.186 -1.9183 -0.5710 -0.6168
 3340TIP3    H231512   3.619   0.680   2.232 -0.5256  0.9184  2.1056
 3341TIP3   OH231513   6.366   4.790   0.658  0.0006 -0.0625  0.9683
 3341TIP3    H131514   6.461   4.777   0.655  0.3222  1.8842  1.1449
 3341TIP3    H231515   6.350   4.859   0.593 -1.5621 -1.5370 -0.3203
 3342TIP3   OH231516   0.372   6.458  14.266  0.0727 -0.0933 -0.1922
 3342TIP3    H131517   0.435   6.519  14.228  0.8960 -0.7473  0.0662
 3342TIP3    H231518   0.333   6.505  14.340  1.8865 -0.3935  1.0246
 3343TIP3   OH231519   2.860   3.941  15.163  0.2070  0.7407 -0.1468
 3343TIP3    H131520   2.937   3.886  15.149  0.5820  1.3554 -0.5550
 3343TIP3    H231521   2.839   3.931  15.256  1.4050  1.3583  0.2051
 3344TIP3   OH231522   3.325   6.369   3.348  0.1178  0.1510  0.9170
 3344TIP3    H131523   3.317   6.446   3.404  0.9826 -1.0258  2.7623
 3344TIP3    H231524   3.418   6.367   3.323 -0.3903  1.0919 -1.3183
 3345TIP3   OH231525   2.239   6.515   3.327  0.4046  0.2321 -0.0366
 3345TIP3    H131526   2.172   6.472   3.273  1.6369 -0.6823 -0.8745
 3345TIP3    H231527   2.283   6.576   3.268  2.9522 -2.0420 -0.6831
 3346TIP3   OH231528   6.740   3.442   2.549  0.2434  0.1039  0.1070
 3346TIP3    H131529   6.746   3.390   2.630  2.5915  1.1621  0.6948
 3346TIP3    H231530   6.651   3.476   2.550 -0.3202 -1.2395  1.3842
 3347TIP3   OH231531   3.455   1.580  12.500  0.4851  0.1848 -0.6986
 3347TIP3    H131532   3.373   1.630  12.506  1.0303  0.9120  3.0191
 3347TIP3    H231533   3.522   1.638  12.536  2.0631 -1.5305 -0.7245
 3348TIP3   OH231534   5.095   5.048  16.188  0.0136 -0.1707  0.0152
 3348TIP3    H131535   5.087   4.954  16.205  0.1337 -0.3623 -0.9088
 3348TIP3    H231536   5.029   5.089  16.244  0.1534 -0.7788  0.6309
 3349TIP3   OH231537   2.956   6.765  15.508  0.1707  0.3065  0.3354
 3349TIP3    H131538   2.865   6.744  15.525  0.1963  0.2465  0.3983
 3349TIP3    H231539   2.979   6.714  15.431 -0.3659  1.6815 -0.7739
 3350TIP3   OH231540   0.722   6.703  10.273  0.1351  0.4144 -0.2887
 3350TIP3    H131541   0.712   6.734  10.183  2.3168  0.4475 -0.5862
 3350TIP3    H231542   0.735   6.608  10.265  2.2909  0.6453 -0.2724
 3351TIP3   OH231543   4.631   2.889   2.507  0.4617 -0.3081  0.4159
 3351TIP3    H131544   4.645   2.905   2.414  1.9444 -0.6386  0.5575
 3351TIP3    H231545   4.617   2.794   2.514 -2.6125  0.0294  0.2369
 3352TIP3   OH231546   3.779   2.664  11.572  0.6066  0.1525 -0.2171
 3352TIP3    H131547   3.797   2.681  11.480 -1.1691 -1.0546 -0.8605
 3352TIP3    H231548   3.811   2.575  11.587 -1.3638 -0.6662 -0.4455
 3353TIP3   OH231549   5.466   6.792  16.551 -0.1168  0.0160  0.2818
 3353TIP3    H131550   5.406   6.822  16.619 -1.0386 -2.0799  0.4639
 3353TIP3    H231551   5.411   6.782  16.474  0.5168  0.4114 -0.2265
 3354TIP3   OH231552   0.635   3.035  14.135  0.1532  0.4675 -0.0624
 3354TIP3    H131553   0.567   3.046  14.069 -1.0250  0.0346  1.0529
 3354TIP3    H231554   0.615   3.099  14.203  1.3730  0.9347 -0.1079
 3355TIP3   OH231555   2.748   5.840  12.372  0.4728  0.0677  0.0607
 3355TIP3    H131556   2.691   5.894  12.317  0.2890  1.0512  1.1686
 3355TIP3    H231557   2.799   5.903  12.423 -0.6051 -0.7371  2.2742
 3356TIP3   OH231558   2.548   5.514   5.337  0.1553 -0.5128 -0.2449
 3356TIP3    H131559   2.518   5.467   5.415  1.9589 -0.3267  0.6119
 3356TIP3    H231560   2.643   5.515   5.345  0.2530  2.0976 -0.9395
 3357TIP3   OH231561   4.734   6.517   3.851 -0.0822 -0.2311 -0.0236
 3357TIP3    H131562   4.780   6.537   3.933 -1.3848 -1.5529  1.1056
 3357TIP3    H231563   4.709   6.425   3.860 -0.8322 -0.2159 -1.6407
 3358TIP3   OH231564   5.581   3.819  16.348 -0.2154 -0.1347  0.1989
 3358TIP3    H131565   5.633   3.870  16.286 -1.2198  1.5602  0.6870
 3358TIP3    H231566   5.629   3.825  16.431 -2.0220  3.2267  1.2179
 3359TIP3   OH231567   6.047   2.300  16.522  0.1799 -0.3294  0.3356
 3359TIP3    H131568   6.019   2.209  16.518 -1.9418  0.1985  1.6557
 3359TIP3    H231569   6.059   2.318  16.615 -0.2301  0.9498  0.1596
 3360TIP3   OH231570   4.430   3.525   0.369 -0.5150  0.3422  0.0815
 3360TIP3    H131571   4.461   3.545   0.457 -3.3291 -0.4942  1.3729
 3360TIP3    H231572   4.480   3.447   0.343  0.4066  0.6521  0.8694
 3361TIP3   OH231573   0.830   4.993  13.473  0.2775 -0.3855 -0.0638
 3361TIP3    H131574   0.755   4.935  13.486 -0.2573  0.7926  3.0896
 3361TIP3    H231575   0.903   4.949  13.517  0.0475  0.8508  1.6686
 3362TIP3   OH231576   4.898   1.950   5.651 -0.2377 -0.5826  0.1495
 3362TIP3    H131577   4.913   1.917   5.739  0.4124  2.3420  1.2621
 3362TIP3    H231578   4.877   2.043   5.663 -0.6472 -0.1905 -2.7513
 3363TIP3   OH231579   2.068   2.522   3.832 -0.3606 -0.2475 -0.2614
 3363TIP3    H131580   2.126   2.553   3.763 -0.1366  1.3512  0.6031
 3363TIP3    H231581   2.004   2.592   3.844  0.2380  0.0299  1.8316
 3364TIP3   OH231582   0.084   0.198   5.432 -0.1788  0.2835 -0.1053
 3364TIP3    H131583   0.118   0.215   5.344 -1.8011  0.3654 -0.7490
 3364TIP3    H231584   0.090   0.104   5.443 -0.3975  0.2215 -0.4966
 3365TIP3   OH231585   5.301   4.698  11.023 -0.5252  0.0494  0.3054
 3365TIP3    H131586   5.368   4.735  11.081 -0.6121 -0.8290  1.0032
 3365TIP3    H231587   5.223   4.691  11.078 -1.1389  0.8574 -0.4414
 3366TIP3   OH231588   5.763   1.113  16.805 -0.1225  0.7532  0.3552
 3366TIP3    H131589   5.785   1.173  16.734  0.5034  0.9088  0.6737
 3366TIP3    H231590   5.675   1.081  16.784  0.4846 -0.0618 -1.0930
 3367TIP3   OH231591   0.188   6.142  14.735 -0.2504  0.6799  0.0281
 3367TIP3    H131592   0.171   6.111  14.824 -0.8185 -1.0104 -0.6361
 3367TIP3    H231593   0.276   6.179  14.740  0.4543 -0.9827  0.9215
 3368TIP3   OH231594   6.561   5.125   2.985  0.4093  0.2095 -0.0159
 3368TIP3    H131595   6.522   5.195   2.933 -0.3019  1.0846  1.6065
 3368TIP3    H231596   6.656   5.136   2.973  0.2600 -0.2236 -1.8334
 3369TIP3   OH231597   4.151   0.518   2.280 -0.7570 -0.5964 -0.2944
 3369TIP3    H131598   4.206   0.582   2.234 -1.8659 -0.8730 -2.0945
 3369TIP3    H231599   4.069   0.565   2.297 -0.8194 -0.9051  0.2685
 3370TIP3   OH231600   6.625   3.154  10.956  0.3273 -0.1020 -0.1672
 3370TIP3    H131601   6.612   3.155  10.861  0.8700  1.5317 -0.2435
 3370TIP3    H231602   6.576   3.077  10.986 -0.5319 -0.1635 -1.6626
 3371TIP3   OH231603   1.510   2.283   4.423 -0.1654  0.0966  0.1538
 3371TIP3    H131604   1.500   2.344   4.350 -0.8490 -1.2544 -0.9411
 3371TIP3    H231605   1.527   2.338   4.499  1.4940  1.5224 -1.1659
 3372TIP3   OH231606   2.484   3.042  15.070  0.2459  0.2989 -0.2513
 3372TIP3    H131607   2.500   3.116  15.129  0.9651  1.9288 -2.3760
 3372TIP3    H231608   2.411   3.070  15.015  0.8280 -0.3658 -1.3979
 3373TIP3   OH231609   3.438   6.888   1.419  0.1770 -0.2926  0.6820
 3373TIP3    H131610   3.474   6.858   1.335 -1.0827  0.3397 -0.1293
 3373TIP3    H231611   3.425   6.983   1.406 -1.2228 -0.4035  1.1115
 3374TIP3   OH231612   2.797   0.886   0.041  0.7231 -0.6899  0.6427
 3374TIP3    H131613   2.816   0.976   0.013 -0.2224  0.2267  2.7190
 3374TIP3    H231614   2.862   0.833  -0.005  1.1909  1.0146 -0.7961
 3375TIP3   OH231615   3.587   4.825  11.348  0.3954  0.0685 -0.6367
 3375TIP3    H131616   3.625   4.906  11.382  0.5722  0.1500 -1.0244
 3375TIP3    H231617   3.551   4.849  11.263 -0.7281  0.0342 -0.1816
 3376TIP3   OH231618   2.075   1.802   6.279 -0.1511  0.5468  0.4803
 3376TIP3    H131619   2.089   1.778   6.188  1.1784  0.2140  0.7526
 3376TIP3    H231620   2.044   1.892   6.276 -0.9734  0.2498 -0.3302
 3377TIP3   OH231621   3.461   3.081  12.874  0.1556 -0.1527  0.1527
 3377TIP3    H131622   3.441   3.140  12.946 -1.8144  0.9902 -1.2137
 3377TIP3    H231623   3.463   2.994  12.914  0.7795  0.5947  1.8324
 3378TIP3   OH231624   0.264   1.819   1.201 -0.2154 -0.3060  0.3684
 3378TIP3    H131625   0.305   1.885   1.145  2.6219 -2.3262 -0.1322
 3378TIP3    H231626   0.263   1.860   1.288 -0.0455  1.0010 -0.2129
 3379TIP3   OH231627   4.699   0.438  13.938  0.1742  0.0817 -0.2491
 3379TIP3    H131628   4.642   0.360  13.938  1.3510 -0.8109  0.4944
 3379TIP3    H231629   4.712   0.458  13.845  1.2585 -1.7060 -0.5332
 3380TIP3   OH231630   2.762   0.673  12.664  0.1573 -0.4742  0.8624
 3380TIP3    H131631   2.765   0.740  12.733 -0.7692  0.4364  0.0427
 3380TIP3    H231632   2.852   0.668  12.632  0.9490 -1.9246  3.0300
 3381TIP3   OH231633   4.247   0.905  14.880 -0.3814  0.2343 -0.2683
 3381TIP3    H131634   4.223   0.812  14.879  0.5316 -0.0158  0.2512
 3381TIP3    H231635   4.207   0.939  14.960  0.3499 -0.0113  0.2081
 3382TIP3   OH231636   0.871   6.720   3.279  0.2000  0.2019  0.1362
 3382TIP3    H131637   0.789   6.671   3.284 -0.1611  0.6603 -1.1422
 3382TIP3    H231638   0.919   6.679   3.207  0.9249  0.2161  0.5964
 3383TIP3   OH231639   2.525   3.218   2.696 -0.4522  0.0083  0.1040
 3383TIP3    H131640   2.524   3.143   2.755 -3.6300  0.0274  0.2537
 3383TIP3    H231641   2.513   3.180   2.609 -2.3156  0.2569  0.2025
 3384TIP3   OH231642   2.293   4.968  13.697 -0.2439 -0.0303 -0.4462
 3384TIP3    H131643   2.222   4.979  13.760  0.7232 -0.0072  0.6864
 3384TIP3    H231644   2.291   5.048  13.645  1.0337  1.5743  1.7980
 3385TIP3   OH231645   0.651   0.733   0.733 -0.0212 -0.1825 -0.1091
 3385TIP3    H131646   0.644   0.706   0.824  0.2766  1.3622  0.3973
 3385TIP3    H231647   0.727   0.685   0.699  0.3873 -0.1284  0.7040
 3386TIP3   OH231648   4.969   5.606  14.844  0.2779  0.4718  0.3368
 3386TIP3    H131649   5.008   5.634  14.761  0.6922 -0.3764  0.2341
 3386TIP3    H231650   4.884   5.649  14.846  0.8685  1.6950  0.1720
 3387TIP3   OH231651   5.594   0.975   2.737  0.4083  0.0435 -0.3750
 3387TIP3    H131652   5.592   1.069   2.756  1.4406  0.0146 -0.0438
 3387TIP3    H231653   5.586   0.970   2.642 -2.8701  0.2779 -0.2308
 3388TIP3   OH231654   2.502   2.977  16.028 -0.2880  0.5154 -0.4969
 3388TIP3    H131655   2.544   2.919  15.964 -0.7652  0.0010 -0.3563
 3388TIP3    H231656   2.408   2.956  16.021 -0.1815 -1.4688  2.1681
 3389TIP3   OH231657   1.863   4.116   0.101  0.2508 -0.2064 -0.0428
 3389TIP3    H131658   1.941   4.172   0.096  0.3615 -0.4157 -0.8335
 3389TIP3    H231659   1.801   4.157   0.040  0.8163 -1.6703 -1.6771
 3390TIP3   OH231660   2.319   1.884  12.532 -0.6804 -0.7318  0.1230
 3390TIP3    H131661   2.268   1.951  12.577 -0.7341 -0.7082  0.0282
 3390TIP3    H231662   2.331   1.919  12.443  0.4640 -0.2214  0.4556
 3391TIP3   OH231663   0.378   0.534  11.655 -0.1847  0.5178 -0.5649
 3391TIP3    H131664   0.331   0.616  11.641 -1.3930 -0.1494 -0.5201
 3391TIP3    H231665   0.330   0.469  11.605 -1.3174 -0.8321  2.0665
 3392TIP3   OH231666   5.411   0.410  13.298  0.5894  0.1389  0.2875
 3392TIP3    H131667   5.463   0.330  13.288  2.1860  1.0176  1.3029
 3392TIP3    H231668   5.451   0.473  13.238 -0.4142  0.3368 -0.2096
 3393TIP3   OH231669   4.868   4.464  16.078  0.1431  0.5049  0.3602
 3393TIP3    H131670   4.838   4.492  15.991  0.8399  0.5773  0.1419
 3393TIP3    H231671   4.814   4.387  16.097 -0.3841  0.7981  0.0948
 3394TIP3   OH231672   1.798   3.383  10.862 -0.6025 -0.3430 -0.2180
 3394TIP3    H131673   1.739   3.440  10.911 -0.4542 -0.2432 -0.1566
 3394TIP3    H231674   1.755   3.372  10.777 -0.9194 -0.6155 -0.0293
 3395TIP3   OH231675   6.398   5.793   5.014  0.1315 -0.1263  0.0809
 3395TIP3    H131676   6.336   5.720   5.020 -0.3962  0.1177 -1.7542
 3395TIP3    H231677   6.412   5.820   5.105 -0.4914 -1.8114  0.7153
 3396TIP3   OH231678   5.303   1.206  13.995 -0.0983  0.0482  0.3622
 3396TIP3    H131679   5.237   1.214  13.927  0.2182  0.5493  0.1081
 3396TIP3    H231680   5.279   1.127  14.043 -0.5826 -0.0545 -0.0469
 3397TIP3   OH231681   2.773   1.906  12.483  0.2821  0.5038 -0.3425
 3397TIP3    H131682   2.705   1.866  12.537  0.5635  0.8960  0.3073
 3397TIP3    H231683   2.840   1.838  12.474 -0.2581  0.0567 -1.1257
 3398TIP3   OH231684   4.586   3.072  16.399  0.1280  0.1735  0.4449
 3398TIP3    H131685   4.560   3.024  16.478 -0.3196  0.8462  0.7172
 3398TIP3    H231686   4.653   3.018  16.359 -2.1149 -1.9829 -0.6347
 3399TIP3   OH231687   2.043   6.572   5.065  0.2699  0.2322  0.4304
 3399TIP3    H131688   2.003   6.597   5.148 -1.1935 -1.1279  0.1809
 3399TIP3    H231689   2.048   6.654   5.015 -3.0211  0.4244  0.1858
 3400TIP3   OH231690   4.871   4.018   5.607  0.1242  0.1991 -0.2646
 3400TIP3    H131691   4.953   3.984   5.570  0.4334  0.4420  0.1910
 3400TIP3    H231692   4.896   4.054   5.692 -0.2256  1.4066 -0.6545
 3401TIP3   OH231693   3.878   4.434   4.871 -0.6029 -0.1679 -0.1275
 3401TIP3    H131694   3.800   4.476   4.834 -0.7530 -0.0823  0.2813
 3401TIP3    H231695   3.881   4.348   4.829  0.0136  0.4373 -1.3973
 3402TIP3   OH231696   4.797   4.794   2.705  0.1991  0.2981  0.1241
 3402TIP3    H131697   4.852   4.836   2.771  1.2714  0.3599 -0.7821
 3402TIP3    H231698   4.733   4.861   2.681 -1.4743 -0.3399  2.4626
 3403TIP3   OH231699   3.085   3.494   1.701  0.5519 -0.1873  0.0688
 3403TIP3    H131700   3.164   3.440   1.711  1.1634  0.6430 -0.2293
 3403TIP3    H231701   3.040   3.485   1.785  0.0431 -2.0809 -0.3576
 3404TIP3   OH231702   5.916   4.205  11.118  1.0393 -0.0827  0.2667
 3404TIP3    H131703   5.851   4.140  11.092 -0.6276  2.1143 -1.4854
 3404TIP3    H231704   5.893   4.227  11.208 -1.3412  1.2671 -0.5719
 3405TIP3   OH231705   2.328   6.369   4.593  0.6790  0.0149  0.1494
 3405TIP3    H131706   2.311   6.461   4.571 -0.0255 -0.0912  0.2292
 3405TIP3    H231707   2.341   6.369   4.687  1.7777  0.1868  0.0109
 3406TIP3   OH231708   3.976   2.153   1.083  0.0921 -0.2824  0.1348
 3406TIP3    H131709   4.066   2.145   1.053 -0.2003  0.7515 -1.1083
 3406TIP3    H231710   3.940   2.226   1.033 -1.6784 -1.1625  0.0297
 3407TIP3   OH231711   2.490   0.031   1.377  0.0562  0.3879  0.4299
 3407TIP3    H131712   2.398   0.052   1.390  0.0096  0.1488  0.4854
 3407TIP3    H231713   2.525   0.021   1.465 -0.1298 -0.6684  0.3959
 3408TIP3   OH231714   2.302   1.828  13.498 -0.3287 -0.2469  0.4996
 3408TIP3    H131715   2.396   1.813  13.510 -0.1168  0.2337 -0.4430
 3408TIP3    H231716   2.289   1.919  13.525 -0.9196 -0.9025  2.5961
 3409TIP3   OH231717   1.041   5.189  13.888 -0.2539 -0.1834  0.0927
 3409TIP3    H131718   1.011   5.158  13.973  0.9372  1.8048  1.3216
 3409TIP3    H231719   0.961   5.219  13.844 -0.8727 -1.1735  0.5046
 3410TIP3   OH231720   1.605   2.317   1.054 -0.3540 -0.0559  0.7555
 3410TIP3    H131721   1.696   2.287   1.048 -0.1009  0.8032 -0.0862
 3410TIP3    H231722   1.578   2.329   0.963 -0.5597  1.8126  1.0172
 3411TIP3   OH231723   2.921   0.669  16.767  0.0482  0.0131 -0.3010
 3411TIP3    H131724   2.984   0.607  16.732  0.3269  0.0778  0.0801
 3411TIP3    H231725   2.918   0.651  16.861 -0.3720  0.1244 -0.2891
 3412TIP3   OH231726   5.621   6.292  10.777  0.2344 -0.0116 -0.2856
 3412TIP3    H131727   5.542   6.240  10.789 -0.2971  0.4921 -1.4134
 3412TIP3    H231728   5.594   6.363  10.718  0.7453  1.9875  1.7715
 3413TIP3   OH231729   2.980   1.200   3.835  0.6452  0.2357 -0.1457
 3413TIP3    H131730   2.993   1.209   3.741  0.9633 -1.1924 -0.2637
 3413TIP3    H231731   3.026   1.119   3.858 -0.0209  0.1875  1.1115
 3414TIP3   OH231732   2.654   2.243  12.462  0.2154 -0.1172  0.4204
 3414TIP3    H131733   2.643   2.306  12.533 -2.2805 -1.3050  1.2034
 3414TIP3    H231734   2.566   2.232  12.426  0.6979 -2.5545 -0.1945
 3415TIP3   OH231735   2.000   0.755   3.981  0.4084  0.4277  0.1702
 3415TIP3    H131736   2.075   0.745   3.923  1.2822 -0.9583  1.4461
 3415TIP3    H231737   1.960   0.668   3.984 -1.6799  1.2673 -0.9594
 3416TIP3   OH231738   0.480   5.301   2.911  0.0896 -0.2833  0.4427
 3416TIP3    H131739   0.505   5.361   2.841  0.1490 -0.1826  0.5481
 3416TIP3    H231740   0.537   5.326   2.984  1.8825 -2.0720 -0.2542
 3417TIP3   OH231741   4.999   5.781  14.310  0.2090 -0.1200  0.8079
 3417TIP3    H131742   5.035   5.735  14.233  2.4842 -0.5316  2.0216
 3417TIP3    H231743   5.035   5.732  14.385 -1.2107  0.8155  2.1364
 3418TIP3   OH231744   2.692   5.002   4.105 -0.1766 -0.4951 -0.6865
 3418TIP3    H131745   2.674   4.980   4.196  0.6085 -1.5367 -0.7665
 3418TIP3    H231746   2.784   5.029   4.104 -0.9302  2.4646 -0.6884
 3419TIP3   OH231747   4.279   1.759   4.741  0.2265  0.1244 -0.0121
 3419TIP3    H131748   4.342   1.717   4.683 -1.6268  0.0937 -2.1400
 3419TIP3    H231749   4.281   1.852   4.716  0.7150  0.4643  1.2014
 3420TIP3   OH231750   6.139   0.310   1.148 -0.3048 -0.1943 -0.1365
 3420TIP3    H131751   6.131   0.309   1.052  3.4687  0.0632 -0.6202
 3420TIP3    H231752   6.101   0.393   1.174  0.4900  0.7234 -1.7112
 3421TIP3   OH231753   1.776   4.623   2.432  0.3721  0.0399  0.4684
 3421TIP3    H131754   1.853   4.662   2.391 -0.5329  0.8080 -0.5513
 3421TIP3    H231755   1.811   4.571   2.504  2.1138 -2.0925 -1.7616
 3422TIP3   OH231756   0.232   6.536   5.388  0.3675 -0.1672 -0.8919
 3422TIP3    H131757   0.151   6.575   5.419 -0.0059 -0.7672 -1.0955
 3422TIP3    H231758   0.245   6.572   5.300 -0.0165 -0.5567 -1.1109
 3423TIP3   OH231759   3.682   6.141  13.002 -0.6519 -0.2460  0.3001
 3423TIP3    H131760   3.664   6.193  12.924  0.2880 -0.7533 -0.2717
 3423TIP3    H231761   3.719   6.203  13.065 -0.0589 -0.1106 -0.1768
 3424TIP3   OH231762   2.096   1.620   2.281 -0.5302 -0.4308  0.0848
 3424TIP3    H131763   2.046   1.694   2.245  1.6219  0.6081 -0.9357
 3424TIP3    H231764   2.031   1.551   2.292 -2.1493  0.7404 -1.4916
 3425TIP3   OH231765   5.773   2.329   0.988  0.1924  0.2736  0.3232
 3425TIP3    H131766   5.854   2.285   0.964  0.0149  0.5081 -0.7375
 3425TIP3    H231767   5.789   2.361   1.077  2.2752  2.6444 -0.7905
 3426TIP3   OH231768   1.303   1.585  11.270  0.2954 -0.1399  0.0761
 3426TIP3    H131769   1.343   1.669  11.290  0.7557 -0.0302 -1.1962
 3426TIP3    H231770   1.225   1.582  11.325 -1.1196  2.2414 -1.5850
 3427TIP3   OH231771   4.523   6.684   3.349 -0.4463  0.8249 -0.0382
 3427TIP3    H131772   4.558   6.627   3.280 -1.5995  2.2738 -1.9301
 3427TIP3    H231773   4.600   6.719   3.393  0.2972 -1.5305  0.6723
 3428TIP3   OH231774   5.962   3.862  15.466  0.2566  0.1124 -0.0518
 3428TIP3    H131775   5.958   3.897  15.555 -0.7996  0.0379 -0.0583
 3428TIP3    H231776   6.053   3.834  15.455  0.5145  0.5853  0.8216
 3429TIP3   OH231777   3.001   4.786   4.058  0.3816  0.1902 -0.6262
 3429TIP3    H131778   3.094   4.768   4.041  0.9068  2.0157  0.0761
 3429TIP3    H231779   2.979   4.729   4.132  1.3995  0.8644  0.2243
 3430TIP3   OH231780   6.488   2.037  15.911 -0.3363  0.1070  0.1794
 3430TIP3    H131781   6.415   2.065  15.966  0.1948 -0.4146  1.1760
 3430TIP3    H231782   6.487   1.941  15.917  1.4970  0.1519  1.6445
 3431TIP3   OH231783   1.730   5.186   3.591 -0.2281  0.4028 -0.0086
 3431TIP3    H131784   1.738   5.098   3.627  0.3669 -0.1573 -1.4308
 3431TIP3    H231785   1.639   5.193   3.564 -0.4380  0.4765  0.7008
 3432TIP3   OH231786   5.925   5.207  12.772  0.6165 -0.0029  0.3470
 3432TIP3    H131787   5.935   5.302  12.772  0.7641  0.0441 -1.7445
 3432TIP3    H231788   5.934   5.182  12.679  0.7508 -2.0717  0.8586
 3433TIP3   OH231789   3.346   2.602   4.116  0.4074 -0.5220  0.4538
 3433TIP3    H131790   3.332   2.643   4.202 -2.0464  0.5428 -0.3680
 3433TIP3    H231791   3.268   2.547   4.103  1.2085 -1.4254 -0.6959
 3434TIP3   OH231792   0.975   0.859   1.259  0.1686 -0.5448  0.3660
 3434TIP3    H131793   0.982   0.781   1.315 -1.0509  0.2138  1.6298
 3434TIP3    H231794   0.921   0.920   1.309  1.1012  1.1432 -0.5792
 3435TIP3   OH231795   6.464   4.208  15.845 -0.3372  0.3683 -0.3737
 3435TIP3    H131796   6.556   4.193  15.866 -0.7067 -1.1271  0.3405
 3435TIP3    H231797   6.429   4.254  15.922 -0.7047 -1.2293  0.4563
 3436TIP3   OH231798   6.373   6.697   4.496 -0.1904 -0.7000  0.0810
 3436TIP3    H131799   6.417   6.721   4.578  2.0436 -0.8678 -0.9964
 3436TIP3    H231800   6.321   6.774   4.474 -2.3187 -1.2944  2.5018
 3437TIP3   OH231801   2.241   3.452   0.019  0.2508  0.3011 -0.2295
 3437TIP3    H131802   2.258   3.475  -0.072  3.2160  0.9400  0.3791
 3437TIP3    H231803   2.213   3.534   0.060  1.3558  0.6041 -0.0661
 3438TIP3   OH231804   1.309   4.548   2.587  0.4866 -0.6755  0.2860
 3438TIP3    H131805   1.382   4.609   2.575 -0.7016  1.0230  1.1990
 3438TIP3    H231806   1.244   4.574   2.522  0.7289 -2.2926 -0.6484
 3439TIP3   OH231807   3.074   1.307  14.335  0.0057 -0.5291 -0.0536
 3439TIP3    H131808   3.074   1.258  14.253 -0.0183 -3.3909  1.5193
 3439TIP3    H231809   3.112   1.247  14.399 -0.8474  1.2216  2.2533
 3440TIP3   OH231810   4.672   3.990  15.232 -0.2615  0.0412 -0.3288
 3440TIP3    H131811   4.696   3.957  15.145 -0.6942 -1.4886  0.0946
 3440TIP3    H231812   4.683   4.085  15.226  2.7690 -0.2536 -1.0939
 3441TIP3   OH231813   5.594   6.787   1.975 -0.0866  0.1886 -0.0230
 3441TIP3    H131814   5.683   6.759   1.954  0.4333  1.0429  0.9096
 3441TIP3    H231815   5.606   6.873   2.016 -1.4086  0.6549 -0.5767
 3442TIP3   OH231816   6.547   3.162  10.690 -0.1538 -0.1413 -0.4791
 3442TIP3    H131817   6.517   3.125  10.607 -3.3297  1.1526 -0.0496
 3442TIP3    H231818   6.495   3.242  10.701  0.5107  0.0082  2.4880
 3443TIP3   OH231819   0.311   1.519  12.195 -0.2186 -0.2186  0.7327
 3443TIP3    H131820   0.375   1.452  12.219  1.5894  0.4448 -1.7953
 3443TIP3    H231821   0.357   1.602  12.209 -0.9869  0.3272  0.0781
 3444TIP3   OH231822   1.386   3.149  13.862  0.3608 -0.0151 -0.3068
 3444TIP3    H131823   1.447   3.183  13.928 -1.0235  1.0848  0.4602
 3444TIP3    H231824   1.441   3.131  13.786  1.8845 -0.5755  0.8624
 3445TIP3   OH231825   1.230   3.777  14.995 -0.6386  0.3437 -0.1272
 3445TIP3    H131826   1.260   3.813  15.078 -2.2942  1.0404  0.2136
 3445TIP3    H231827   1.149   3.825  14.976 -0.2799  0.2290 -2.1647
 3446TIP3   OH231828   5.526   0.427  12.560  0.0439  0.5452  0.4303
 3446TIP3    H131829   5.532   0.356  12.496 -0.0992  1.1101 -0.2205
 3446TIP3    H231830   5.617   0.451  12.577  0.1255 -0.2276  1.1597
 3447TIP3   OH231831   3.555   0.973   4.973 -0.3180 -0.0426 -0.7678
 3447TIP3    H131832   3.628   1.003   4.919 -0.3484  0.0664 -0.7470
 3447TIP3    H231833   3.496   1.048   4.979 -0.3849 -0.0997 -0.7033
 3448TIP3   OH231834   3.592   6.347   4.873  0.3673  0.0500  0.2527
 3448TIP3    H131835   3.586   6.377   4.782  1.2909 -0.4244  0.0303
 3448TIP3    H231836   3.531   6.273   4.878  0.6569 -0.2110 -0.0981
 3449TIP3   OH231837   4.124   1.782  14.415 -0.2248  0.0611 -0.2573
 3449TIP3    H131838   4.215   1.804  14.435 -0.0010 -0.2442 -0.9331
 3449TIP3    H231839   4.129   1.701  14.364 -1.0436 -2.1360  2.8269
 3450TIP3   OH231840   3.196   6.337   1.586  0.3473  0.6438 -0.4859
 3450TIP3    H131841   3.253   6.400   1.541 -1.0668  0.0822 -3.2886
 3450TIP3    H231842   3.132   6.392   1.632  0.0229  1.3196 -1.6753
 3451TIP3   OH231843   1.121   5.638   5.488 -0.0352  0.2829  0.3596
 3451TIP3    H131844   1.153   5.652   5.577 -1.2272  0.0034  0.8459
 3451TIP3    H231845   1.044   5.581   5.499  0.2427 -0.3731 -0.9077
 3452TIP3   OH231846   5.157   3.366   1.140 -0.0602  0.4169  0.2004
 3452TIP3    H131847   5.175   3.383   1.232  0.1304  1.2069  0.0235
 3452TIP3    H231848   5.148   3.453   1.100  1.4034  0.1550 -0.8292
 3453TIP3   OH231849   3.731   2.370  13.267  0.0495 -0.0771 -0.2313
 3453TIP3    H131850   3.788   2.444  13.286  1.3687 -1.4886  1.6239
 3453TIP3    H231851   3.783   2.293  13.289 -1.9857 -1.5038 -0.1036
 3454TIP3   OH231852   5.212   5.343   4.458 -0.2790 -0.4003 -0.3075
 3454TIP3    H131853   5.240   5.422   4.412 -0.3169 -0.2186 -0.0271
 3454TIP3    H231854   5.133   5.369   4.505 -1.1264 -0.9991 -1.3485
 3455TIP3   OH231855   6.552   2.045   0.745 -0.5350 -0.1694  0.5818
 3455TIP3    H131856   6.485   2.099   0.787 -1.0247 -0.3599  0.0614
 3455TIP3    H231857   6.622   2.106   0.723 -0.2900 -0.0660  1.6431
 3456TIP3   OH231858   3.546   0.076  14.975  0.6923  0.2801  0.4002
 3456TIP3    H131859   3.523   0.117  15.058 -1.1536 -0.9198  0.5382
 3456TIP3    H231860   3.479   0.108  14.914  0.1525 -1.2368  0.1531
 3457TIP3   OH231861   2.263   6.901  11.602 -0.5183  0.0890 -0.3646
 3457TIP3    H131862   2.278   6.989  11.637 -4.1404  1.0861 -0.8506
 3457TIP3    H231863   2.296   6.842  11.669  0.4723  1.8249  0.7567
 3458TIP3   OH231864   0.187   6.191  14.443 -0.3282 -0.0253 -0.0781
 3458TIP3    H131865   0.282   6.189  14.435 -0.3848 -0.8593 -0.6299
 3458TIP3    H231866   0.171   6.184  14.537  0.1404 -0.6797 -0.0402
 3459TIP3   OH231867   5.004   5.237  11.087  0.4230 -0.4262  0.3443
 3459TIP3    H131868   4.952   5.296  11.033 -1.5986 -1.7319  0.7398
 3459TIP3    H231869   4.991   5.270  11.176 -0.6726 -1.3838  0.5600
 3460TIP3   OH231870   4.127   6.419  10.894 -0.1438 -0.0863  0.0510
 3460TIP3    H131871   4.185   6.356  10.937 -2.7321 -2.7886 -0.0749
 3460TIP3    H231872   4.077   6.458  10.965 -1.1806 -1.0886 -0.0954
 3461TIP3   OH231873   5.981   6.468   0.751 -0.1553 -0.3364  0.7026
 3461TIP3    H131874   5.989   6.529   0.678  0.5899 -1.0999  0.1229
 3461TIP3    H231875   5.896   6.488   0.790 -0.9250 -0.4226 -0.8596
 3462TIP3   OH231876   4.455   5.923   4.055 -0.6611  0.2995 -0.1222
 3462TIP3    H131877   4.492   5.937   4.142  2.0112 -1.5475 -0.7996
 3462TIP3    H231878   4.529   5.938   3.995 -2.1100  0.4085 -1.9878
 3463TIP3   OH231879   0.911   2.589   5.823 -0.1470  0.0365 -0.2921
 3463TIP3    H131880   0.945   2.660   5.877  0.5490  0.3069 -1.0663
 3463TIP3    H231881   0.987   2.533   5.808 -0.8951 -1.5150  1.2317
 3464TIP3   OH231882   1.779   2.512  16.849  0.1726 -0.5839  0.3043
 3464TIP3    H131883   1.692   2.476  16.864  0.5826 -0.9583  1.9649
 3464TIP3    H231884   1.768   2.606  16.855 -0.3571 -0.5420 -0.9772
 3465TIP3   OH231885   1.529   3.878  12.692 -0.0808  0.2457 -0.1323
 3465TIP3    H131886   1.512   3.819  12.765 -0.0440 -0.4412 -0.6755
 3465TIP3    H231887   1.442   3.911  12.668  0.1069  2.6296  1.9541
 3466TIP3   OH231888   5.899   1.667   0.747 -0.0387 -0.1365 -0.0387
 3466TIP3    H131889   5.880   1.720   0.824  0.9678 -0.0265  0.1530
 3466TIP3    H231890   5.994   1.673   0.737 -0.2491  0.7779 -1.9564
 3467TIP3   OH231891   6.552   4.298  11.513  0.8009 -0.7263 -0.1911
 3467TIP3    H131892   6.531   4.205  11.512  0.7481 -0.7171 -0.0023
 3467TIP3    H231893   6.467   4.342  11.509  0.8294 -0.6850 -0.3680
 3468TIP3   OH231894   3.222   1.855  14.784 -0.0685 -0.3682 -0.7501
 3468TIP3    H131895   3.250   1.848  14.693  1.1277 -2.6550 -0.2798
 3468TIP3    H231896   3.145   1.799  14.790 -0.6983  0.4999 -0.5318
 3469TIP3   OH231897   6.677   3.523  13.643 -0.2696  0.6889 -0.2674
 3469TIP3    H131898   6.750   3.495  13.699 -0.1260  1.7329  0.0905
 3469TIP3    H231899   6.704   3.609  13.610 -1.2497  1.0000 -0.2948
 3470TIP3   OH231900   5.433   6.794  13.139  0.2720 -0.3536 -0.4649
 3470TIP3    H131901   5.391   6.780  13.054  0.8642 -1.0862 -0.6456
 3470TIP3    H231902   5.365   6.772  13.203 -0.3565  0.7383 -0.7213
 3471TIP3   OH231903   1.245   6.404  10.695 -0.5552 -0.2482 -0.7672
 3471TIP3    H131904   1.202   6.490  10.691 -1.0971 -0.4865 -0.2769
 3471TIP3    H231905   1.173   6.341  10.685 -0.4191 -0.6566  0.6466
 3472TIP3   OH231906   2.438   5.252  14.564  0.1703 -0.0054 -0.0405
 3472TIP3    H131907   2.499   5.181  14.581  1.4222  0.8696 -0.7420
 3472TIP3    H231908   2.491   5.321  14.525 -0.6558  1.9723  2.0798
 3473TIP3   OH231909   5.456   5.273  16.479  0.1050 -0.6635 -0.3298
 3473TIP3    H131910   5.500   5.239  16.401  1.5503  0.1275  0.1082
 3473TIP3    H231911   5.366   5.242  16.471  0.6321 -2.0113 -1.4614
 3474TIP3   OH231912   0.922   4.940  11.709  0.0300 -0.0100  0.4476
 3474TIP3    H131913   0.921   4.923  11.804  0.2355  0.5515  0.5591
 3474TIP3    H231914   0.973   4.869  11.672  0.4452  0.0800  0.8305
 3475TIP3   OH231915   3.791   2.875   1.039 -0.1870  0.2907  0.4224
 3475TIP3    H131916   3.800   2.865   0.945  1.1527  1.9287  0.3213
 3475TIP3    H231917   3.853   2.814   1.077  0.4087  0.7305  0.1729
 3476TIP3   OH231918   4.688   4.205   2.852  0.2916 -0.2785 -0.1998
 3476TIP3    H131919   4.606   4.246   2.880  0.7695  0.6553 -0.1197
 3476TIP3    H231920   4.755   4.249   2.903  0.8145 -1.3400  0.0482
 3477TIP3   OH231921   1.876   6.546  16.182 -0.5538  0.3541 -0.4490
 3477TIP3    H131922   1.961   6.542  16.226  0.4662 -0.6064 -2.3698
 3477TIP3    H231923   1.828   6.471  16.217 -0.1538  0.2084 -0.1975
 3478TIP3   OH231924   6.387   1.473   3.885  0.3654 -0.2997 -0.2139
 3478TIP3    H131925   6.328   1.405   3.916 -2.1207 -0.0080 -3.7144
 3478TIP3    H231926   6.469   1.427   3.865 -0.1068 -1.5698  0.7203
 3479TIP3   OH231927   4.911   0.335   0.340 -0.1255 -0.1066 -0.5103
 3479TIP3    H131928   5.003   0.321   0.362 -0.2449 -1.4212 -0.7721
 3479TIP3    H231929   4.913   0.380   0.255  0.2623  0.0698 -0.4085
 3480TIP3   OH231930   0.430   0.198  16.696 -0.2635  0.5294 -0.0456
 3480TIP3    H131931   0.484   0.192  16.617 -2.3049  1.5373 -1.6187
 3480TIP3    H231932   0.395   0.287  16.695 -1.6052  0.0608  1.0948
 3481TIP3   OH231933   0.501   1.765   3.545 -0.2514  0.7689 -0.4665
 3481TIP3    H131934   0.532   1.786   3.457 -0.0487 -0.4042 -0.6834
 3481TIP3    H231935   0.431   1.702   3.532  0.0688  0.2521  0.2412
 3482TIP3   OH231936   0.467   4.042  12.215 -0.5411 -1.0141 -0.3375
 3482TIP3    H131937   0.436   4.040  12.125  1.4745 -1.6055 -1.0861
 3482TIP3    H231938   0.496   3.952  12.232  0.3018 -0.6123  0.4434
 3483TIP3   OH231939   6.620   3.379   1.409  0.0323  0.3717  0.1656
 3483TIP3    H131940   6.649   3.314   1.473  0.8106 -0.1466 -0.6846
 3483TIP3    H231941   6.699   3.401   1.359 -0.3797  1.4171 -0.0482
 3484TIP3   OH231942   6.648   1.943   1.973  0.0969 -0.5652 -0.5705
 3484TIP3    H131943   6.716   1.998   2.013  1.1552 -1.2737 -1.3390
 3484TIP3    H231944   6.566   1.976   2.011  0.9827 -0.9876  1.9190
 3485TIP3   OH231945   3.983   4.343  16.012 -0.2687 -0.4213 -0.3257
 3485TIP3    H131946   3.970   4.437  15.999  2.2987  0.0145 -0.2914
 3485TIP3    H231947   3.919   4.319  16.079  0.4708  1.8182  1.3193
 3486TIP3   OH231948   3.383   5.168  14.017 -0.0239 -0.1341  0.0781
 3486TIP3    H131949   3.452   5.104  14.037  1.8112  2.2727  2.3128
 3486TIP3    H231950   3.428   5.253  14.022 -3.1749  1.6213  2.1395
 3487TIP3   OH231951   1.082   0.828   4.834  0.2488  0.0913 -0.2450
 3487TIP3    H131952   0.988   0.826   4.814  0.5463  0.1307 -1.7348
 3487TIP3    H231953   1.086   0.858   4.925 -1.2598 -1.9205  0.5760
 3488TIP3   OH231954   3.999   5.622  10.668  0.6393 -0.3396 -0.4395
 3488TIP3    H131955   3.927   5.678  10.640 -0.5668 -1.1862  0.8556
 3488TIP3    H231956   4.019   5.651  10.757  0.1567 -1.7656  0.1632
 3489TIP3   OH231957   5.540   0.946   3.278  0.1467  0.4142 -0.1328
 3489TIP3    H131958   5.494   1.013   3.227  0.3918 -0.8294 -2.0926
 3489TIP3    H231959   5.626   0.940   3.238  0.9352  0.5128  1.4897
 3490TIP3   OH231960   1.879   5.004   0.829 -0.4054 -0.7922 -0.0905
 3490TIP3    H131961   1.803   5.004   0.887  0.6967 -1.5928  1.4160
 3490TIP3    H231962   1.919   5.090   0.844 -1.6945  0.2167 -1.9261
 3491TIP3   OH231963   5.491   4.027  11.970  0.7296  0.6202  0.3018
 3491TIP3    H131964   5.489   4.079  11.889  0.1990  1.3849  0.7934
 3491TIP3    H231965   5.573   3.979  11.965  0.0407 -0.4846 -1.3938
 3492TIP3   OH231966   0.423   0.169  16.217 -0.6340  0.5608  0.2220
 3492TIP3    H131967   0.491   0.193  16.154 -1.5093 -0.4473 -1.1630
 3492TIP3    H231968   0.362   0.242  16.215 -0.3102  0.8389  0.4184
 3493TIP3   OH231969   1.199   0.288  13.797  0.0238 -0.3610  0.3118
 3493TIP3    H131970   1.266   0.242  13.747 -0.0596 -0.6516  0.4611
 3493TIP3    H231971   1.225   0.276  13.888  0.5064  0.6812  0.3219
 3494TIP3   OH231972   0.136   6.554  10.842 -0.4523  0.1416 -0.6456
 3494TIP3    H131973   0.075   6.626  10.827 -0.7134 -0.3910 -2.3593
 3494TIP3    H231974   0.086   6.475  10.820 -0.4410 -0.6939  1.9795
 3495TIP3   OH231975   2.413   1.150   1.414 -0.0270 -0.4285  0.0839
 3495TIP3    H131976   2.462   1.203   1.351  1.4445 -1.1055  0.5973
 3495TIP3    H231977   2.477   1.130   1.482 -1.3878 -0.3082  1.4444
 3496TIP3   OH231978   5.998   1.490  16.684 -0.7503 -0.5301  0.0626
 3496TIP3    H131979   5.954   1.410  16.658  1.0446 -1.5100 -0.1284
 3496TIP3    H231980   6.065   1.462  16.747  1.9241  0.3199 -2.2055
 3497TIP3   OH231981   0.369   3.011  14.016  0.8332  0.3537  0.2233
 3497TIP3    H131982   0.275   2.992  14.020  0.4979  2.0297  2.4074
 3497TIP3    H231983   0.410   2.941  14.066  0.6948 -0.0334 -0.1968
 3498TIP3   OH231984   1.208   5.885  16.602 -0.2534  0.1346  0.4236
 3498TIP3    H131985   1.140   5.831  16.563 -0.8173  0.7118  0.6031
 3498TIP3    H231986   1.282   5.825  16.614  0.3964  0.1263 -2.5946
 3499TIP3   OH231987   6.691   0.713  10.621 -0.2523  0.2357  0.1331
 3499TIP3    H131988   6.715   0.713  10.714  1.1171 -0.8668 -0.1991
 3499TIP3    H231989   6.598   0.687  10.621 -0.1943 -0.0192  1.1705
 3500TIP3   OH231990   4.561   4.152   0.342 -0.3316  0.2919  0.1191
 3500TIP3    H131991   4.504   4.204   0.399  0.0571  0.2154  0.5887
 3500TIP3    H231992   4.502   4.090   0.299 -0.6407  0.4008  0.3798
 3501TIP3   OH231993   2.824   3.746  10.917 -0.1306  0.1034  0.0914
 3501TIP3    H131994   2.787   3.665  10.953  1.4761 -0.5830  0.2666
 3501TIP3    H231995   2.782   3.816  10.967 -0.7159 -0.6694  0.6996
 3502TIP3   OH231996   1.093   0.938  16.870  0.9324  0.1603  0.1098
 3502TIP3    H131997   1.100   0.943  16.774 -0.1247 -1.3028 -0.0751
 3502TIP3    H231998   1.137   0.855  16.892 -0.6976 -0.5979  0.6414
 3503TIP3   OH231999   1.888   5.174  13.442  0.4865 -0.6305  0.1183
 3503TIP3    H132000   1.863   5.138  13.357  1.6893 -0.8343 -0.1694
 3503TIP3    H232001   1.903   5.267  13.425 -1.7332 -0.1257  0.6682
 3504TIP3   OH232002   5.195   0.338  13.084  0.1924 -0.3865 -0.2200
 3504TIP3    H132003   5.221   0.428  13.099 -1.8434  0.2778 -0.3466
 3504TIP3    H232004   5.277   0.289  13.082  1.4251  1.5979 -1.2836
 3505TIP3   OH232005   2.207   1.209  14.758  0.0173 -0.3040  0.2588
 3505TIP3    H132006   2.185   1.128  14.712  0.9396 -1.0930  1.1551
 3505TIP3    H232007   2.278   1.247  14.706 -1.1164  0.5228 -0.7614
 3506TIP3   OH232008   2.428   4.704  15.328  0.0641  0.3966 -0.2853
 3506TIP3    H132009   2.492   4.717  15.259 -1.2800  2.1110 -1.3032
 3506TIP3    H232010   2.386   4.621  15.307  1.3059 -0.2953 -0.1065
 3507TIP3   OH232011   6.641   6.385  11.421  0.0873  0.1343 -0.0532
 3507TIP3    H132012   6.584   6.426  11.486  0.0739  0.4776 -0.2802
 3507TIP3    H232013   6.634   6.291  11.440 -0.7019  0.1531 -0.1954
 3508TIP3   OH232014   1.298   3.873  10.518  0.4408 -0.4663 -0.0348
 3508TIP3    H132015   1.378   3.830  10.550  0.9390 -0.8843 -1.7040
 3508TIP3    H232016   1.320   3.966  10.517  0.6232 -0.5047  0.2757
 3509TIP3   OH232017   3.964   6.801   1.594  0.8317  0.2160 -0.3712
 3509TIP3    H132018   3.986   6.784   1.686 -0.4544 -1.9584 -0.3804
 3509TIP3    H232019   3.868   6.800   1.592  0.8255 -1.1118 -1.8915
 3510TIP3   OH232020   4.890   4.990   2.925 -0.1540  0.1674 -0.3543
 3510TIP3    H132021   4.797   4.987   2.944 -0.2524  1.3264 -0.5849
 3510TIP3    H232022   4.932   4.949   3.000 -0.7769  0.7802  0.3401
 3511TIP3   OH232023   5.223   5.985  16.079 -0.2118  1.0152 -0.2804
 3511TIP3    H132024   5.243   6.074  16.107 -0.8888  1.2713 -0.5913
 3511TIP3    H232025   5.161   5.996  16.007 -1.2128  0.2809  0.4293
 3512TIP3   OH232026   3.644   3.545  13.457  0.2411 -0.3892 -0.3714
 3512TIP3    H132027   3.567   3.583  13.414  0.9153 -0.0910 -1.3613
 3512TIP3    H232028   3.619   3.454  13.475 -0.7339  0.0079  0.3581
 3513TIP3   OH232029   6.138   0.652   2.065 -0.3711 -0.3308 -0.2371
 3513TIP3    H132030   6.182   0.729   2.030  0.4843 -0.8741 -0.4136
 3513TIP3    H232031   6.099   0.681   2.147  2.4592 -0.3708  1.2548
 3514TIP3   OH232032   2.902   3.584  12.884  0.4495 -0.6441  0.0060
 3514TIP3    H132033   2.902   3.672  12.920  0.1263 -0.5861 -0.1275
 3514TIP3    H232034   2.816   3.575  12.843  0.8748 -0.6486 -0.9020
 3515TIP3   OH232035   6.642   5.305  10.418  0.3569  0.0974  0.0469
 3515TIP3    H132036   6.729   5.325  10.453  0.0338 -1.3927  1.8820
 3515TIP3    H232037   6.593   5.386  10.428  1.9616  1.5605 -2.7510
 3516TIP3   OH232038   3.193   0.658  13.680  0.4078 -0.0625  0.0702
 3516TIP3    H132039   3.280   0.622  13.658  0.8596  0.9949  0.0913
 3516TIP3    H232040   3.152   0.673  13.594  0.1229 -0.8249  0.0634
 3517TIP3   OH232041   0.193   5.562   1.918 -0.1668 -0.3537 -0.2732
 3517TIP3    H132042   0.109   5.594   1.885  0.3155  1.7978  0.4249
 3517TIP3    H232043   0.247   5.551   1.840 -0.2943  0.7915 -0.5407
 3518TIP3   OH232044   1.544   4.851  14.336 -0.2647 -0.2447 -0.0282
 3518TIP3    H132045   1.522   4.819  14.248 -1.2590 -3.1417  1.1868
 3518TIP3    H232046   1.471   4.909  14.359 -0.9185 -0.9060 -0.4047
 3519TIP3   OH232047   1.691   4.397   1.679 -0.6066  0.2591 -0.7402
 3519TIP3    H132048   1.782   4.371   1.666 -0.5674  0.4186 -0.7826
 3519TIP3    H232049   1.694   4.460   1.751 -0.8852 -1.0406  0.4789
 3520TIP3   OH232050   1.189   2.403  13.205  0.0310  0.4899  0.0551
 3520TIP3    H132051   1.199   2.478  13.264 -0.1819  1.0109 -0.5555
 3520TIP3    H232052   1.095   2.400  13.186 -0.4687 -1.6999  2.3280
 3521TIP3   OH232053   4.008   2.222   1.457 -0.0890  0.2802  0.3890
 3521TIP3    H132054   3.974   2.162   1.391 -0.1959 -1.2563  1.7891
 3521TIP3    H232055   4.072   2.275   1.409  0.2658 -1.1778 -0.8455
 3522TIP3   OH232056   6.207   5.228   5.398  0.1202 -0.0439  0.3202
 3522TIP3    H132057   6.195   5.262   5.310  0.8188  0.0116  0.2426
 3522TIP3    H232058   6.120   5.198   5.424 -0.0175 -0.4092 -0.5277
 3523TIP3   OH232059   2.351   6.235  11.843  0.3979 -0.1659  0.2340
 3523TIP3    H132060   2.256   6.238  11.854  0.1194 -0.7773 -1.6447
 3523TIP3    H232061   2.371   6.142  11.831  1.4219 -0.1831  1.8107
 3524TIP3   OH232062   2.934   3.613  13.469 -0.0947  0.0047  0.5486
 3524TIP3    H132063   3.011   3.576  13.513 -0.0505 -0.5313  0.0394
 3524TIP3    H232064   2.894   3.670  13.534  1.9606  2.0695  0.1220
 3525TIP3   OH232065   5.795   0.452   1.664  0.4648  0.0041 -0.2429
 3525TIP3    H132066   5.838   0.454   1.578 -0.4655 -0.9429 -0.7516
 3525TIP3    H232067   5.862   0.482   1.725  0.9855  1.2010 -1.3621
 3526TIP3   OH232068   6.566   2.722  15.193  0.3006  0.3752 -0.7482
 3526TIP3    H132069   6.490   2.665  15.187 -0.6787  1.5237  0.2297
 3526TIP3    H232070   6.640   2.662  15.201 -0.4962 -0.7594 -1.5640
 3527TIP3   OH232071   0.039   3.063  12.135  0.3711 -0.1731 -0.1362
 3527TIP3    H132072  -0.003   3.141  12.171  0.6378  0.3774 -0.9796
 3527TIP3    H232073   0.013   2.993  12.193 -0.6588  0.3861  0.1053
 3528TIP3   OH232074   5.397   4.325   4.870  0.3349  0.3461 -0.5667
 3528TIP3    H132075   5.330   4.359   4.810 -0.4355  0.9762  0.6202
 3528TIP3    H232076   5.430   4.402   4.916 -0.9270 -0.3625  1.6631
 3529TIP3   OH232077   4.887   6.318   4.158 -0.2463  0.7019 -0.1346
 3529TIP3    H132078   4.870   6.236   4.203  2.3766 -0.1792 -0.5847
 3529TIP3    H232079   4.946   6.366   4.215 -0.3461  1.5032 -0.6800
 3530TIP3   OH232080   0.509   1.740   2.923  0.4252  0.4818 -0.1452
 3530TIP3    H132081   0.491   1.656   2.880 -1.0165  0.5034  0.3523
 3530TIP3    H232082   0.574   1.782   2.867  1.4541 -1.1125 -0.2014
 3531TIP3   OH232083   2.286   1.974  10.951  0.1511  0.3623  0.1544
 3531TIP3    H132084   2.322   1.993  11.037 -1.4703  1.8158  0.5747
 3531TIP3    H232085   2.272   1.879  10.951  2.0137  0.0365  0.6923
 3532TIP3   OH232086   5.224   4.957  14.150 -0.4852 -0.3791  0.5769
 3532TIP3    H132087   5.154   5.022  14.147 -0.0318  0.0964 -0.2644
 3532TIP3    H232088   5.180   4.873  14.142 -0.9057 -0.0474 -0.7522
 3533TIP3   OH232089   1.664   5.834   1.237 -0.5484 -0.0920  0.1857
 3533TIP3    H132090   1.633   5.750   1.202 -1.6420  0.6250 -0.6522
 3533TIP3    H232091   1.592   5.865   1.292 -0.0004  0.1305  0.7867
 3534TIP3   OH232092   1.668   5.119  14.255 -0.3125  0.0499 -0.5304
 3534TIP3    H132093   1.681   5.066  14.334 -2.9233  2.6270  1.9022
 3534TIP3    H232094   1.585   5.087  14.219 -1.2323  1.4648  0.2182
 3535TIP3   OH232095   4.826   3.507  13.876  0.0239  0.8336 -0.4872
 3535TIP3    H132096   4.773   3.513  13.797  1.4652 -1.3964 -1.7378
 3535TIP3    H232097   4.914   3.484  13.845  0.6774  0.0791  1.7219
 3536TIP3   OH232098   3.787   3.371   5.320 -0.8273  0.1370  0.4026
 3536TIP3    H132099   3.698   3.384   5.289 -1.0507  0.1391  1.0288
 3536TIP3    H232100   3.785   3.397   5.412  0.3456  2.3858 -0.1247
 3537TIP3   OH232101   4.432   1.468   2.309  0.4265  0.6478 -0.2771
 3537TIP3    H132102   4.360   1.470   2.246 -0.6976 -0.2412  0.9403
 3537TIP3    H232103   4.481   1.388   2.286  0.2665  0.5536 -0.2938
 3538TIP3   OH232104   4.744   3.327   5.168  0.1176 -0.2511  0.1401
 3538TIP3    H132105   4.757   3.373   5.250  1.8065 -1.0313  0.3477
 3538TIP3    H232106   4.822   3.345   5.117 -0.0240 -1.3574 -0.5092
 3539TIP3   OH232107   3.198   0.607   2.133  0.2394  0.7778 -0.6132
 3539TIP3    H132108   3.275   0.663   2.140  1.4405 -0.6598 -1.6744
 3539TIP3    H232109   3.208   0.563   2.049 -1.4276  0.0921 -0.4812
 3540TIP3   OH232110   6.743   3.583  16.327  0.1291 -0.7808  0.1023
 3540TIP3    H132111   6.714   3.642  16.257 -0.3858  0.5694  1.4004
 3540TIP3    H232112   6.837   3.596  16.332  0.3082 -1.5219 -0.8627
 3541TIP3   OH232113   2.343   5.153   4.231  0.5131  0.6274  0.5235
 3541TIP3    H132114   2.251   5.148   4.205 -0.0294 -2.5022  2.4477
 3541TIP3    H232115   2.390   5.175   4.151 -1.7366  0.2314 -1.0055
 3542TIP3   OH232116   4.899   6.520  15.798 -0.9076  0.2686  0.0668
 3542TIP3    H132117   4.993   6.500  15.805 -0.9205  0.3623  0.6085
 3542TIP3    H232118   4.874   6.490  15.711 -0.2780  0.6245 -0.2463
 3543TIP3   OH232119   4.016   3.184  15.269 -0.2105  0.0427  0.4757
 3543TIP3    H132120   3.971   3.146  15.194 -0.8012  1.1378  0.2638
 3543TIP3    H232121   4.087   3.235  15.232  0.6363 -0.8809  0.7673
 3544TIP3   OH232122   5.783   5.998   0.608 -1.0850 -0.2069 -0.0618
 3544TIP3    H132123   5.727   6.075   0.600  0.2050  0.6804 -0.8723
 3544TIP3    H232124   5.749   5.936   0.544 -1.7845 -0.1011  0.2032
 3545TIP3   OH232125   1.790   0.074  10.436  0.1993  0.2692  0.0809
 3545TIP3    H132126   1.856   0.138  10.413 -0.4825  0.7614 -0.5580
 3545TIP3    H232127   1.811   0.048  10.525  1.1843  0.4889 -0.0780
 3546TIP3   OH232128   5.936   3.765  11.391 -0.1099  0.1005  0.6655
 3546TIP3    H132129   6.000   3.696  11.409 -1.6078 -1.6540 -0.3728
 3546TIP3    H232130   5.909   3.748  11.300 -0.9226  1.7388  0.5736
 3547TIP3   OH232131   5.143   5.298  15.061 -0.4476  0.4020  0.2901
 3547TIP3    H132132   5.197   5.220  15.046 -1.6494 -0.6540  1.2239
 3547TIP3    H232133   5.089   5.306  14.983  1.2122  1.6561 -0.7964
 3548TIP3   OH232134   4.014   0.634   4.200 -0.5984 -0.1767  0.3883
 3548TIP3    H132135   4.050   0.549   4.224  2.4660  0.9475  0.2045
 3548TIP3    H232136   3.974   0.620   4.114 -1.3192 -1.6785  0.9386
 3549TIP3   OH232137   1.264   3.019   3.123  0.1757 -0.2882  0.5577
 3549TIP3    H132138   1.231   3.015   3.034 -0.6053  2.2369  0.6556
 3549TIP3    H232139   1.187   3.003   3.178 -0.2215  1.9135  0.7456
 3550TIP3   OH232140   3.402   2.361  12.993  0.3483  0.1940  0.8366
 3550TIP3    H132141   3.476   2.423  12.990  0.3763  0.2073 -2.9471
 3550TIP3    H232142   3.443   2.275  12.984 -0.0126  0.1088 -0.0394
 3551TIP3   OH232143   3.845   0.525   2.090  0.4343 -0.2147  0.2762
 3551TIP3    H132144   3.811   0.454   2.035 -1.2357 -0.0110  0.9571
 3551TIP3    H232145   3.906   0.572   2.034 -1.4135  0.1766 -1.5441
 3552TIP3   OH232146   6.201   5.431   2.166  0.5530 -0.0694 -0.1175
 3552TIP3    H132147   6.127   5.422   2.226  0.7454 -0.0333  0.1264
 3552TIP3    H232148   6.276   5.399   2.216  0.8259  0.5789 -0.1124
 3553TIP3   OH232149   1.965   6.428  11.946 -0.5435 -0.5966 -0.0031
 3553TIP3    H132150   1.929   6.478  11.872 -0.6896  0.0025  0.4629
 3553TIP3    H232151   2.052   6.466  11.961 -1.5119  1.0960  1.7852
 3554TIP3   OH232152   3.635   0.793   2.503  0.4420  0.4645 -0.0828
 3554TIP3    H132153   3.688   0.856   2.453 -1.1436 -0.3182 -2.9546
 3554TIP3    H232154   3.564   0.846   2.540  0.2777  0.7094 -0.7349
 3555TIP3   OH232155   5.728   6.315  11.225  0.1602 -0.7632  0.3958
 3555TIP3    H132156   5.720   6.410  11.237  0.5278 -0.7800  0.7980
 3555TIP3    H232157   5.819   6.295  11.248  0.3662 -1.0805 -0.6216
 3556TIP3   OH232158   6.717   6.263  13.561 -0.0461 -0.2422  0.2443
 3556TIP3    H132159   6.762   6.217  13.632  0.2941 -1.1837 -0.5641
 3556TIP3    H232160   6.631   6.222  13.557 -0.2080  0.0832  0.3731
 3557TIP3   OH232161   3.331   5.641   5.307  0.1749  0.2828 -0.6053
 3557TIP3    H132162   3.419   5.652   5.271 -0.0531 -1.9441 -2.0326
 3557TIP3    H232163   3.274   5.686   5.244  0.0746 -0.6126 -1.1627
 3558TIP3   OH232164   0.236   1.639   3.674  0.4802  0.1095 -0.4202
 3558TIP3    H132165   0.164   1.578   3.685  1.3386 -1.0241 -0.8656
 3558TIP3    H232166   0.314   1.590   3.700  1.0669  1.4219  0.4266
 3559TIP3   OH232167   5.323   2.685   0.398 -0.2604 -0.0296 -0.0082
 3559TIP3    H132168   5.394   2.628   0.367 -0.8015 -0.3421 -0.7167
 3559TIP3    H232169   5.307   2.656   0.488  0.4799  0.0167  0.1426
 3560TIP3   OH232170   2.995   1.803   1.331 -0.5800  0.1932  0.0095
 3560TIP3    H132171   3.042   1.724   1.358 -1.7724 -0.0656  1.4934
 3560TIP3    H232172   3.050   1.842   1.264  0.4117 -1.4945 -0.2270
 3561TIP3   OH232173   6.701   5.468   2.658 -0.0299 -0.6174 -0.3129
 3561TIP3    H132174   6.638   5.520   2.609 -1.5881 -2.5313 -0.4931
 3561TIP3    H232175   6.786   5.488   2.618 -0.9277 -0.2961 -2.1636
 3562TIP3   OH232176   3.284   2.382   0.454 -0.0275 -0.2968  0.0664
 3562TIP3    H132177   3.323   2.298   0.477 -0.1839 -0.1593  0.8475
 3562TIP3    H232178   3.196   2.359   0.423 -0.3449 -0.3600  0.9969
 3563TIP3   OH232179   0.092   5.957  11.266 -0.2339  0.2136 -0.0263
 3563TIP3    H132180   0.091   5.880  11.322  0.3733 -0.6180 -1.1218
 3563TIP3    H232181   0.051   6.026  11.319 -1.0464 -0.9198  0.8756
 3564TIP3   OH232182   5.342   5.108  15.030 -0.1344 -0.2908  0.1707
 3564TIP3    H132183   5.389   5.050  15.090 -0.1730 -0.4730  0.0255
 3564TIP3    H232184   5.397   5.186  15.024  0.3543 -0.6743 -0.3231
 3565TIP3   OH232185   0.342   3.771   0.040 -0.3158  0.0904  0.0404
 3565TIP3    H132186   0.370   3.708   0.106 -0.7765  1.7242  1.9066
 3565TIP3    H232187   0.339   3.854   0.087 -2.5656  1.0006 -1.5555
 3566TIP3   OH232188   2.861   4.073   0.143  0.0091 -0.2833  0.1544
 3566TIP3    H132189   2.766   4.071   0.129 -0.0516 -0.1486  0.5319
 3566TIP3    H232190   2.897   4.100   0.059 -0.3970  1.2988  0.4590
 3567TIP3   OH232191   6.322   1.847  15.010 -0.7468  0.0492  0.4500
 3567TIP3    H132192   6.228   1.840  15.022 -0.9047  0.4897 -0.4771
 3567TIP3    H232193   6.344   1.934  15.042 -0.7597  0.2002  0.0521
 3568TIP3   OH232194   6.219   5.789   2.593  0.3317 -0.0773  0.0430
 3568TIP3    H132195   6.165   5.773   2.516 -0.2868 -1.1949  0.6797
 3568TIP3    H232196   6.158   5.781   2.667  0.7131  1.8788  0.6275
 3569TIP3   OH232197   4.508   4.899  12.520 -0.3330  0.1498 -0.0745
 3569TIP3    H132198   4.597   4.917  12.491 -0.5279  0.6184 -0.4011
 3569TIP3    H232199   4.454   4.960  12.470 -0.7364  0.5736  0.8498
 3570TIP3   OH232200   3.259   5.633  15.171 -0.2744 -0.0846  0.2007
 3570TIP3    H132201   3.290   5.640  15.081  2.1810  1.3850  1.0464
 3570TIP3    H232202   3.230   5.721  15.194 -2.2146 -0.7489  0.4671
 3571TIP3   OH232203   6.150   5.345   4.102 -0.3005 -0.3315  0.1188
 3571TIP3    H132204   6.216   5.294   4.149 -0.1145 -0.3572 -0.1684
 3571TIP3    H232205   6.173   5.436   4.119 -0.5478 -0.3404  0.5132
 3572TIP3   OH232206   1.405   3.873  15.185 -0.6753  0.2808  0.0467
 3572TIP3    H132207   1.444   3.787  15.198 -0.4309  0.2461 -0.8269
 3572TIP3    H232208   1.477   3.928  15.155 -0.8507  0.7640  0.5073
 3573TIP3   OH232209   5.118   2.506  14.420 -0.4180  0.0081 -0.1313
 3573TIP3    H132210   5.194   2.449  14.411  0.1187  0.7663 -0.5939
 3573TIP3    H232211   5.060   2.460  14.481  0.9760 -0.0052  1.2592
 3574TIP3   OH232212   3.387   6.056  13.293 -0.0039  0.0505  0.2015
 3574TIP3    H132213   3.374   6.075  13.200  1.6120  2.3113  0.3660
 3574TIP3    H232214   3.432   5.972  13.295 -1.5005 -0.8292 -0.9335
 3575TIP3   OH232215   4.474   4.959  11.295  0.2561  0.2046  0.1949
 3575TIP3    H132216   4.570   4.966  11.289  0.3149  0.9449  1.5028
 3575TIP3    H232217   4.442   5.041  11.258  0.1971  0.4656  0.8043
 3576TIP3   OH232218   2.684   0.250  15.553 -0.1130  0.2980 -0.0743
 3576TIP3    H132219   2.772   0.236  15.518  0.9405  1.2101  2.0123
 3576TIP3    H232220   2.630   0.183  15.511  0.9793  1.2719 -3.3352
 3577TIP3   OH232221   2.310   5.251   9.460 -0.4443 -0.3645 -0.6950
 3577TIP3    H132222   2.260   5.333   9.462  3.2803  2.1741 -1.1034
 3577TIP3    H232223   2.290   5.209   9.544 -2.2052  1.1235 -0.3004
 3578TIP3   OH232224   0.266   2.020  13.481  0.2880 -0.6079  0.9856
 3578TIP3    H132225   0.350   2.039  13.438 -0.9361  1.0788 -0.7720
 3578TIP3    H232226   0.259   1.925  13.477  1.2304 -0.6559 -0.6593
 3579TIP3   OH232227   1.925   6.629   1.819  0.9682 -0.3320 -0.4259
 3579TIP3    H132228   1.995   6.694   1.819 -0.0843  0.8821 -2.0591
 3579TIP3    H232229   1.944   6.573   1.743  0.0965  0.1270 -0.9992
 3580TIP3   OH232230   3.311   1.754  16.758 -0.1385  0.5578  0.2291
 3580TIP3    H132231   3.395   1.723  16.724  0.5696  2.2840  0.2865
 3580TIP3    H232232   3.335   1.820  16.823 -1.5455  1.4578 -0.1177
 3581TIP3   OH232233   6.425   1.685  16.796  0.0271 -0.5808 -0.1886
 3581TIP3    H132234   6.493   1.656  16.736  0.8657 -0.1714  0.5327
 3581TIP3    H232235   6.403   1.608  16.847 -0.6197 -0.9059 -0.9416
 3582TIP3   OH232236   0.650   2.919  15.701  0.6672  0.3273  0.1358
 3582TIP3    H132237   0.696   3.003  15.693  1.4358 -0.0348  0.6897
 3582TIP3    H232238   0.682   2.881  15.783  1.6770 -1.2975 -0.9401
 3583TIP3   OH232239   6.045   1.046  11.510 -0.5519  0.2989  0.0685
 3583TIP3    H132240   5.984   1.081  11.445  1.1127 -0.0607 -1.7969
 3583TIP3    H232241   6.030   0.951  11.508 -0.0208  0.2207 -0.3165
 3584TIP3   OH232242   0.943   1.397  11.571 -0.0171 -0.4508 -0.1513
 3584TIP3    H132243   0.868   1.344  11.599 -0.1936 -0.2918 -0.3191
 3584TIP3    H232244   0.905   1.462  11.511  0.6150 -2.0999 -2.4803
 3585TIP3   OH232245   5.147   2.890   2.653 -0.5362  0.1130  0.0711
 3585TIP3    H132246   5.181   2.867   2.739 -0.9506  1.1103  0.5232
 3585TIP3    H232247   5.205   2.960   2.623  1.4243 -2.1149 -1.7767
 3586TIP3   OH232248   5.201   1.461  14.112  0.0400  0.4661  0.2400
 3586TIP3    H132249   5.136   1.435  14.046 -0.4231  1.3343  0.3433
 3586TIP3    H232250   5.278   1.408  14.091 -0.6202 -0.4259 -0.0175
 3587TIP3   OH232251   5.012   1.946   2.585  0.2723  0.1447 -0.2126
 3587TIP3    H132252   5.071   1.967   2.512 -0.0903  0.3174 -0.4621
 3587TIP3    H232253   4.927   1.978   2.556  0.3367  1.2445  0.7516
 3588TIP3   OH232254   3.253   5.886  14.045 -0.0840 -0.5433  0.3849
 3588TIP3    H132255   3.220   5.955  14.102 -0.8376  0.1545 -0.8414
 3588TIP3    H232256   3.238   5.805  14.093 -2.0261 -0.0939  0.6024
 3589TIP3   OH232257   3.891   3.191   3.906 -0.1190  0.2445  0.7511
 3589TIP3    H132258   3.802   3.180   3.939 -0.3753 -0.2857 -0.0795
 3589TIP3    H232259   3.881   3.244   3.826  0.0543 -1.4365 -0.4369
 3590TIP3   OH232260   3.862   0.800   2.698  0.3172 -0.6063  0.0567
 3590TIP3    H132261   3.774   0.804   2.661  0.0762  0.1620  0.6837
 3590TIP3    H232262   3.919   0.786   2.622  0.1247  3.6562 -1.1860
 3591TIP3   OH232263   4.020   5.275  16.327  0.4272 -0.1599 -0.3025
 3591TIP3    H132264   4.086   5.294  16.260 -0.4766 -2.5576 -2.0030
 3591TIP3    H232265   3.948   5.335  16.308  0.4975 -0.2890 -1.0013
 3592TIP3   OH232266   4.578   0.659  14.598  0.1655 -0.3421  0.6617
 3592TIP3    H132267   4.663   0.616  14.610  0.1304 -0.0791  2.0946
 3592TIP3    H232268   4.548   0.678  14.687 -1.0406  0.2774  0.1533
 3593TIP3   OH232269   5.334   3.454   5.017  0.0354 -0.2062 -0.2333
 3593TIP3    H132270   5.350   3.418   5.105 -4.5974  1.9729  1.8418
 3593TIP3    H232271   5.380   3.538   5.017 -2.6046  1.3601  1.6204
 3594TIP3   OH232272   3.352   6.587   6.279 -0.1165 -0.1984  0.0087
 3594TIP3    H132273   3.341   6.498   6.244  0.0091 -0.4903  0.6942
 3594TIP3    H232274   3.391   6.636   6.207 -0.5915 -0.5904 -0.5270
 3595TIP3   OH232275   3.091   3.910   3.116  0.0594  0.0035  0.3438
 3595TIP3    H132276   3.035   3.862   3.177 -1.6939 -0.4589 -1.5239
 3595TIP3    H232277   3.039   3.916   3.036  1.3071  2.7219 -0.3562
 3596TIP3   OH232278   2.040   5.734  13.926  0.1130 -0.5857  0.5175
 3596TIP3    H132279   2.081   5.679  13.994 -0.7318  0.4867  1.9505
 3596TIP3    H232280   2.023   5.817  13.970 -0.0578  0.3125 -1.1711
 3597TIP3   OH232281   5.733   3.037  10.367 -0.3007 -0.0073 -0.8360
 3597TIP3    H132282   5.741   2.946  10.339  0.5423 -1.0438  2.3416
 3597TIP3    H232283   5.822   3.070  10.369 -0.2499 -0.1662  0.9808
 3598TIP3   OH232284   4.900   0.728   1.412  0.8620  0.4547 -0.1522
 3598TIP3    H132285   4.962   0.743   1.342  0.3684  0.2891 -0.6329
 3598TIP3    H232286   4.952   0.690   1.483  1.2598  0.0639 -0.6472
 3599TIP3   OH232287   0.938   3.291   3.439  0.1402 -0.1563  0.4805
 3599TIP3    H132288   0.993   3.304   3.516 -1.0045  2.9231  0.9155
 3599TIP3    H232289   0.881   3.217   3.462  1.5433 -0.9686  1.4932
 3600TIP3   OH232290   2.315   6.288  13.327  0.5733 -0.5844 -0.1945
 3600TIP3    H132291   2.247   6.246  13.379  0.2862 -1.3960 -1.1910
 3600TIP3    H232292   2.337   6.223  13.259  0.7586  0.5343 -1.2361
 3601TIP3   OH232293   2.923   4.383  13.271  0.4456  0.2309 -0.2033
 3601TIP3    H132294   2.941   4.322  13.342 -1.9942 -1.7968 -1.1737
 3601TIP3    H232295   2.904   4.466  13.315  2.4324 -0.0157  1.2376
 3602TIP3   OH232296   0.909   1.366   4.227  0.3713  0.0561  0.2097
 3602TIP3    H132297   0.815   1.352   4.239  0.3272 -0.1268 -0.3021
 3602TIP3    H232298   0.931   1.312   4.150  0.7580  0.6251 -0.0851
 3603TIP3   OH232299   5.689   5.224  16.299  0.4366 -0.2382 -0.1058
 3603TIP3    H132300   5.732   5.187  16.376 -0.3800  1.5803  1.2983
 3603TIP3    H232301   5.734   5.183  16.225  2.9826 -0.2199  1.2958
 3604TIP3   OH232302   0.568   1.675   4.002  0.0951  0.0380  0.3955
 3604TIP3    H132303   0.619   1.755   3.992 -1.2979  0.8398 -0.6763
 3604TIP3    H232304   0.568   1.658   4.096  0.7203  1.1042  0.5979
 3605TIP3   OH232305   4.195   2.248   2.123 -0.2092  0.1980  0.6847
 3605TIP3    H132306   4.123   2.211   2.073  0.0595  3.3223 -2.3299
 3605TIP3    H232307   4.270   2.193   2.101 -0.5418  0.2631 -0.6807
 3606TIP3   OH232308   2.664   3.370   4.886  0.9869 -0.1232  0.2926
 3606TIP3    H132309   2.683   3.461   4.863  0.3458 -0.4770 -1.9426
 3606TIP3    H232310   2.659   3.369   4.981 -0.0807  2.4066  0.3266
 3607TIP3   OH232311   4.403   4.430  13.137  0.3027 -0.3089 -0.5771
 3607TIP3    H132312   4.427   4.464  13.051  0.8323  0.4703 -0.1382
 3607TIP3    H232313   4.409   4.506  13.195  0.5030 -0.9355  0.2487
 3608TIP3   OH232314   3.881   6.015   4.642 -0.6138 -0.2193 -0.7245
 3608TIP3    H132315   3.830   6.084   4.684 -1.8943 -1.4372 -0.1688
 3608TIP3    H232316   3.928   5.972   4.714 -0.3622 -0.3437 -0.9607
 3609TIP3   OH232317   0.959   3.260  14.239  0.7569  0.0278 -0.3644
 3609TIP3    H132318   0.991   3.236  14.153  1.0000  0.8072 -0.5018
 3609TIP3    H232319   1.027   3.316  14.276  0.0910  0.7396 -0.1842
 3610TIP3   OH232320   3.396   5.415   1.277  0.3397  0.0972 -0.1775
 3610TIP3    H132321   3.389   5.398   1.183  0.4636 -1.6240  0.0896
 3610TIP3    H232322   3.306   5.415   1.308  0.3709 -0.8942 -0.0642
 3611TIP3   OH232323   5.475   6.459  16.098  0.2786  0.1945 -0.0259
 3611TIP3    H132324   5.449   6.431  16.011 -0.3954 -2.1479  0.8591
 3611TIP3    H232325   5.571   6.450  16.098  0.1877 -0.8005 -0.1945
 3612TIP3   OH232326   2.584   5.948   5.206 -0.0394 -0.8817  0.0566
 3612TIP3    H132327   2.516   5.891   5.171 -1.1007  0.3008  0.1269
 3612TIP3    H232328   2.543   5.990   5.282  0.3310  0.7827 -0.6339
 3613TIP3   OH232329   1.571   2.195   3.218 -0.1043 -0.2376  0.2245
 3613TIP3    H132330   1.511   2.255   3.262 -3.5015 -0.5447 -3.4412
 3613TIP3    H232331   1.515   2.125   3.185  2.7575 -2.0865 -1.1311
 3614TIP3   OH232332   5.946   1.226   1.131  0.6586  0.0805 -0.1552
 3614TIP3    H132333   5.995   1.145   1.142  2.8813  1.3533 -0.1119
 3614TIP3    H232334   5.969   1.257   1.043  0.4445  1.0225  0.1075
 3615TIP3   OH232335   1.174   4.780   3.266 -0.3788  0.6599  0.1616
 3615TIP3    H132336   1.203   4.871   3.270  1.3210  0.1117  1.1950
 3615TIP3    H232337   1.213   4.739   3.343 -0.2724 -1.1716 -0.8148
 3616TIP3   OH232338   4.562   4.515  14.371 -0.0199  0.2390 -0.2693
 3616TIP3    H132339   4.551   4.432  14.325 -2.7739 -0.4577  1.4763
 3616TIP3    H232340   4.608   4.571  14.308 -2.5496 -1.0029 -3.4689
 3617TIP3   OH232341   2.857   4.307   5.579  0.1940  0.0379 -0.1127
 3617TIP3    H132342   2.849   4.238   5.514  1.2789  1.2249 -1.5686
 3617TIP3    H232343   2.900   4.265   5.654  0.5387 -0.9324 -0.8387
 3618TIP3   OH232344   6.118   4.292  13.287 -0.1386 -0.7320  0.2525
 3618TIP3    H132345   6.201   4.298  13.333 -0.1143 -2.8370  0.5683
 3618TIP3    H232346   6.095   4.383  13.268  1.1556  0.0301  2.0463
 3619TIP3   OH232347   0.608   1.333   1.452  0.1460  0.8264 -0.6064
 3619TIP3    H132348   0.589   1.254   1.401 -0.3805  0.7801 -0.3360
 3619TIP3    H232349   0.617   1.302   1.542  0.5031  0.9961 -0.5803
 3620TIP3   OH232350   2.158   0.470   2.759 -0.3519 -0.1753  0.4123
 3620TIP3    H132351   2.168   0.504   2.670 -0.1038 -0.8960  0.1511
 3620TIP3    H232352   2.208   0.530   2.814 -1.0644  0.6627  0.1617
 3621TIP3   OH232353   1.549   0.269   4.599  0.7280 -0.4755  0.3984
 3621TIP3    H132354   1.598   0.190   4.623 -2.5567 -2.1282  2.3364
 3621TIP3    H232355   1.498   0.291   4.677  1.1937  3.4363 -0.1970
 3622TIP3   OH232356   1.757   2.670   0.713  0.0164 -0.6548 -0.3196
 3622TIP3    H132357   1.809   2.746   0.740 -0.2579 -0.5784 -0.0012
 3622TIP3    H232358   1.671   2.707   0.690  0.1310 -0.7677 -0.9370
 3623TIP3   OH232359   1.329   0.992  14.956  0.1693  0.3233  0.0318
 3623TIP3    H132360   1.268   0.921  14.935  0.6479 -0.2368  0.5140
 3623TIP3    H232361   1.301   1.025  15.041  1.2391 -0.7444  0.8406
 3624TIP3   OH232362   3.732   2.074   2.509 -0.2180 -0.0439  0.3957
 3624TIP3    H132363   3.638   2.071   2.489  0.0845 -0.7913 -1.0510
 3624TIP3    H232364   3.766   1.991   2.476  1.2859  1.0519 -0.9582
 3625TIP3   OH232365   4.029   1.392  12.952  0.1694  0.5156  0.2860
 3625TIP3    H132366   4.091   1.465  12.961  0.5114  0.5326 -1.6972
 3625TIP3    H232367   3.943   1.434  12.955  0.3485  1.5215 -3.4652
 3626TIP3   OH232368   3.942   2.601   1.374  0.0523 -0.0493 -0.3112
 3626TIP3    H132369   3.891   2.520   1.371  1.3392 -0.8447 -1.9534
 3626TIP3    H232370   3.975   2.605   1.464 -1.0216 -0.6883  0.1299
 3627TIP3   OH232371   3.744   3.419  11.003 -0.9179  0.1289 -0.4630
 3627TIP3    H132372   3.748   3.367  11.083 -2.8347 -2.1897 -1.7667
 3627TIP3    H232373   3.747   3.510  11.034  2.1304 -0.6204  1.9332
 3628TIP3   OH232374   0.364   4.645  12.893 -0.3479  0.0249 -0.6664
 3628TIP3    H132375   0.313   4.707  12.841 -1.7190 -1.3721 -1.0641
 3628TIP3    H232376   0.311   4.566  12.894  1.0386 -0.9320  0.3953
 3629TIP3   OH232377   1.840   0.468  14.290 -0.3018  0.2003 -0.1279
 3629TIP3    H132378   1.780   0.393  14.285  0.4986 -0.3814 -2.8354
 3629TIP3    H232379   1.868   0.482  14.200  0.2999  3.2297  0.4189
 3630TIP3   OH232380   6.204   5.789   3.521 -0.3672  0.9142  0.2257
 3630TIP3    H132381   6.115   5.756   3.508 -0.6464  1.4064  0.8655
 3630TIP3    H232382   6.204   5.826   3.609  0.1837  1.8390 -0.1533
 3631TIP3   OH232383   4.305   1.992   5.278 -0.4305  0.6930  0.7353
 3631TIP3    H132384   4.253   1.991   5.197  2.0257  0.9161 -0.9567
 3631TIP3    H232385   4.279   2.074   5.321 -3.0593 -0.2620  1.1654
 3632TIP3   OH232386   2.771   3.795   4.338 -0.3953 -0.0408  0.6873
 3632TIP3    H132387   2.714   3.843   4.397 -0.6132  2.4006 -1.3350
 3632TIP3    H232388   2.755   3.833   4.252  3.6433  0.2588 -0.1662
 3633TIP3   OH232389   2.882   3.667  12.445 -0.2153  0.6294  0.1400
 3633TIP3    H132390   2.795   3.706  12.440 -1.0431 -1.1591 -0.1461
 3633TIP3    H232391   2.888   3.612  12.367  0.2632 -1.0100  1.2714
 3634TIP3   OH232392   0.024   1.439   0.110  0.0178  0.0627 -0.3350
 3634TIP3    H132393   0.100   1.389   0.083  0.5887  0.4691  0.4834
 3634TIP3    H232394   0.017   1.510   0.046  0.6744  0.3518 -0.0953
 3635TIP3   OH232395   4.594   3.748   0.430 -0.1180 -0.1206 -0.9783
 3635TIP3    H132396   4.656   3.684   0.464 -1.8259 -1.1592  0.3329
 3635TIP3    H232397   4.542   3.775   0.506 -0.3871  1.7708 -1.7694
 3636TIP3   OH232398   4.392   3.451   1.586 -0.8988 -0.2213  0.2068
 3636TIP3    H132399   4.467   3.405   1.623 -0.1853  0.2496 -0.6147
 3636TIP3    H232400   4.397   3.539   1.623 -1.9123 -0.6010  1.3035
 3637TIP3   OH232401   3.966   5.837   4.853  0.3100 -0.4216 -0.4817
 3637TIP3    H132402   3.953   5.758   4.800  0.4894 -1.0720  0.4264
 3637TIP3    H232403   3.948   5.810   4.943  2.3987  0.0253  0.1359
 3638TIP3   OH232404   4.119   6.728   0.513 -0.3332  0.1211  0.6064
 3638TIP3    H132405   4.189   6.701   0.572 -0.7179  2.1293  2.0787
 3638TIP3    H232406   4.065   6.650   0.503  1.1752 -0.9948  0.7530
 3639TIP3   OH232407   4.982   3.674   5.522 -0.4202 -0.1015  0.3184
 3639TIP3    H132408   5.035   3.603   5.560  1.6022  0.9979 -0.2686
 3639TIP3    H232409   5.047   3.737   5.491 -2.0980  0.9316 -1.2672
 3640TIP3   OH232410   6.738   3.419   4.002  0.1073 -0.4772 -0.8246
 3640TIP3    H132411   6.792   3.497   3.995 -0.4359 -0.1097 -0.9839
 3640TIP3    H232412   6.670   3.441   4.065  0.1105 -0.9182 -0.6594
 3641TIP3   OH232413   1.932   1.975  14.047 -0.1590  0.3166 -0.1010
 3641TIP3    H132414   1.849   2.023  14.040 -0.5191 -0.0678  1.2887
 3641TIP3    H232415   1.907   1.886  14.072  0.5288 -0.5798 -2.3278
 3642TIP3   OH232416   6.333   4.419   0.015  0.0892  0.2208  0.2018
 3642TIP3    H132417   6.269   4.438  -0.054 -1.6307 -0.0577  1.6392
 3642TIP3    H232418   6.364   4.506   0.043 -0.0701  0.3880 -0.1368
 3643TIP3   OH232419   1.470   1.625   1.571 -0.4581 -0.2168 -0.4373
 3643TIP3    H132420   1.463   1.677   1.651 -0.1234  0.8911 -1.1148
 3643TIP3    H232421   1.382   1.626   1.534 -0.1230  1.2544 -1.2770
 3644TIP3   OH232422   2.942   3.022   6.180 -0.4291 -0.8125  0.1710
 3644TIP3    H132423   2.939   2.937   6.136  1.7553 -0.2559 -1.2220
 3644TIP3    H232424   2.874   3.017   6.247 -1.7998 -2.8580 -1.2567
 3645TIP3   OH232425   5.046   3.326  13.715 -0.2873  0.5102  0.8494
 3645TIP3    H132426   5.099   3.405  13.711 -0.3162  0.4877 -1.1941
 3645TIP3    H232427   5.108   3.256  13.734  0.3677  0.5636 -0.9313
 3646TIP3   OH232428   0.278   1.827  14.313  0.1215 -0.0767  0.5232
 3646TIP3    H132429   0.237   1.914  14.312  0.2896  0.0031  0.6033
 3646TIP3    H232430   0.325   1.822  14.230 -3.3879 -1.7660 -1.5932
 3647TIP3   OH232431   5.385   4.389   2.033 -0.0574  0.1291 -0.2983
 3647TIP3    H132432   5.339   4.392   2.117 -0.1771  0.1824 -0.3646
 3647TIP3    H232433   5.465   4.439   2.047 -1.1862  2.2692 -0.8860
 3648TIP3   OH232434   5.578   6.662  13.911  0.7187  0.0335 -0.5722
 3648TIP3    H132435   5.571   6.624  13.824 -0.1477 -0.5612 -0.2565
 3648TIP3    H232436   5.517   6.611  13.965  3.3593 -1.6055  1.1043
 3649TIP3   OH232437   6.759   5.123  15.227 -0.0201  0.1449 -0.7641
 3649TIP3    H132438   6.823   5.093  15.292 -1.0997  0.2634  0.3911
 3649TIP3    H232439   6.755   5.218  15.239 -3.4248 -0.1547  2.2183
 3650TIP3   OH232440   3.581   3.290  13.461 -0.9830  0.3996  0.3046
 3650TIP3    H132441   3.602   3.207  13.505 -0.0916 -0.7206 -2.0109
 3650TIP3    H232442   3.491   3.279  13.431 -1.1747  0.6483  0.7918
 3651TIP3   OH232443   1.832   3.997   4.878  0.1121  0.3363 -0.0365
 3651TIP3    H132444   1.876   3.974   4.960  1.3374 -0.3851 -0.8533
 3651TIP3    H232445   1.824   4.092   4.880  0.0284  0.3154  0.9647
 3652TIP3   OH232446   1.397   3.958   0.548 -0.5907  0.1510  0.3530
 3652TIP3    H132447   1.470   4.003   0.505 -1.5431  1.1401 -0.2768
 3652TIP3    H232448   1.421   3.957   0.641  0.6427 -0.3844  0.0577
 3653TIP3   OH232449   2.279   6.751   1.106  0.7787  0.4963  0.3858
 3653TIP3    H132450   2.213   6.728   1.042  0.0189  2.4111  0.4268
 3653TIP3    H232451   2.353   6.694   1.086 -0.1146 -0.2261 -0.9858
 3654TIP3   OH232452   2.438   1.575   0.251 -0.4205  0.5725  0.5406
 3654TIP3    H132453   2.515   1.627   0.229 -1.1367  1.9720  1.2581
 3654TIP3    H232454   2.379   1.587   0.177  0.0231 -0.5266 -0.0239
 3655TIP3   OH232455   1.036   2.235  16.063 -0.2409 -0.2448  0.0346
 3655TIP3    H132456   1.008   2.235  15.972  1.1631 -1.4631 -0.4362
 3655TIP3    H232457   1.065   2.324  16.080 -0.5163 -0.0113 -0.7003
 3656TIP3   OH232458   2.179   6.135   0.836 -0.0220 -0.4426 -0.3683
 3656TIP3    H132459   2.115   6.068   0.856 -0.2770  0.2530  1.3090
 3656TIP3    H232460   2.202   6.173   0.921  1.9157 -0.0335 -1.0106
 3657TIP3   OH232461   1.774   6.797  14.859 -0.4192 -0.3020 -0.0060
 3657TIP3    H132462   1.746   6.833  14.943  1.4483 -1.7068  1.3067
 3657TIP3    H232463   1.706   6.825  14.797 -0.4082  3.2175  1.3460
 3658TIP3   OH232464   3.289   0.420   4.206 -0.0361  0.0967  0.3555
 3658TIP3    H132465   3.318   0.337   4.244 -2.5235 -0.4640  1.2774
 3658TIP3    H232466   3.227   0.456   4.270  0.3082  2.2483 -0.4242
 3659TIP3   OH232467   3.809   0.734  14.979  0.4594 -0.0916  0.3031
 3659TIP3    H132468   3.795   0.711  14.887  0.8663  0.0333  0.2058
 3659TIP3    H232469   3.825   0.650  15.022  1.6189 -0.0524  0.0059
 3660TIP3   OH232470   3.362   3.471  11.434 -0.1618  0.6106  0.2363
 3660TIP3    H132471   3.308   3.421  11.373 -0.2699  0.1469  0.7007
 3660TIP3    H232472   3.424   3.407  11.468  0.3500  1.0248  0.0922
 3661TIP3   OH232473   4.737   0.860   5.172 -0.6564  0.9107 -0.3331
 3661TIP3    H132474   4.813   0.874   5.229 -0.4013 -0.0446 -0.4162
 3661TIP3    H232475   4.774   0.836   5.087 -0.9096 -3.3254  0.5198
 3662TIP3   OH232476   1.649   4.362  14.518  0.0492  0.2150 -0.3778
 3662TIP3    H132477   1.623   4.415  14.443 -1.5560  0.0885  0.0344
 3662TIP3    H232478   1.633   4.272  14.490  1.1887  0.0354 -0.4989
 3663TIP3   OH232479   1.191   6.846   4.879 -0.0450 -0.1769  0.0750
 3663TIP3    H132480   1.187   6.917   4.943 -1.9777 -0.4617  0.3377
 3663TIP3    H232481   1.226   6.771   4.927  1.2178  0.3672  0.0165
 3664TIP3   OH232482   2.872   1.861   2.082  0.3788 -0.1660  0.2294
 3664TIP3    H132483   2.909   1.947   2.066 -1.6085  0.8548  0.7659
 3664TIP3    H232484   2.792   1.858   2.029  0.3228 -1.6159  0.3325
 3665TIP3   OH232485   0.576   6.816  13.450 -0.3166 -0.4519  0.1325
 3665TIP3    H132486   0.496   6.866  13.466  0.9373  1.2621  1.5237
 3665TIP3    H232487   0.591   6.824  13.356 -1.0535  0.3816  0.0696
 3666TIP3   OH232488   5.971   3.177  16.294  0.0873 -0.0380 -0.1503
 3666TIP3    H132489   5.918   3.100  16.276 -1.6406  1.1030 -0.1735
 3666TIP3    H232490   5.972   3.182  16.390  1.8923 -1.1692 -0.0649
 3667TIP3   OH232491   6.419   0.974   5.340  0.1572  0.0161 -0.2934
 3667TIP3    H132492   6.492   0.913   5.349 -1.5908 -2.1269  0.0182
 3667TIP3    H232493   6.352   0.942   5.400 -2.0511  0.3647 -2.3960
 3668TIP3   OH232494   0.644   0.363   0.430  0.4324  0.1514 -1.1512
 3668TIP3    H132495   0.556   0.347   0.395 -1.0813  1.2435  1.7632
 3668TIP3    H232496   0.670   0.279   0.467 -1.6172  0.8252  2.2142
 3669TIP3   OH232497   5.897   4.737  13.862  0.0016  0.4190  0.0300
 3669TIP3    H132498   5.802   4.744  13.858 -0.0349  2.2030  2.1218
 3669TIP3    H232499   5.921   4.781  13.943  2.5948 -0.4529 -0.1652
 3670TIP3   OH232500   3.962   5.121   1.039 -0.7828 -0.0850 -0.2362
 3670TIP3    H132501   3.963   5.121   0.943  1.1430 -0.6537 -0.2511
 3670TIP3    H232502   4.053   5.132   1.064 -1.3996  1.5866  1.5744
 3671TIP3   OH232503   2.370   6.495   5.663  0.3067  0.0643  0.4045
 3671TIP3    H132504   2.458   6.460   5.678  0.2465 -0.9803 -1.3335
 3671TIP3    H232505   2.312   6.432   5.704  0.3452  0.3346  0.8723
 3672TIP3   OH232506   0.151   4.676   2.250  0.2511  0.3090  0.1224
 3672TIP3    H132507   0.157   4.768   2.276  2.5834 -0.0986  1.2472
 3672TIP3    H232508   0.180   4.674   2.159 -0.5043  0.7599 -0.1348
 3673TIP3   OH232509   4.671   1.075  13.996 -0.1281 -0.2234  0.2227
 3673TIP3    H132510   4.593   1.120  13.963  1.5973  1.2512 -2.2169
 3673TIP3    H232511   4.679   0.997  13.941  0.9710  0.5322 -0.7574
 3674TIP3   OH232512   6.478   1.335  13.022 -0.1165  0.7060 -0.6283
 3674TIP3    H132513   6.411   1.277  13.058 -0.6917  1.9536  0.4245
 3674TIP3    H232514   6.432   1.389  12.958 -0.4629  2.3711  0.9385
 3675TIP3   OH232515   0.139   4.096  14.789 -0.5385 -0.5410  0.2629
 3675TIP3    H132516   0.182   4.179  14.771  0.9143 -1.4346 -0.5946
 3675TIP3    H232517   0.142   4.049  14.706 -1.0968 -1.5484  0.7975
 3676TIP3   OH232518   0.125   5.930   1.571  0.6830  0.1652 -0.4413
 3676TIP3    H132519   0.051   5.870   1.582  0.2685  0.9130  1.1475
 3676TIP3    H232520   0.198   5.886   1.616  1.1502 -0.4000 -1.6889
 3677TIP3   OH232521   2.470   3.991  14.766  0.0584 -0.0189 -0.1366
 3677TIP3    H132522   2.416   3.916  14.740  0.0709  0.1379 -0.6197
 3677TIP3    H232523   2.408   4.064  14.769  0.6168  0.6956 -3.0806
 3678TIP3   OH232524   5.738   5.187  13.083  0.2092 -0.4127  0.4706
 3678TIP3    H132525   5.791   5.125  13.133  0.1346 -0.7737  0.1121
 3678TIP3    H232526   5.795   5.262  13.069  1.3475 -1.5396 -1.5393
 3679TIP3   OH232527   4.990   0.059  10.721 -0.3188  0.1565  0.3959
 3679TIP3    H132528   4.924   0.108  10.770 -1.2713  0.0135 -0.7238
 3679TIP3    H232529   5.072   0.078  10.767 -0.7455  2.2893  0.3720
 3680TIP3   OH232530   5.873   3.241   6.168  0.1740  0.3518  0.0749
 3680TIP3    H132531   5.951   3.293   6.190  0.7387 -0.2180 -0.5207
 3680TIP3    H232532   5.868   3.176   6.238 -0.2763  0.9045  0.5771
 3681TIP3   OH232533   0.313   5.134   4.171  0.1194  0.6383  0.1261
 3681TIP3    H132534   0.306   5.230   4.165  0.9505  0.6209 -1.9132
 3681TIP3    H232535   0.223   5.103   4.163 -0.0569  1.2154 -0.2022
 3682TIP3   OH232536   3.281   5.559  12.510 -0.1719 -0.4865 -0.0439
 3682TIP3    H132537   3.328   5.636  12.542 -1.3883  0.9456 -1.4951
 3682TIP3    H232538   3.303   5.489  12.572 -0.3294  1.4196  2.3007
 3683TIP3   OH232539   4.934   1.050   0.494  0.3524 -0.2183 -0.1902
 3683TIP3    H132540   4.859   1.047   0.553  0.0612  1.3677 -0.4262
 3683TIP3    H232541   4.918   0.980   0.430 -1.5097  0.7617 -0.8754
 3684TIP3   OH232542   0.228   3.297   2.565  0.3673 -0.2319 -0.4545
 3684TIP3    H132543   0.189   3.226   2.514 -0.1242  0.4690 -1.0662
 3684TIP3    H232544   0.180   3.375   2.538 -1.2120 -0.0570  2.3769
 3685TIP3   OH232545   4.473   6.039   5.823  0.3418  0.0175  0.1508
 3685TIP3    H132546   4.395   6.080   5.785 -1.4420 -2.5252  0.7446
 3685TIP3    H232547   4.441   5.997   5.903  2.9686  1.1721  1.9510
 3686TIP3   OH232548   1.455   3.156  12.703 -0.7908  0.5280  0.1204
 3686TIP3    H132549   1.498   3.084  12.657 -0.9519 -0.7508  1.8536
 3686TIP3    H232550   1.495   3.235  12.667  0.5312 -0.4941 -0.7461
 3687TIP3   OH232551   3.461   5.034  10.950 -0.2951 -0.3241  0.3605
 3687TIP3    H132552   3.457   5.125  10.921  0.5254 -0.8421 -1.4813
 3687TIP3    H232553   3.521   4.992  10.890 -2.2099 -2.5622 -0.1223
 3688TIP3   OH232554   2.810   6.887   5.368  0.1853  0.5882 -0.2790
 3688TIP3    H132555   2.770   6.968   5.398  0.1867 -0.3419  2.4763
 3688TIP3    H232556   2.898   6.887   5.406 -0.2584 -1.2242  0.8821
 3689TIP3   OH232557   6.478   1.277  11.229  0.5284  0.4480  0.1169
 3689TIP3    H132558   6.409   1.297  11.292  1.1163  0.4567  0.7655
 3689TIP3    H232559   6.504   1.363  11.195 -1.6937  0.3067 -2.2508
 3690TIP3   OH232560   0.689   3.249  14.362 -0.7707 -0.3637  0.0088
 3690TIP3    H132561   0.686   3.331  14.411 -1.4829 -1.0615  1.2035
 3690TIP3    H232562   0.782   3.237  14.342 -0.6169  0.5478  0.1235
 3691TIP3   OH232563   5.966   0.294  14.889  0.0994 -0.6563 -0.1087
 3691TIP3    H132564   6.062   0.296  14.879  0.0799 -1.3965 -0.5496
 3691TIP3    H232565   5.939   0.385  14.884  0.7292 -0.4898 -0.5951
 3692TIP3   OH232566   2.059   2.990  15.547  0.5244 -0.7234  0.7702
 3692TIP3    H132567   2.003   3.021  15.476 -0.3329  0.5560  1.9436
 3692TIP3    H232568   2.032   2.899  15.561 -0.9550 -0.2739  0.9871
 3693TIP3   OH232569   4.102   5.572   5.443 -0.1265 -0.0181 -0.3289
 3693TIP3    H132570   4.170   5.590   5.508 -0.9980  2.4336 -0.0100
 3693TIP3    H232571   4.082   5.479   5.455  1.3219 -0.1673  1.3412
 3694TIP3   OH232572   5.945   1.520   1.157 -0.1405  0.2965  0.3940
 3694TIP3    H132573   5.966   1.427   1.167  0.9521  0.5295  0.4807
 3694TIP3    H232574   6.024   1.557   1.117 -0.3351  1.2854  0.9089
 3695TIP3   OH232575   4.200   3.511   6.335 -0.0840 -0.6067  0.2047
 3695TIP3    H132576   4.172   3.423   6.310  0.8798 -0.3775 -1.9246
 3695TIP3    H232577   4.242   3.499   6.420 -0.1368 -2.1946  0.0477
 3696TIP3   OH232578   4.708   5.095   0.959 -0.0261  0.2086  0.4251
 3696TIP3    H132579   4.784   5.112   0.903 -0.4169  0.3747 -0.0595
 3696TIP3    H232580   4.742   5.101   1.048  1.1109 -2.2618  0.2335
 3697TIP3   OH232581   1.542   1.635  15.331  0.3773  0.3041  0.2800
 3697TIP3    H132582   1.531   1.543  15.308  1.1437  0.4516 -0.7462
 3697TIP3    H232583   1.477   1.650  15.400  0.6663 -1.1591  0.9237
 3698TIP3   OH232584   1.412   3.908   2.603 -0.3455  0.2259 -0.6005
 3698TIP3    H132585   1.508   3.913   2.606 -0.2149 -1.3401 -0.9775
 3698TIP3    H232586   1.394   3.857   2.523 -1.4705  0.1857 -0.3321
 3699TIP3   OH232587   3.211   4.033  16.016  0.4217  0.0885 -0.3596
 3699TIP3    H132588   3.291   3.989  16.042  0.0782 -0.2259  0.1981
 3699TIP3    H232589   3.146   4.006  16.081 -0.0368  0.6551 -0.5635
 3700TIP3   OH232590   3.257   6.861   3.533 -0.3640  0.3755  0.3735
 3700TIP3    H132591   3.266   6.950   3.567  0.5031  1.1915 -1.8157
 3700TIP3    H232592   3.339   6.818   3.557 -0.0017  0.7611 -0.1496
 3701TIP3   OH232593   5.118   4.276  12.889 -0.0011  0.3377 -0.5575
 3701TIP3    H132594   5.036   4.230  12.870  0.3305 -0.6639  0.3281
 3701TIP3    H232595   5.175   4.209  12.927  0.6422  1.4081  0.4193
 3702TIP3   OH232596   5.527   3.643  13.601 -0.4950 -0.0229  0.5590
 3702TIP3    H132597   5.602   3.632  13.542 -0.1676  1.1041  0.7462
 3702TIP3    H232598   5.551   3.593  13.679  0.5901  1.2364  1.0712
 3703TIP3   OH232599   5.833   1.325  10.784 -0.2128 -0.3274 -0.2696
 3703TIP3    H132600   5.828   1.233  10.756 -1.6965  0.4122 -2.8143
 3703TIP3    H232601   5.802   1.325  10.874  0.0988 -2.3577 -0.1245
 3704TIP3   OH232602   3.594   2.906  14.772 -0.0905 -0.3423  0.0184
 3704TIP3    H132603   3.677   2.893  14.818  0.0015  0.9748  0.2709
 3704TIP3    H232604   3.596   2.998  14.746 -1.8290 -0.0528  0.7704
 3705TIP3   OH232605   6.660   4.571  11.528  0.3229 -0.3064 -0.0495
 3705TIP3    H132606   6.727   4.602  11.467  0.8373  0.6454  0.9453
 3705TIP3    H232607   6.643   4.481  11.502  1.1113 -0.1710 -1.0856
 3706TIP3   OH232608   2.507   3.952  15.300 -0.2613  0.4170  0.2901
 3706TIP3    H132609   2.533   3.873  15.347 -0.4535  0.7944  1.0470
 3706TIP3    H232610   2.521   3.931  15.208 -2.4494 -1.3289  0.2570
 3707TIP3   OH232611   4.864   1.667  11.550  0.1118 -0.1864 -0.5063
 3707TIP3    H132612   4.794   1.609  11.520  0.7357  0.1472 -2.8865
 3707TIP3    H232613   4.913   1.688  11.470  2.9088 -0.3419  1.0389
 3708TIP3   OH232614   3.775   2.096  11.561 -0.2053 -0.1758  0.1776
 3708TIP3    H132615   3.736   2.160  11.501 -0.4433 -2.2793 -2.0558
 3708TIP3    H232616   3.858   2.135  11.587 -0.4159  1.1130 -0.9640
 3709TIP3   OH232617   5.215   3.744  11.166 -0.1871  0.2371 -0.2515
 3709TIP3    H132618   5.187   3.793  11.089  1.1027  1.8245  0.2289
 3709TIP3    H232619   5.273   3.676  11.132  0.2728  0.8422 -0.6822
 3710TIP3   OH232620   1.540   4.672  10.654 -0.4244  0.0342 -0.3536
 3710TIP3    H132621   1.471   4.606  10.652 -0.6475  0.2764 -1.3370
 3710TIP3    H232622   1.565   4.683  10.562  0.2443  0.6547 -0.1054
 3711TIP3   OH232623   3.342   1.190  14.411  0.4869 -0.1000 -0.2239
 3711TIP3    H132624   3.402   1.262  14.390  2.4058 -1.6500 -0.3675
 3711TIP3    H232625   3.314   1.207  14.501 -0.7026  1.8494 -0.9140
 3712TIP3   OH232626   3.941   0.392   5.832  0.2912 -0.1552  0.5128
 3712TIP3    H132627   4.036   0.375   5.829  0.3745  0.3095  0.4205
 3712TIP3    H232628   3.934   0.486   5.820 -0.1353 -0.0629  1.3891
 3713TIP3   OH232629   3.427   4.018  11.920 -0.1985 -0.3162  0.1889
 3713TIP3    H132630   3.468   4.105  11.923  0.4688 -0.5491 -1.2940
 3713TIP3    H232631   3.333   4.036  11.923 -0.1075  0.5680 -1.3185
 3714TIP3   OH232632   3.571   0.434   0.711 -0.9483 -0.4455  0.0870
 3714TIP3    H132633   3.656   0.449   0.670 -0.7701  0.1835  0.6734
 3714TIP3    H232634   3.588   0.367   0.778 -0.5498  0.8640  1.3369
 3715TIP3   OH232635   3.096   2.254  12.163  0.0274  0.0207  0.2110
 3715TIP3    H132636   3.016   2.212  12.195  0.4778 -0.4744  0.7038
 3715TIP3    H232637   3.154   2.181  12.142  1.0237  0.3853  1.5691
 3716TIP3   OH232638   6.059   3.193  12.747  0.3653  0.1318 -0.0843
 3716TIP3    H132639   6.063   3.134  12.671 -0.3581  0.2293 -0.2065
 3716TIP3    H232640   6.056   3.280  12.709  0.0251  0.1826  0.0544
 3717TIP3   OH232641   4.990   0.436  12.929 -0.6843 -0.5943  0.2557
 3717TIP3    H132642   5.018   0.391  13.009 -0.9783 -0.8058  0.2408
 3717TIP3    H232643   5.072   0.456  12.883 -0.3363  1.4145  1.5940
 3718TIP3   OH232644   3.326   0.686  14.875  0.1594  0.5656  0.1148
 3718TIP3    H132645   3.411   0.699  14.834 -0.0090  1.7522  0.1141
 3718TIP3    H232646   3.264   0.692  14.802 -0.0124  1.0124  0.2926
 3719TIP3   OH232647   0.235   1.220  11.546 -0.4141  0.3138  0.1775
 3719TIP3    H132648   0.218   1.306  11.584  0.8611  0.5465  0.2921
 3719TIP3    H232649   0.304   1.237  11.481  0.3386 -0.7079  0.6780
 3720TIP3   OH232650   1.008   3.180  11.574 -0.7655 -0.0040 -0.1284
 3720TIP3    H132651   0.934   3.239  11.588  0.1280  1.7961 -2.3883
 3720TIP3    H232652   1.035   3.197  11.484  0.3491 -3.0192 -0.4722
 3721TIP3   OH232653   6.140   5.533   2.850 -0.3312 -0.5159 -0.0098
 3721TIP3    H132654   6.080   5.465   2.820 -1.0269  0.4461 -0.8975
 3721TIP3    H232655   6.083   5.605   2.879  0.3840 -0.0840  0.3699
 3722TIP3   OH232656   2.659   1.500  11.694  0.5998  0.5697  0.0004
 3722TIP3    H132657   2.630   1.591  11.704 -1.0050 -0.0853  2.1832
 3722TIP3    H232658   2.705   1.481  11.775  0.2941 -0.7580 -0.1195
 3723TIP3   OH232659   0.690   2.803   4.304 -0.7353  0.2830 -0.3929
 3723TIP3    H132660   0.716   2.722   4.259 -1.8689 -1.0738  1.2793
 3723TIP3    H232661   0.743   2.804   4.384 -2.4688 -0.1456  0.8075
 3724TIP3   OH232662   2.515   0.265  10.423 -0.1242  0.3684 -0.5390
 3724TIP3    H132663   2.549   0.328  10.486  1.9293 -0.7997 -0.3987
 3724TIP3    H232664   2.425   0.293  10.408 -0.7425  0.6786  2.9373
 3725TIP3   OH232665   1.257   4.890  14.728 -0.1727  0.1397 -0.1073
 3725TIP3    H132666   1.309   4.812  14.711  0.0052 -0.0074  1.0340
 3725TIP3    H232667   1.254   4.897  14.823 -1.0279  0.9640 -0.1743
 3726TIP3   OH232668   6.399   2.472  16.787  0.2099  0.2037 -0.9180
 3726TIP3    H132669   6.435   2.428  16.864 -1.8520  3.8099  2.4519
 3726TIP3    H232670   6.473   2.519  16.749  0.7209  1.0013  0.9493
 3727TIP3   OH232671   2.662   3.134  10.823 -0.1982  0.3721 -0.4675
 3727TIP3    H132672   2.603   3.088  10.883  0.0837  1.2467  0.4999
 3727TIP3    H232673   2.676   3.072  10.752 -0.1838 -0.8705  0.5776
 3728TIP3   OH232674   0.518   4.331   3.027  0.5093 -0.1066 -0.8259
 3728TIP3    H132675   0.457   4.349   3.099  1.0924  1.3464 -0.6460
 3728TIP3    H232676   0.544   4.240   3.040  2.1336  0.6197  2.0931
 3729TIP3   OH232677   6.777   2.761   5.326  0.6295 -0.2514  0.2256
 3729TIP3    H132678   6.765   2.793   5.237 -2.0034  1.6974  1.1340
 3729TIP3    H232679   6.858   2.802   5.356  2.0123 -1.5917 -1.4263
 3730TIP3   OH232680   5.098   1.732  14.088  0.2342 -0.3575 -0.7266
 3730TIP3    H132681   5.036   1.715  14.159  2.4431 -1.5033  1.0955
 3730TIP3    H232682   5.137   1.646  14.069  1.4732  0.3492 -1.5229
 3731TIP3   OH232683   6.572   4.184   0.813 -0.0238  0.5042 -0.2781
 3731TIP3    H132684   6.607   4.106   0.857 -0.4163  1.0079  0.9643
 3731TIP3    H232685   6.614   4.184   0.727  1.5902  0.0719  0.4830
 3732TIP3   OH232686   2.078   0.863   3.159 -0.1323  0.2522  0.0559
 3732TIP3    H132687   1.988   0.890   3.176  1.0549  3.4488  2.1830
 3732TIP3    H232688   2.082   0.853   3.064 -2.7478 -0.2722 -0.0801
 3733TIP3   OH232689   2.612   0.024  15.293 -0.4464 -0.2206 -0.1280
 3733TIP3    H132690   2.609   0.116  15.269  1.6571 -0.0465  0.0827
 3733TIP3    H232691   2.548   0.016  15.364 -0.0853  1.2539  0.4008
 3734TIP3   OH232692   5.379   5.164   1.418  0.6586  0.4440  0.4576
 3734TIP3    H132693   5.315   5.142   1.485  1.1268 -0.2222  0.6932
 3734TIP3    H232694   5.363   5.257   1.400 -0.3958  0.2751  0.4711
 3735TIP3   OH232695   6.646   5.754  16.687 -0.5354  0.3157  0.1525
 3735TIP3    H132696   6.671   5.703  16.610  1.1165 -1.4970  1.7611
 3735TIP3    H232697   6.570   5.708  16.722  0.8453 -1.0997  1.5005
 3736TIP3   OH232698   2.305   2.246  16.428 -0.0084 -0.2311  0.5788
 3736TIP3    H132699   2.319   2.320  16.487 -0.2095  0.1689  0.1277
 3736TIP3    H232700   2.215   2.256  16.399  0.0275 -0.5442  0.3645
 3737TIP3   OH232701   0.941   2.914   4.167 -0.9629 -0.2538  0.6001
 3737TIP3    H132702   0.920   2.925   4.074  1.1926  0.6046  0.1519
 3737TIP3    H232703   0.950   2.819   4.178 -3.1897 -0.5402  0.4673
 3738TIP3   OH232704   5.558   3.982  11.666  0.2693  0.0230  0.3267
 3738TIP3    H132705   5.610   3.944  11.736 -1.2931 -1.1537  0.8939
 3738TIP3    H232706   5.498   3.912  11.639 -0.5675  1.1020 -0.7574
 3739TIP3   OH232707   0.939   1.749  15.909 -0.5386 -0.3351  0.1447
 3739TIP3    H132708   0.969   1.796  15.987  1.6529  0.5009 -1.0997
 3739TIP3    H232709   0.961   1.808  15.837 -0.6599 -1.9244 -1.2361
 3740TIP3   OH232710   0.580   6.257   5.325 -0.1617  0.7153 -0.7625
 3740TIP3    H132711   0.503   6.266   5.381 -1.9042  0.6735 -3.0042
 3740TIP3    H232712   0.617   6.171   5.348 -2.3618 -0.4706 -1.4136
 3741TIP3   OH232713   5.964   4.045  12.683 -0.0812  0.3325 -0.2368
 3741TIP3    H132714   5.963   4.128  12.634 -0.5372  0.1224 -0.5935
 3741TIP3    H232715   6.056   4.026  12.696  0.0546  2.0335  1.8196
 3742TIP3   OH232716   4.437   1.417  14.395  0.3298 -0.0318  0.5061
 3742TIP3    H132717   4.481   1.388  14.474 -0.2028 -1.1116  0.4219
 3742TIP3    H232718   4.464   1.355  14.328  0.9371  0.9873 -0.2287
 3743TIP3   OH232719   2.465   0.328  12.017 -0.0453  0.2296 -0.1760
 3743TIP3    H132720   2.496   0.413  11.988  0.8914 -0.0113  0.0612
 3743TIP3    H232721   2.373   0.325  11.993 -0.0071  1.1878 -0.4495
 3744TIP3   OH232722   2.114   5.519  16.128  0.0994 -0.5848 -0.0409
 3744TIP3    H132723   2.042   5.499  16.068  0.5969  1.7530 -1.5420
 3744TIP3    H232724   2.072   5.543  16.210 -0.6356 -2.8214  0.2938
 3745TIP3   OH232725   1.533   4.208  16.125 -0.2292 -0.1412  0.2056
 3745TIP3    H132726   1.494   4.124  16.101  1.6880 -0.6459 -1.4174
 3745TIP3    H232727   1.489   4.272  16.069 -1.5428 -0.0615  1.2947
 3746TIP3   OH232728   6.420   1.514  13.957 -0.4090 -0.2397  0.2655
 3746TIP3    H132729   6.504   1.469  13.963 -0.3531 -0.2108 -0.2815
 3746TIP3    H232730   6.359   1.461  14.008 -0.0518 -0.2443  0.6869
 3747TIP3   OH232731   5.414   3.260  11.327 -0.2560 -0.3558  0.1703
 3747TIP3    H132732   5.396   3.168  11.345 -1.5980 -0.1048  0.2326
 3747TIP3    H232733   5.349   3.307  11.380  1.0879  0.6735  0.9844
 3748TIP3   OH232734   4.250   5.423   0.399  0.4883 -0.2735 -0.0238
 3748TIP3    H132735   4.278   5.466   0.480 -0.0238 -0.5095  0.2812
 3748TIP3    H232736   4.214   5.493   0.345 -0.8149 -0.3866  0.6741
 3749TIP3   OH232737   2.094   5.155   0.491 -0.3761 -0.0835  0.5467
 3749TIP3    H132738   2.061   5.066   0.494 -0.2710 -0.0987  1.2009
 3749TIP3    H232739   2.016   5.210   0.502 -0.3290 -0.1065  1.0032
 3750TIP3   OH232740   5.058   2.049  15.252 -0.1700 -0.2873 -0.6971
 3750TIP3    H132741   5.071   1.976  15.192 -1.6319 -1.0298 -0.1490
 3750TIP3    H232742   5.097   2.020  15.335 -0.7041 -0.4511 -0.4945
 3751TIP3   OH232743   1.190   4.404  11.267  0.1851 -0.2116  0.1232
 3751TIP3    H132744   1.283   4.409  11.287  0.6152  0.0231 -1.8084
 3751TIP3    H232745   1.184   4.343  11.194 -1.0067  0.7743 -0.6516
 3752TIP3   OH232746   5.815   1.612   3.994  0.3747  0.2708  0.0611
 3752TIP3    H132747   5.824   1.519   3.971  0.0179  0.2541 -0.0178
 3752TIP3    H232748   5.904   1.640   4.016  0.5139 -0.0449 -0.0896
 3753TIP3   OH232749   1.750   4.365   3.058  0.2824  0.0188  0.1435
 3753TIP3    H132750   1.660   4.391   3.038 -0.0596 -1.6770 -0.7053
 3753TIP3    H232751   1.760   4.382   3.152 -0.0471  2.6265 -0.2267
 3754TIP3   OH232752   6.319   3.432   4.466 -0.4193  0.3234  0.0395
 3754TIP3    H132753   6.349   3.437   4.557  1.2336 -1.0608 -0.3709
 3754TIP3    H232754   6.273   3.514   4.451 -1.1063  0.4063  2.2463
 3755TIP3   OH232755   1.637   5.968   0.519 -0.3120  0.0266  0.0685
 3755TIP3    H132756   1.718   5.972   0.468  0.3378  0.7799  1.1107
 3755TIP3    H232757   1.664   5.993   0.608 -2.1695  3.2676 -0.1283
 3756TIP3   OH232758   6.025   2.540   2.495 -0.5252  0.0846 -0.2568
 3756TIP3    H132759   6.074   2.464   2.525 -1.5634 -1.0277 -1.3051
 3756TIP3    H232760   5.946   2.504   2.453 -0.5158  1.6620 -1.7568
 3757TIP3   OH232761   3.654   2.770  13.868  0.2354  0.4384 -0.3282
 3757TIP3    H132762   3.647   2.674  13.864 -0.2623  0.4499  0.2335
 3757TIP3    H232763   3.593   2.801  13.801  1.6434  0.3381 -1.7095
 3758TIP3   OH232764   3.174   5.391  14.814 -0.5871 -0.3446  0.6045
 3758TIP3    H132765   3.197   5.452  14.884 -1.0374 -1.1130  1.4401
 3758TIP3    H232766   3.253   5.386  14.760 -0.7861  1.5446  0.0729
 3759TIP3   OH232767   4.114   2.534  13.000 -0.1629 -0.3606 -0.1800
 3759TIP3    H132768   4.180   2.491  13.055 -0.0997 -2.0119 -1.4862
 3759TIP3    H232769   4.037   2.479  13.007  0.1788 -1.2659 -2.5427
 3760TIP3   OH232770   2.052   5.615  10.381  0.0102 -0.5037 -0.2812
 3760TIP3    H132771   2.134   5.581  10.418  0.2084  0.4664  0.2047
 3760TIP3    H232772   1.984   5.578  10.437  0.2795  0.5858  0.7962
 3761TIP3   OH232773   0.962   5.902   1.867  0.0729 -0.5267 -0.3985
 3761TIP3    H132774   1.015   5.977   1.840 -0.2315 -0.3290 -0.4523
 3761TIP3    H232775   1.024   5.842   1.909 -0.0182  0.6497  1.5302
 3762TIP3   OH232776   0.162   0.133  10.803  0.5029 -0.1848  0.9446
 3762TIP3    H132777   0.117   0.212  10.773  0.3627 -0.6498 -0.1295
 3762TIP3    H232778   0.106   0.098  10.872  0.8783  0.9697  1.8532
 3763TIP3   OH232779   5.281   2.849  16.815 -0.4870 -1.1207 -0.1832
 3763TIP3    H132780   5.216   2.823  16.749 -1.3788 -1.7743  0.9126
 3763TIP3    H232781   5.361   2.864  16.765 -1.3586 -0.7368 -1.5228
 3764TIP3   OH232782   3.016   0.403  13.477 -1.6162  0.2721 -0.3726
 3764TIP3    H132783   3.012   0.318  13.521 -0.1708  0.8453  0.9581
 3764TIP3    H232784   3.022   0.381  13.384  0.4703 -1.2127  0.0327
 3765TIP3   OH232785   1.514   6.144  11.812 -0.1076  0.1799 -0.1316
 3765TIP3    H132786   1.497   6.175  11.723  1.5889 -0.8416 -0.8762
 3765TIP3    H232787   1.560   6.216  11.854  0.4071  0.1291 -0.5906
 3766TIP3   OH232788   2.043   6.370   0.647 -0.1764 -0.3665 -0.4673
 3766TIP3    H132789   2.066   6.301   0.710  0.4868  2.2928  2.4504
 3766TIP3    H232790   1.948   6.378   0.654  0.0191  1.0130  1.6484
 3767TIP3   OH232791   6.212   6.831  14.753  0.7689  0.1447  0.3925
 3767TIP3    H132792   6.252   6.904  14.800  2.2218 -0.0894 -0.4199
 3767TIP3    H232793   6.135   6.869  14.710 -1.2875  0.1302  3.7467
 3768TIP3   OH232794   0.773   5.445   1.410  0.3847 -0.4161 -0.1396
 3768TIP3    H132795   0.710   5.466   1.340 -1.2970 -1.5633  0.9446
 3768TIP3    H232796   0.767   5.350   1.419  3.2493 -0.7356 -0.8157
 3769TIP3   OH232797   0.451   6.077   5.089  0.6617 -0.1672 -0.6708
 3769TIP3    H132798   0.385   6.017   5.125 -0.8500  1.1148 -1.2061
 3769TIP3    H232799   0.440   6.158   5.139  0.6912  0.6009 -1.8790
 3770TIP3   OH232800   6.037   1.348   3.610  0.3048 -0.6037  0.3712
 3770TIP3    H132801   6.024   1.254   3.619 -3.1036 -0.4325 -1.1304
 3770TIP3    H232802   5.991   1.386   3.685 -1.3526 -0.1178 -0.8318
 3771TIP3   OH232803   5.427   3.810  12.955  0.3568 -0.4425  0.3781
 3771TIP3    H132804   5.349   3.768  12.919 -0.1174 -0.3515  1.2625
 3771TIP3    H232805   5.500   3.762  12.917 -0.1212 -0.5429 -0.4486
 3772TIP3   OH232806   0.649   6.572   3.296 -0.1497  0.3664  0.4510
 3772TIP3    H132807   0.625   6.480   3.291 -1.9906  0.8739 -0.6514
 3772TIP3    H232808   0.568   6.617   3.318  0.0036  2.0236 -2.0396
 3773TIP3   OH232809   1.136   5.650   3.924  0.1415  0.0979  0.2903
 3773TIP3    H132810   1.183   5.568   3.940  1.2170  0.8394  1.1021
 3773TIP3    H232811   1.100   5.674   4.010  0.7337  0.9907  0.3107
 3774TIP3   OH232812   5.131   3.379  15.271 -0.3446  0.2222  0.1949
 3774TIP3    H132813   5.038   3.366  15.251 -0.5749  0.6456  0.9521
 3774TIP3    H232814   5.167   3.291  15.278 -0.8807  0.0443  0.7516
 3775TIP3   OH232815   5.398   1.655   2.527 -0.0494 -0.2102  0.2744
 3775TIP3    H132816   5.425   1.724   2.466 -0.7879 -0.9443 -0.9300
 3775TIP3    H232817   5.330   1.696   2.581 -1.6023 -0.3817 -1.4538
 3776TIP3   OH232818   1.417   0.605   4.831 -0.3094  0.2129  0.4619
 3776TIP3    H132819   1.347   0.581   4.770 -0.0624 -0.6659  0.5126
 3776TIP3    H232820   1.498   0.580   4.787 -0.0128  1.1636  0.4325
 3777TIP3   OH232821   6.728   3.805  12.025 -0.3619 -0.1636 -0.2289
 3777TIP3    H132822   6.755   3.893  11.999  0.1324 -0.1377  0.3578
 3777TIP3    H232823   6.808   3.764  12.059 -1.2635  0.4080  2.9372
 3778TIP3   OH232824   6.896   5.368  10.496  0.0549 -0.1116  0.1517
 3778TIP3    H132825   6.988   5.346  10.484 -0.0197 -0.9666  1.0338
 3778TIP3    H232826   6.870   5.321  10.575 -0.6632  1.5913  0.9711
 3779TIP3   OH232827   1.550   0.772  16.243 -0.5668 -0.8273 -0.1623
 3779TIP3    H132828   1.531   0.844  16.184  0.2147  0.0487  0.6395
 3779TIP3    H232829   1.597   0.811  16.316  0.1894 -2.2057  0.1262
 3780TIP3   OH232830   5.457   0.718   0.112 -0.1908  0.0695 -0.7293
 3780TIP3    H132831   5.454   0.813   0.109 -1.8003  0.0396 -0.8494
 3780TIP3    H232832   5.445   0.697   0.205 -1.4233 -0.0313 -0.8978
 3781TIP3   OH232833   5.667   3.410   1.967 -0.0623  0.1577 -0.3988
 3781TIP3    H132834   5.726   3.393   1.893 -0.6068 -0.6778 -0.6573
 3781TIP3    H232835   5.689   3.499   1.994  2.8499 -0.8368  0.9390
 3782TIP3   OH232836   4.140   2.316  15.172 -0.3836  0.0642  0.3458
 3782TIP3    H132837   4.081   2.333  15.099 -0.0863  0.8069  0.2613
 3782TIP3    H232838   4.226   2.345  15.140  0.7305 -3.8315 -0.7007
 3783TIP3   OH232839   2.881   2.947  16.790 -0.0748 -0.4197  0.2359
 3783TIP3    H132840   2.837   3.003  16.725  0.3418  0.5046  0.7315
 3783TIP3    H232841   2.811   2.890  16.823 -0.5257 -0.1535 -0.2421
 3784TIP3   OH232842   4.483   5.241   4.107  0.0049  0.1058  0.3918
 3784TIP3    H132843   4.426   5.205   4.175 -2.6033 -1.3133 -2.3191
 3784TIP3    H232844   4.528   5.164   4.070  1.9524  0.9329  0.8916
 3785TIP3   OH232845   1.871   4.072   4.160 -0.6030 -0.0628  0.2414
 3785TIP3    H132846   1.900   4.125   4.087  0.7470  3.3993  3.0005
 3785TIP3    H232847   1.782   4.101   4.178 -0.8252 -0.6822  0.1775
 3786TIP3   OH232848   1.848   0.863   0.785 -0.1833 -0.0911  0.4806
 3786TIP3    H132849   1.904   0.799   0.830  0.8993  0.4899 -0.0074
 3786TIP3    H232850   1.896   0.946   0.793  0.1153  0.0089 -1.8472
 3787TIP3   OH232851   0.914   5.241  12.427  0.4819 -0.1809 -0.2351
 3787TIP3    H132852   0.945   5.331  12.427 -1.7230  0.6420  0.4676
 3787TIP3    H232853   0.984   5.192  12.470  1.8444  1.1138 -0.8760
 3788TIP3   OH232854   2.771   6.488   1.672 -0.6566 -0.0836 -0.3510
 3788TIP3    H132855   2.798   6.490   1.763 -1.2365 -1.4564 -0.1262
 3788TIP3    H232856   2.679   6.514   1.673  0.2751  3.9517 -1.0448
 3789TIP3   OH232857   4.509   5.278   3.413 -0.5406 -0.0908 -0.6534
 3789TIP3    H132858   4.555   5.323   3.484  1.4086 -1.3619 -1.0562
 3789TIP3    H232859   4.523   5.332   3.336 -1.0800  0.3217 -0.4725
 3790TIP3   OH232860   2.564   3.249  14.028  0.3986 -0.4375  0.0412
 3790TIP3    H132861   2.609   3.270  13.946  1.6412 -0.3643  0.7132
 3790TIP3    H232862   2.527   3.162  14.013  0.6703 -0.4529 -0.5829
 3791TIP3   OH232863   4.315   1.729  13.501 -0.2017 -0.1430 -0.0220
 3791TIP3    H132864   4.381   1.791  13.533 -0.0941 -1.5832  2.7806
 3791TIP3    H232865   4.245   1.785  13.467  1.2287  1.4417 -0.5443
 3792TIP3   OH232866   3.065   4.505   0.218  0.0378  0.6326 -0.8316
 3792TIP3    H132867   3.072   4.563   0.294  0.6114  0.9487 -1.1270
 3792TIP3    H232868   3.138   4.444   0.227  0.0734  0.6348 -1.0984
 3793TIP3   OH232869   2.869   6.088  10.990  0.2941  0.9781 -0.2470
 3793TIP3    H132870   2.884   6.179  10.967  0.6489  1.1923  0.7756
 3793TIP3    H232871   2.777   6.084  11.016  0.7118  1.4530  1.4289
 3794TIP3   OH232872   1.049   2.938   4.692  0.2263  0.2797  0.9024
 3794TIP3    H132873   0.970   2.984   4.719 -0.1347  0.5132 -0.5062
 3794TIP3    H232874   1.084   2.990   4.619  1.1230 -0.3788  0.8438
 3795TIP3   OH232875   1.931   6.754  14.409  0.3540 -0.0862 -0.2424
 3795TIP3    H132876   1.998   6.793  14.353  0.9741 -0.1674  0.4391
 3795TIP3    H232877   1.974   6.741  14.494 -1.0811  1.7651  0.8529
 3796TIP3   OH232878   2.018   1.196  13.885  0.0578 -0.6566  0.1193
 3796TIP3    H132879   1.952   1.155  13.941 -1.2116  0.4455 -0.5036
 3796TIP3    H232880   1.971   1.216  13.804  1.3439 -0.4375 -0.5965
 3797TIP3   OH232881   2.242   2.777  14.521  0.0560  0.4236  0.6175
 3797TIP3    H132882   2.336   2.780  14.535  0.2110  1.7998 -0.5001
 3797TIP3    H232883   2.223   2.685  14.500  1.5332  0.5477 -1.5315
 3798TIP3   OH232884   2.988   2.681   1.586 -0.3551 -0.4800 -0.5497
 3798TIP3    H132885   2.992   2.752   1.521  0.6103  0.4244  0.4583
 3798TIP3    H232886   2.957   2.605   1.537 -2.0808  0.7814 -1.5412
 3799TIP3   OH232887   1.780   4.819   0.156  0.5324 -0.1070  0.4440
 3799TIP3    H132888   1.766   4.912   0.136  2.7009  0.4960  1.5264
 3799TIP3    H232889   1.725   4.773   0.092  0.3349  1.8862 -0.9160
 3800TIP3   OH232890   0.416   2.987  15.644  0.9207  0.3049 -0.0399
 3800TIP3    H132891   0.363   2.999  15.723 -0.2439 -0.4592 -0.6716
 3800TIP3    H232892   0.505   2.971  15.677  0.3858 -0.3925  1.1435
 3801TIP3   OH232893   1.041   4.970  14.290 -0.1200  0.1139  0.2998
 3801TIP3    H132894   1.090   5.049  14.311  0.5913  0.3149 -1.8544
 3801TIP3    H232895   1.037   4.922  14.372 -0.5527  2.3531  1.6543
 3802TIP3   OH232896   0.174   6.502  16.736  0.2080  0.0193 -0.0209
 3802TIP3    H132897   0.178   6.407  16.726  1.4224  0.1879 -1.5018
 3802TIP3    H232898   0.263   6.527  16.762 -0.6531  0.5810  2.7796
 3803TIP3   OH232899   0.787   2.586   2.238 -0.0484  0.4100 -0.2263
 3803TIP3    H132900   0.715   2.627   2.191 -0.6666 -0.0855  0.2775
 3803TIP3    H232901   0.747   2.549   2.316  0.9970  1.3856  0.8136
 3804TIP3   OH232902   1.076   2.444   0.536  0.0105 -0.1400 -0.0704
 3804TIP3    H132903   1.148   2.436   0.473 -0.7774  1.0005 -1.1750
 3804TIP3    H232904   1.057   2.354   0.562 -0.1662 -0.7391 -2.0903
 3805TIP3   OH232905   4.639   2.158  11.958  0.3641 -0.2688 -0.0320
 3805TIP3    H132906   4.624   2.064  11.965 -0.6611 -0.0793  0.4863
 3805TIP3    H232907   4.733   2.166  11.944  0.7323 -1.3096  1.5486
 3806TIP3   OH232908   6.220   2.009  13.855 -0.0420  0.9986  0.0597
 3806TIP3    H132909   6.187   1.967  13.776 -2.1473  1.1102  0.8379
 3806TIP3    H232910   6.279   1.944  13.894 -1.5394 -0.3701  0.0983
 3807TIP3   OH232911   4.399   1.142   5.377 -0.0611 -0.0023 -0.4600
 3807TIP3    H132912   4.380   1.236   5.382 -0.2112 -0.0403 -0.3130
 3807TIP3    H232913   4.466   1.135   5.309 -0.4619  0.1441 -0.8760
 3808TIP3   OH232914   0.556   4.400   4.697  0.5370 -0.0780 -0.6714
 3808TIP3    H132915   0.476   4.440   4.663  0.4362  0.9093  0.6094
 3808TIP3    H232916   0.534   4.307   4.708 -0.0358 -0.0401 -1.4231
 3809TIP3   OH232917   5.148   4.642  13.755 -0.4018 -0.4402 -0.6205
 3809TIP3    H132918   5.088   4.575  13.788  0.6830 -1.0695  0.1519
 3809TIP3    H232919   5.122   4.722  13.802 -0.9939 -0.5679 -0.7211
 3810TIP3   OH232920   3.546   1.963  13.711 -0.3549 -0.0360 -0.5427
 3810TIP3    H132921   3.593   2.017  13.648 -0.0814  0.4907  0.1052
 3810TIP3    H232922   3.610   1.898  13.739 -0.2156  0.2652 -0.1622
 3811TIP3   OH232923   3.231   1.042  15.522 -0.0133 -0.0647  0.4691
 3811TIP3    H132924   3.159   1.067  15.464  0.0064  1.0688  0.9180
 3811TIP3    H232925   3.274   0.970  15.475 -0.2684  0.5158 -0.7137
 3812TIP3   OH232926   6.443   6.600   5.107  0.4352 -0.5611  0.1940
 3812TIP3    H132927   6.503   6.609   5.181  2.6042 -0.9309 -1.4108
 3812TIP3    H232928   6.420   6.507   5.107  1.0196 -0.7083 -0.0189
 3813TIP3   OH232929   3.557   6.764   5.361 -0.0220 -0.5571 -0.0429
 3813TIP3    H132930   3.626   6.830   5.371  0.0949 -0.6782 -0.0471
 3813TIP3    H232931   3.570   6.729   5.273 -0.7916  0.2084 -0.4780
 3814TIP3   OH232932   1.580   4.778  13.409  0.0432 -0.3523 -0.1744
 3814TIP3    H132933   1.665   4.761  13.451 -0.8843 -0.4805  1.7641
 3814TIP3    H232934   1.528   4.700  13.428 -0.3096 -0.6028 -1.9933
 3815TIP3   OH232935   1.949   2.867   6.404 -0.3601  0.5279  0.1787
 3815TIP3    H132936   2.030   2.817   6.414  0.2070  1.2906 -0.4368
 3815TIP3    H232937   1.901   2.822   6.334 -0.7786 -0.2908  0.9642
 3816TIP3   OH232938   2.297   1.907   3.650  0.0252 -0.5056  0.0870
 3816TIP3    H132939   2.374   1.890   3.704  0.3744 -0.8037 -0.4987
 3816TIP3    H232940   2.232   1.845   3.681  0.9778 -2.3416 -1.3972
 3817TIP3   OH232941   4.270   5.125  16.530  0.0813 -0.3138  0.0406
 3817TIP3    H132942   4.240   5.214  16.544 -1.7744 -1.3026  3.6487
 3817TIP3    H232943   4.293   5.121  16.437  1.6517  4.2196  0.0116
 3818TIP3   OH232944   3.164   2.239  13.736  0.6119 -0.7134  0.4971
 3818TIP3    H132945   3.085   2.236  13.792  0.7273 -0.9246  0.6532
 3818TIP3    H232946   3.132   2.270  13.652  0.3504 -0.8298  0.5493
 3819TIP3   OH232947   3.903   6.814  10.169 -0.3256 -0.2570 -0.3838
 3819TIP3    H132948   3.819   6.856  10.184 -0.3800  0.0282 -1.4228
 3819TIP3    H232949   3.881   6.734  10.120  0.1947  1.2268 -3.2154
 3820TIP3   OH232950   3.315   4.047   1.684  0.1106 -0.4824 -0.0156
 3820TIP3    H132951   3.287   3.966   1.726 -2.7959  0.8389  0.8867
 3820TIP3    H232952   3.401   4.065   1.720  0.6588 -2.9128  0.0542
 3821TIP3   OH232953   5.881   0.532  15.733 -0.3230 -0.4606 -0.3644
 3821TIP3    H132954   5.941   0.467  15.770 -0.9925 -0.0393  1.5912
 3821TIP3    H232955   5.858   0.498  15.647  0.7622 -1.8871 -0.1160
 3822TIP3   OH232956   2.330   3.543  12.063 -0.4486  0.6499 -0.3892
 3822TIP3    H132957   2.242   3.531  12.026 -1.2295  0.6074  1.3533
 3822TIP3    H232958   2.389   3.518  11.993 -1.8639 -0.7924 -1.1422
 3823TIP3   OH232959   4.898   3.231   2.600 -0.3445  0.1378  0.2839
 3823TIP3    H132960   4.892   3.187   2.516 -0.8617  0.5335  0.1101
 3823TIP3    H232961   4.937   3.316   2.579 -0.7648  0.3604  0.3955
 3824TIP3   OH232962   1.812   2.661   2.698 -0.1342 -0.2760  0.3890
 3824TIP3    H132963   1.733   2.623   2.736 -0.6925  1.9645  1.6415
 3824TIP3    H232964   1.884   2.616   2.743 -0.6932 -1.3328  0.2623
 3825TIP3   OH232965   4.440   3.252  14.603 -0.1919 -0.6033 -0.8898
 3825TIP3    H132966   4.509   3.317  14.594 -2.5814  2.3060  0.1468
 3825TIP3    H232967   4.386   3.263  14.524 -1.5809 -0.0762  0.1095
 3826TIP3   OH232968   1.755   1.691   5.196  0.3270  0.3371 -0.6728
 3826TIP3    H132969   1.699   1.736   5.133 -0.1899  0.0778 -0.4102
 3826TIP3    H232970   1.804   1.760   5.239 -1.0797  0.7533  0.3379
 3827TIP3   OH232971   2.443   6.594  11.615 -0.1875 -0.4579  0.0141
 3827TIP3    H132972   2.476   6.520  11.564 -1.0593 -0.5387 -0.4474
 3827TIP3    H232973   2.511   6.610  11.681  0.3565 -1.1773 -0.3589
 3828TIP3   OH232974   5.115   0.997  14.819  0.2521 -0.3778 -0.2270
 3828TIP3    H132975   5.154   0.988  14.906  0.6842  2.9891  0.0590
 3828TIP3    H232976   5.021   0.980  14.833  0.5668 -1.6074  0.5101
 3829TIP3   OH232977   3.800   4.179   2.560  0.0101  0.0470 -0.3753
 3829TIP3    H132978   3.800   4.156   2.652 -0.6787  0.4112 -0.2804
 3829TIP3    H232979   3.832   4.269   2.558 -2.5661  1.0571 -0.1999
 3830TIP3   OH232980   4.467   1.739   2.023  0.2963 -0.2130  0.2963
 3830TIP3    H132981   4.431   1.794   2.092 -1.5147  0.4909 -1.1191
 3830TIP3    H232982   4.423   1.654   2.034 -0.9409  0.2681 -0.6716
 3831TIP3   OH232983   2.094   0.283  14.645  0.5404 -0.3168  0.2511
 3831TIP3    H132984   2.064   0.207  14.695  0.2727 -0.5455 -0.2512
 3831TIP3    H232985   2.017   0.339  14.638  0.7470  0.0261  0.6523
 3832TIP3   OH232986   5.868   2.861   1.312  0.0408  0.0302 -0.0812
 3832TIP3    H132987   5.855   2.829   1.222  0.1079  0.0354 -0.0929
 3832TIP3    H232988   5.953   2.825   1.338  0.1775  0.3076 -0.1416
 3833TIP3   OH232989   4.450   2.856  11.354  0.2679 -0.7505  0.1988
 3833TIP3    H132990   4.447   2.923  11.285  0.2528 -0.3155  0.6194
 3833TIP3    H232991   4.526   2.802  11.331  0.7340 -0.1433  0.2616
 3834TIP3   OH232992   3.740   0.189  11.644  0.0980  0.6870  0.1786
 3834TIP3    H132993   3.792   0.245  11.586  0.8913  0.1888  0.3902
 3834TIP3    H232994   3.784   0.104  11.641 -0.2476  0.4694  0.9902
 3835TIP3   OH232995   2.391   6.803   2.311 -0.5367  0.1044 -0.2882
 3835TIP3    H132996   2.326   6.776   2.246 -0.8161  0.9312 -0.3582
 3835TIP3    H232997   2.389   6.899   2.309 -1.5915  0.2031  1.9610
 3836TIP3   OH232998   6.569   0.879  14.324  0.9087  0.5677  0.4265
 3836TIP3    H132999   6.609   0.870  14.238  1.0899 -0.9611  0.6520
 3836TIP3    H233000   6.642   0.872  14.385  0.5860  0.0175  0.7570
 3837TIP3   OH233001   0.780   5.881  11.358  0.2755  0.3300  0.1516
 3837TIP3    H133002   0.795   5.955  11.416 -1.5352  0.3046  0.7273
 3837TIP3    H233003   0.755   5.921  11.274  1.4547  0.3568 -0.2027
 3838TIP3   OH233004   4.937   6.702  10.818 -0.5520  0.4485  0.4073
 3838TIP3    H133005   4.951   6.731  10.909  2.2785 -0.2626  0.2846
 3838TIP3    H233006   4.940   6.782  10.767  1.4577  0.5715  0.6400
 3839TIP3   OH233007   1.023   1.329   4.897  0.3169  0.2229 -0.0215
 3839TIP3    H133008   1.089   1.317   4.965  0.1853  1.0732  0.2659
 3839TIP3    H233009   0.992   1.419   4.909 -1.2653 -0.3212  0.1748
 3840TIP3   OH233010   2.202   5.845  11.197  0.2363 -0.0822  0.1969
 3840TIP3    H133011   2.108   5.843  11.177  0.1368 -0.6003  0.6818
 3840TIP3    H233012   2.207   5.873  11.288  0.6012  0.7087 -0.0556
 3841TIP3   OH233013   3.698   6.841   3.198 -0.4437  0.5580  0.0034
 3841TIP3    H133014   3.709   6.824   3.291 -3.7275  2.0640  0.8073
 3841TIP3    H233015   3.686   6.754   3.159  0.9543 -0.0859  0.9342
 3842TIP3   OH233016   5.432   6.161   2.674 -0.1428 -0.3785 -1.0381
 3842TIP3    H133017   5.505   6.150   2.735 -0.6581 -0.3844 -0.4202
 3842TIP3    H233018   5.378   6.083   2.685 -0.4608 -0.1845 -1.1919
 3843TIP3   OH233019   3.217   4.203  13.104 -0.1241  0.2771 -0.1795
 3843TIP3    H133020   3.180   4.281  13.063 -2.7502 -0.9526 -0.3889
 3843TIP3    H233021   3.190   4.131  13.046  1.4116 -0.9060  0.5020
 3844TIP3   OH233022   1.690   2.023   0.341 -0.3619 -0.7226  0.4417
 3844TIP3    H133023   1.631   2.068   0.280 -0.3130 -1.5106 -0.1957
 3844TIP3    H233024   1.761   2.085   0.355 -1.5401  0.4296  1.5706
 3845TIP3   OH233025   3.731   5.641  13.199 -0.1316 -0.1168  0.1750
 3845TIP3    H133026   3.654   5.646  13.142  0.9716 -1.7204 -1.6182
 3845TIP3    H233027   3.756   5.732  13.214 -0.8357  0.3900 -1.4577
 3846TIP3   OH233028   5.211   4.390   3.024 -0.1716 -0.1933 -0.3087
 3846TIP3    H133029   5.273   4.461   3.044  0.1352 -0.4953 -0.1855
 3846TIP3    H233030   5.125   4.433   3.023 -0.0740  0.0350  0.5598
 3847TIP3   OH233031   2.758   1.867  16.483  0.1372 -0.4939 -0.2563
 3847TIP3    H133032   2.663   1.856  16.478 -0.0395 -0.3206  1.9475
 3847TIP3    H233033   2.787   1.801  16.546  1.1330  0.9877  0.9303
 3848TIP3   OH233034   5.868   0.353   4.682  0.2603  0.2820  0.2342
 3848TIP3    H133035   5.776   0.358   4.707  0.7797  0.8238  2.2566
 3848TIP3    H233036   5.896   0.445   4.676  0.8288  0.1159  0.3179
 3849TIP3   OH233037   0.298   5.965  16.269 -0.1337  0.1027  0.6057
 3849TIP3    H133038   0.232   6.008  16.323  1.2799  1.7649  1.0819
 3849TIP3    H233039   0.334   6.035  16.215  0.4626 -0.9988 -0.4637
 3850TIP3   OH233040   5.669   4.127   1.632  0.1839  0.2635 -0.3405
 3850TIP3    H133041   5.588   4.164   1.667 -0.4330 -0.5535 -0.8650
 3850TIP3    H233042   5.737   4.187   1.661 -0.7452  1.6510 -0.8974
 3851TIP3   OH233043   6.808   0.259  16.033 -0.1484  0.0696  0.1123
 3851TIP3    H133044   6.811   0.169  16.063  0.2359  0.3108  0.8155
 3851TIP3    H233045   6.896   0.277  16.000 -0.3709  0.0283 -0.5242
 3852TIP3   OH233046   1.616   6.115   4.366  0.2784  0.1466  0.5553
 3852TIP3    H133047   1.624   6.137   4.274 -1.8329  0.6578  0.4315
 3852TIP3    H233048   1.706   6.105   4.397  1.2261  3.5535 -0.6773
 3853TIP3   OH233049   1.896   4.462   4.611  0.5096  0.7894 -0.4895
 3853TIP3    H133050   1.983   4.496   4.587  0.9462 -1.6260 -2.7016
 3853TIP3    H233051   1.910   4.420   4.696  1.1814  1.4736 -0.2457
 3854TIP3   OH233052   4.583   6.069  10.297 -0.5592 -0.4391  0.1414
 3854TIP3    H133053   4.657   6.060  10.238  1.1363 -1.0233  2.2482
 3854TIP3    H233054   4.514   6.015  10.257  0.8140 -1.5342 -0.8401
 3855TIP3   OH233055   2.100   5.107  14.755  0.9045  0.4359  0.2047
 3855TIP3    H133056   2.017   5.058  14.760  0.4038  1.3062  0.5975
 3855TIP3    H233057   2.167   5.040  14.767  0.2284 -0.1497  0.8985
 3856TIP3   OH233058   0.334   1.916   3.877  0.3980  0.5775  0.1285
 3856TIP3    H133059   0.362   1.826   3.862 -0.2624  0.4282 -0.2468
 3856TIP3    H233060   0.241   1.916   3.857  0.3496  1.3031  0.3160
 3857TIP3   OH233061   5.155   1.880  15.441  0.3110  0.1127  0.3427
 3857TIP3    H133062   5.155   1.895  15.536 -0.1436  2.4114  0.0412
 3857TIP3    H233063   5.079   1.825  15.425  0.2960 -0.1609  1.2991
 3858TIP3   OH233064   0.662   1.263   1.709 -0.0431 -0.3015  0.0973
 3858TIP3    H133065   0.739   1.283   1.762  2.0823 -1.3656 -2.3435
 3858TIP3    H233066   0.637   1.175   1.735  0.6421 -0.6000 -0.2265
 3859TIP3   OH233067   6.857   0.613   4.115  0.2245  0.4463 -0.3575
 3859TIP3    H133068   6.924   0.567   4.063  0.9214  0.8358  0.1788
 3859TIP3    H233069   6.895   0.618   4.203  0.7749  3.2375 -0.6890
 3860TIP3   OH233070   6.800   3.771   3.018  0.3721 -0.3316 -0.7371
 3860TIP3    H133071   6.865   3.751   2.951  0.0127 -0.5556 -1.0221
 3860TIP3    H233072   6.717   3.746   2.979 -0.0480  1.2343 -0.9306
 3861TIP3   OH233073   2.799   3.467   4.065  0.3672  0.4448 -0.4083
 3861TIP3    H133074   2.886   3.504   4.079 -0.6195  2.9640 -0.4950
 3861TIP3    H233075   2.745   3.504   4.135 -0.6637 -1.0753 -0.3432
 3862TIP3   OH233076   2.233   3.935   5.138 -0.2837 -0.2838  0.4007
 3862TIP3    H133077   2.231   3.863   5.075  2.0496 -1.8960  2.0128
 3862TIP3    H233078   2.181   3.903   5.212 -2.4311  1.3172 -0.3177
 3863TIP3   OH233079   5.658   6.123  10.311  0.0171 -0.0499  0.0877
 3863TIP3    H133080   5.707   6.160  10.385  1.2036 -0.2039 -0.6002
 3863TIP3    H233081   5.602   6.195  10.281  1.4652  0.8688 -0.5095
 3864TIP3   OH233082   1.924   4.302  14.565  0.8354 -0.0533  0.0715
 3864TIP3    H133083   1.829   4.291  14.570  0.8152  0.1546  0.1193
 3864TIP3    H233084   1.943   4.373  14.626  0.6950  1.8710 -1.9985
 3865TIP3   OH233085   4.154   0.689  12.000  0.0291 -0.2784  0.0767
 3865TIP3    H133086   4.130   0.773  12.040 -1.7191 -0.1363 -1.1986
 3865TIP3    H233087   4.205   0.713  11.923  1.0924 -0.4741  0.7000
 3866TIP3   OH233088   2.998   3.756   1.641  0.5901 -0.7287  0.3621
 3866TIP3    H133089   2.909   3.781   1.665 -0.6551  1.0497 -4.8667
 3866TIP3    H233090   3.007   3.666   1.671 -2.6350 -0.7171  1.7398
 3867TIP3   OH233091   4.240   6.614  10.758  1.0966  0.4701 -0.0556
 3867TIP3    H133092   4.321   6.568  10.778  0.5952 -0.1673  0.5586
 3867TIP3    H233093   4.171   6.554  10.785  0.4170  1.2094 -0.1027
 3868TIP3   OH233094   5.867   1.773   4.513 -0.2734 -0.2067  0.8835
 3868TIP3    H133095   5.905   1.859   4.531  0.6207 -0.4670  0.3260
 3868TIP3    H233096   5.773   1.789   4.502  0.3443  1.6166 -4.1360
 3869TIP3   OH233097   1.201   0.124  12.262  0.4162  0.0724 -0.2013
 3869TIP3    H133098   1.204   0.045  12.208  0.5993  0.9323 -1.4816
 3869TIP3    H233099   1.286   0.126  12.306  0.3942 -0.4564 -0.1278
 3870TIP3   OH233100   2.181   4.355   4.608 -0.1796 -0.0941  0.5247
 3870TIP3    H133101   2.169   4.309   4.691 -0.0826  1.0916  1.2139
 3870TIP3    H233102   2.113   4.320   4.551 -1.2396  0.1766  1.5849
 3871TIP3   OH233103   4.832   6.208  10.830 -0.5749 -0.3079 -0.4894
 3871TIP3    H133104   4.788   6.169  10.755 -0.4362 -0.1877 -0.6317
 3871TIP3    H233105   4.881   6.135  10.869  0.1629 -0.1476 -1.1038
 3872TIP3   OH233106   6.461   3.275   2.896  0.2664  0.7914  0.2636
 3872TIP3    H133107   6.395   3.241   2.836  0.5850  0.0089  0.3464
 3872TIP3    H233108   6.461   3.370   2.881 -0.0216  0.6612 -0.5948
 3873TIP3   OH233109   0.605   1.459   3.047 -0.3529  0.1762  0.1119
 3873TIP3    H133110   0.671   1.498   2.989 -0.3698  0.6424  0.3942
 3873TIP3    H233111   0.572   1.533   3.098  1.6054 -0.5663  2.6803
 3874TIP3   OH233112   5.512   6.459   5.156  0.3450  0.2842 -0.1236
 3874TIP3    H133113   5.562   6.382   5.184  1.6072  0.6857 -1.2079
 3874TIP3    H233114   5.576   6.529   5.151 -0.3733  0.8844 -1.2838
 3875TIP3   OH233115   5.532   2.442   4.504 -0.2538  0.7320  0.3984
 3875TIP3    H133116   5.495   2.364   4.462 -1.3392  1.3993  0.0678
 3875TIP3    H233117   5.610   2.462   4.452 -0.3069  0.2225  0.1159
 3876TIP3   OH233118   6.656   3.661   1.539 -0.4172 -0.3427 -0.4376
 3876TIP3    H133119   6.640   3.573   1.503 -0.5823 -0.0335 -1.1343
 3876TIP3    H233120   6.732   3.650   1.595 -0.2619 -0.8787 -0.7448
 3877TIP3   OH233121   2.566   5.612  15.237 -0.4020  0.1608 -0.3097
 3877TIP3    H133122   2.596   5.650  15.154 -2.5632 -0.2215 -1.3452
 3877TIP3    H233123   2.623   5.651  15.303  1.2868  0.6035 -1.9385
 3878TIP3   OH233124   2.875   2.146   2.372 -0.4946 -0.0961 -0.5945
 3878TIP3    H133125   2.944   2.121   2.434  1.3397  0.5311 -2.2739
 3878TIP3    H233126   2.812   2.073   2.375 -1.1413  0.4386  2.8056
 3879TIP3   OH233127   0.912   1.214  10.609  0.2009 -0.0220  0.0367
 3879TIP3    H133128   0.908   1.277  10.681 -0.5381  0.1388 -0.1410
 3879TIP3    H233129   0.826   1.171  10.610 -0.1513  0.5943 -1.2896
 3880TIP3   OH233130   6.077   4.688   3.839 -0.5009  0.0383  0.7372
 3880TIP3    H133131   6.016   4.644   3.779  1.2959 -0.7672 -0.5685
 3880TIP3    H233132   6.026   4.700   3.919 -2.1454 -1.2929 -0.0395
 3881TIP3   OH233133   2.600   2.151   4.760 -0.1584  0.2299 -0.7784
 3881TIP3    H133134   2.528   2.196   4.716 -0.5181  0.1989 -0.2200
 3881TIP3    H233135   2.579   2.058   4.751  0.6233  0.1404 -2.0006
 3882TIP3   OH233136   4.192   1.858  12.455  0.9405 -0.2535  0.2297
 3882TIP3    H133137   4.243   1.782  12.425  1.6162  0.9783 -2.0229
 3882TIP3    H233138   4.255   1.930  12.454  0.2553  0.4067  2.1159
 3883TIP3   OH233139   4.245   2.582  13.948  0.0705  0.1364  0.4957
 3883TIP3    H133140   4.189   2.647  13.991 -3.0288 -1.2896 -1.0263
 3883TIP3    H233141   4.205   2.498  13.970  0.4094 -0.8472 -2.1990
 3884TIP3   OH233142   0.688   1.736  16.496 -0.0510 -0.0037 -0.3943
 3884TIP3    H133143   0.594   1.724  16.507  0.2090 -0.4192  1.8574
 3884TIP3    H233144   0.715   1.788  16.572  1.4058  0.8516 -1.4559
 3885TIP3   OH233145   6.323   0.263  15.878  0.2736  0.2286 -0.0559
 3885TIP3    H133146   6.372   0.331  15.923  0.1454  1.0785 -1.1355
 3885TIP3    H233147   6.388   0.216  15.825  0.3217 -0.3437  0.4963
 3886TIP3   OH233148   2.587   6.823  11.326 -0.3410 -0.4345 -0.2398
 3886TIP3    H133149   2.505   6.779  11.349 -0.4049 -0.0908  0.2031
 3886TIP3    H233150   2.648   6.799  11.395  0.8822 -3.1645 -2.0811
 3887TIP3   OH233151   6.786   6.663   2.017  0.3882 -0.2893 -0.4109
 3887TIP3    H133152   6.869   6.710   2.008  0.1343  0.6273  1.6447
 3887TIP3    H233153   6.723   6.729   2.045 -0.9281 -1.0988 -1.3491
 3888TIP3   OH233154   5.373   0.989  12.267  0.5171  0.1305  0.1486
 3888TIP3    H133155   5.374   0.902  12.227 -0.0910  1.4526 -3.0659
 3888TIP3    H233156   5.286   0.998  12.305  0.4359 -0.5180  0.1181
 3889TIP3   OH233157   2.459   2.776   0.296 -0.2155  0.0661  0.4220
 3889TIP3    H133158   2.448   2.682   0.290  0.2850  0.0895 -1.6159
 3889TIP3    H233159   2.370   2.812   0.296 -0.3908 -0.3384 -0.8224
 3890TIP3   OH233160   6.495   5.566  10.845  0.8237  0.2801  0.1967
 3890TIP3    H133161   6.552   5.618  10.789 -0.4002 -1.8907 -3.4017
 3890TIP3    H233162   6.534   5.478  10.844 -0.6674 -0.4291  0.5589
 3891TIP3   OH233163   4.808   3.618   2.582  0.2454 -0.1885 -0.1438
 3891TIP3    H133164   4.751   3.581   2.515 -0.1614 -0.3712  0.3007
 3891TIP3    H233165   4.879   3.554   2.592  0.3630 -0.1109 -0.4707
 3892TIP3   OH233166   1.987   4.081   1.442  0.0807  0.6259 -0.1321
 3892TIP3    H133167   2.033   4.094   1.524  0.3455  1.9595 -0.4742
 3892TIP3    H233168   1.961   4.169   1.414  1.1131  0.3611 -2.0985
 3893TIP3   OH233169   4.683   5.486   2.948 -0.0094  0.1692 -0.4123
 3893TIP3    H133170   4.694   5.411   2.890 -1.6161 -0.4288  0.0004
 3893TIP3    H233171   4.719   5.457   3.032 -1.9204 -0.7360  0.1549
 3894TIP3   OH233172   5.580   0.179   2.600 -0.2139  0.4576 -0.3951
 3894TIP3    H133173   5.623   0.237   2.662  0.7727 -0.7434  0.0866
 3894TIP3    H233174   5.637   0.181   2.522  1.0319 -1.4732  0.4025
 3895TIP3   OH233175   2.406   2.129   3.262 -0.3170 -0.5223 -0.0603
 3895TIP3    H133176   2.391   2.036   3.281  3.2579 -1.5226 -1.2209
 3895TIP3    H233177   2.472   2.156   3.326 -2.0094  1.6117  0.9185
 3896TIP3   OH233178   4.683   6.192  14.711  0.2007  0.0256 -0.1585
 3896TIP3    H133179   4.613   6.235  14.759 -0.5559 -0.2578 -0.9715
 3896TIP3    H233180   4.700   6.250  14.637  0.3645 -0.2320 -0.3243
 3897TIP3   OH233181   2.828   3.614   2.523  0.0596  0.0631 -0.0050
 3897TIP3    H133182   2.864   3.593   2.437 -0.5760 -0.7619 -0.0813
 3897TIP3    H233183   2.904   3.628   2.579  0.4898 -0.7455 -0.3791
 3898TIP3   OH233184   6.110   4.873  13.073  0.0183 -0.2761 -0.0774
 3898TIP3    H133185   6.134   4.928  12.998  0.8714 -0.2738  0.1862
 3898TIP3    H233186   6.193   4.857  13.118 -0.5468  0.1262  1.1469
 3899TIP3   OH233187   4.134   0.502  14.214 -0.3270  0.2907 -1.0471
 3899TIP3    H133188   4.113   0.451  14.136  0.9451  0.5233 -1.5710
 3899TIP3    H233189   4.179   0.440  14.272 -1.5659  0.0292 -0.3278
 3900TIP3   OH233190   5.592   2.219   6.509  0.2335  0.1463  0.6563
 3900TIP3    H133191   5.657   2.156   6.541 -0.1821 -0.0514  1.1235
 3900TIP3    H233192   5.607   2.224   6.415  0.3351 -0.5802  0.6315
 3901TIP3   OH233193   0.565   6.343  15.501 -0.1400  0.1352 -0.7131
 3901TIP3    H133194   0.650   6.374  15.531 -0.7480  1.3966 -0.2132
 3901TIP3    H233195   0.537   6.408  15.436 -0.8105 -0.1544 -0.7208
 3902TIP3   OH233196   4.830   6.478  16.190  0.5111  0.0980 -0.4826
 3902TIP3    H133197   4.842   6.386  16.215  0.9595  0.5047  0.8956
 3902TIP3    H233198   4.748   6.479  16.142 -0.2932 -0.7987  0.7988
 3903TIP3   OH233199   5.997   0.341  10.587 -0.4916 -0.4511  0.0656
 3903TIP3    H133200   5.976   0.273  10.651 -0.2497  0.0786  0.7161
 3903TIP3    H233201   6.075   0.308  10.542  1.2889  0.5445  2.2147
 3904TIP3   OH233202   1.975   1.859  11.126  0.8713  0.3728 -0.5694
 3904TIP3    H133203   1.939   1.853  11.038  0.4446 -0.3068 -0.3604
 3904TIP3    H233204   1.980   1.768  11.156 -1.5200  0.6952  1.1018
 3905TIP3   OH233205   3.359   1.886   4.238 -0.1755  0.3851 -0.1751
 3905TIP3    H133206   3.410   1.944   4.295 -0.7163 -0.1953  0.9291
 3905TIP3    H233207   3.281   1.937   4.217  0.3418  0.8658 -0.9910
 3906TIP3   OH233208   2.725   3.181  15.965 -0.1973  0.3246 -0.6648
 3906TIP3    H133209   2.668   3.108  15.991  0.6851 -0.3593 -0.5893
 3906TIP3    H233210   2.743   3.166  15.873 -0.5530  0.8326 -0.8219
 3907TIP3   OH233211   5.869   4.071  15.287 -0.1733  0.1528 -0.3344
 3907TIP3    H133212   5.942   4.110  15.239  0.0505 -0.6792 -0.6941
 3907TIP3    H233213   5.900   4.067  15.378  0.2682 -0.2609 -0.4964
 3908TIP3   OH233214   3.662   2.692   1.369  0.5919  0.0505 -0.5579
 3908TIP3    H133215   3.737   2.747   1.393 -0.9987  1.0740  2.6377
 3908TIP3    H233216   3.700   2.605   1.354  2.6316  0.9802 -1.0884
 3909TIP3   OH233217   4.726   0.865   3.977  0.5199 -0.2492 -0.4171
 3909TIP3    H133218   4.646   0.839   3.932  1.2141  0.5467 -2.1667
 3909TIP3    H233219   4.772   0.783   3.995 -0.2833 -0.6470 -0.1468
 3910TIP3   OH233220   2.147   0.692  12.762 -0.0209 -0.3555  0.0305
 3910TIP3    H133221   2.085   0.631  12.802 -0.3583 -0.3040 -0.4149
 3910TIP3    H233222   2.105   0.777  12.768  0.1883 -0.2553  0.0994
 3911TIP3   OH233223   3.029   1.157   1.132  0.7198  0.3524 -0.0634
 3911TIP3    H133224   3.122   1.174   1.148  0.3961  2.6027 -0.2438
 3911TIP3    H233225   2.984   1.227   1.178 -0.8698 -0.2287 -0.6641
 3912TIP3   OH233226   1.633   4.185   0.500 -0.2984 -1.2587  0.4317
 3912TIP3    H133227   1.631   4.141   0.414  0.1603 -1.9926  0.7922
 3912TIP3    H233228   1.725   4.201   0.516 -0.5065  0.7841 -0.1462
 3913TIP3   OH233229   6.229   2.625   1.254 -0.4547  0.1229 -0.0408
 3913TIP3    H133230   6.153   2.593   1.205 -1.2670  1.7450  0.1026
 3913TIP3    H233231   6.194   2.654   1.338  0.6085 -0.6753  0.7174
 3914TIP3   OH233232   5.277   2.853   6.113  0.1111 -0.0871  0.3988
 3914TIP3    H133233   5.218   2.915   6.070 -0.8251 -0.3363  1.2941
 3914TIP3    H233234   5.365   2.881   6.086 -0.4187 -0.0312 -1.3761
 3915TIP3   OH233235   4.220   3.371  11.207  0.6380  0.0304  0.1183
 3915TIP3    H133236   4.232   3.354  11.301 -0.1296 -1.6787 -0.0602
 3915TIP3    H233237   4.157   3.442  11.203  2.7260  2.0414  0.9009
 3916TIP3   OH233238   0.989   5.999   4.898  0.0292 -0.0682  1.0893
 3916TIP3    H133239   0.925   5.979   4.830 -0.7467 -0.0011  1.7709
 3916TIP3    H233240   0.959   5.947   4.974  1.2217 -0.6296  1.2003
 3917TIP3   OH233241   0.149   5.966   4.369 -0.4211 -0.2890  0.1036
 3917TIP3    H133242   0.122   6.004   4.286 -0.4929  0.5362  0.4928
 3917TIP3    H233243   0.244   5.980   4.372 -0.6259  1.2172  0.8823
 3918TIP3   OH233244   2.708   5.500   5.579 -0.6215  0.1405  0.3318
 3918TIP3    H133245   2.649   5.567   5.614 -1.5072  0.0952 -0.9785
 3918TIP3    H233246   2.788   5.507   5.631 -1.2745  1.1635  1.2221
 3919TIP3   OH233247   6.814   6.529   0.070  0.4097 -0.5786  0.7014
 3919TIP3    H133248   6.816   6.544   0.164  0.7542 -1.3304  0.8305
 3919TIP3    H233249   6.767   6.603   0.034  0.9962  0.1431  1.3871
 3920TIP3   OH233250   4.111   6.666  11.392 -0.0191  0.2348 -0.0456
 3920TIP3    H133251   4.103   6.750  11.437  0.6939 -0.1036  0.7580
 3920TIP3    H233252   4.176   6.618  11.444  0.4234 -0.3842 -1.1466
 3921TIP3   OH233253   4.179   2.381  14.157  0.0076  0.3141  0.5001
 3921TIP3    H133254   4.227   2.443  14.212 -0.0047  1.9463 -1.2284
 3921TIP3    H233255   4.237   2.305  14.152  2.2201  1.9672 -0.9902
 3922TIP3   OH233256   6.312   2.260   2.306  0.2426  0.5911 -0.2713
 3922TIP3    H133257   6.327   2.351   2.280 -0.9939  1.9419  3.1711
 3922TIP3    H233258   6.223   2.260   2.341  0.5256 -1.7644  0.6081
 3923TIP3   OH233259   5.332   0.855   4.919  0.4973 -0.2603  0.3867
 3923TIP3    H133260   5.240   0.839   4.937  0.0879 -0.4045 -1.6466
 3923TIP3    H233261   5.333   0.933   4.863  1.4856 -0.9269 -0.5749
 3924TIP3   OH233262   2.881   0.304   2.726 -0.0926 -0.3904 -0.3734
 3924TIP3    H133263   2.930   0.223   2.716 -0.2476 -0.5539  0.1311
 3924TIP3    H233264   2.807   0.281   2.782 -0.8031 -0.1714 -1.1980
 3925TIP3   OH233265   4.078   2.568   3.561 -0.5181  0.1201 -0.1164
 3925TIP3    H133266   4.056   2.519   3.640 -1.4489 -0.8765 -0.9646
 3925TIP3    H233267   4.094   2.657   3.592 -0.0131 -0.4359  1.2988
 3926TIP3   OH233268   6.828   2.806  11.698 -0.0938  0.1933  0.9332
 3926TIP3    H133269   6.817   2.754  11.778 -1.9019 -0.9562 -0.0145
 3926TIP3    H233270   6.911   2.776  11.662 -1.1082 -2.1787  0.3791
 3927TIP3   OH233271   5.501   4.435   3.474 -0.3805 -0.7180 -0.0340
 3927TIP3    H133272   5.443   4.372   3.431  1.3296 -0.4007 -3.0140
 3927TIP3    H233273   5.585   4.389   3.482 -0.3073 -0.3208  1.9460
 3928TIP3   OH233274   6.342   4.004  13.462  0.2467 -0.1974 -0.1988
 3928TIP3    H133275   6.324   3.910  13.465  0.1449 -0.1657  0.4095
 3928TIP3    H233276   6.393   4.017  13.382 -0.1685 -0.6943 -0.5454
 3929TIP3   OH233277   1.053   6.103  15.005 -0.2801  0.1181 -0.7112
 3929TIP3    H133278   1.009   6.031  14.960 -0.8956 -0.4480  0.7484
 3929TIP3    H233279   1.106   6.061  15.072 -0.1516  0.9914 -0.2504
 3930TIP3   OH233280   3.128   2.820   3.765  0.3075  0.3153  0.0108
 3930TIP3    H133281   3.090   2.828   3.853  1.3808  0.5263  0.4799
 3930TIP3    H233282   3.095   2.896   3.718  0.6025  0.8162  0.5898
 3931TIP3   OH233283   3.209   3.825  14.280  0.1854 -0.4733 -0.2499
 3931TIP3    H133284   3.297   3.820  14.316  0.1870  0.1383 -0.1563
 3931TIP3    H233285   3.164   3.889  14.334  0.2791  0.6957 -1.4827
 3932TIP3   OH233286   3.833   5.468   0.820  0.2988  0.4524  0.1054
 3932TIP3    H133287   3.748   5.466   0.865  0.8791  0.4918  1.2474
 3932TIP3    H233288   3.823   5.406   0.747 -0.9867  1.1376 -0.3289
 3933TIP3   OH233289   3.334   3.109   4.303 -0.2900  0.5457  0.2609
 3933TIP3    H133290   3.369   3.040   4.247  2.0992 -1.2586  3.5457
 3933TIP3    H233291   3.242   3.087   4.315 -0.3544 -0.1502 -1.3052
 3934TIP3   OH233292   2.224   2.684   2.617 -0.4130 -0.8437  0.2593
 3934TIP3    H133293   2.318   2.694   2.632 -0.3075  0.6469 -1.0850
 3934TIP3    H233294   2.186   2.766   2.650 -0.7667  0.1434 -2.3152
 3935TIP3   OH233295   3.171   3.889   2.109  0.0526 -0.1408 -0.3381
 3935TIP3    H133296   3.148   3.982   2.111  1.6105  0.3203 -1.4911
 3935TIP3    H233297   3.192   3.872   2.017  3.1901 -0.7119  0.3812
 3936TIP3   OH233298   0.051   0.400  13.583 -0.2322 -0.1684  0.1987
 3936TIP3    H133299   0.058   0.487  13.545 -0.2072 -0.0397  0.4920
 3936TIP3    H233300   0.095   0.407  13.668  2.5034 -1.2615 -1.0045
 3937TIP3   OH233301   1.351   6.109   3.461  0.4623  0.3971  0.0260
 3937TIP3    H133302   1.386   6.198   3.459  0.3008  0.5183  1.4954
 3937TIP3    H233303   1.289   6.109   3.534 -0.7412 -0.4967 -0.9501
 3938TIP3   OH233304   1.529   4.115   2.877 -0.2033 -0.0993  0.0316
 3938TIP3    H133305   1.498   4.187   2.932 -0.4504 -0.1380 -0.0558
 3938TIP3    H233306   1.450   4.077   2.840 -0.0001  0.4241 -0.9890
 3939TIP3   OH233307   6.793   1.111  14.428  0.6613 -0.1146  0.2373
 3939TIP3    H133308   6.712   1.133  14.383  1.1728  1.4369  0.0098
 3939TIP3    H233309   6.862   1.150  14.374  1.7356 -2.6709 -0.4200
 3940TIP3   OH233310   0.801   5.738   0.716 -0.1852 -0.1397 -0.8262
 3940TIP3    H133311   0.790   5.645   0.698  1.3501 -1.1476  2.6172
 3940TIP3    H233312   0.734   5.758   0.782  0.1140  0.9726 -0.8382
 3941TIP3   OH233313   5.685   6.181  13.871  0.0797 -0.4120 -0.7597
 3941TIP3    H133314   5.761   6.126  13.855 -0.8639 -1.4713 -1.7818
 3941TIP3    H233315   5.675   6.232  13.791  0.0252  0.1277 -0.4175
 3942TIP3   OH233316   5.527   0.012  16.282  0.2067  0.1422  0.5826
 3942TIP3    H133317   5.603   0.030  16.339  0.0584  1.7450  0.3301
 3942TIP3    H233318   5.482   0.096  16.276 -1.1336 -0.5905  0.0352
 3943TIP3   OH233319   0.194   1.870   4.440  0.0744 -0.0784  0.1502
 3943TIP3    H133320   0.288   1.850   4.441  0.7883  2.5871 -1.2073
 3943TIP3    H233321   0.153   1.792   4.403  1.8665 -1.0151  0.0195
 3944TIP3   OH233322   0.005   0.254   4.194 -0.2120 -0.2233 -0.1894
 3944TIP3    H133323   0.062   0.310   4.141  2.6766 -3.0524 -0.3710
 3944TIP3    H233324   0.025   0.279   4.284  1.7225 -1.4194 -0.2369
 3945TIP3   OH233325   3.250   4.727  12.633  0.9229 -0.3137 -0.2115
 3945TIP3    H133326   3.282   4.716  12.544  1.8018 -1.0870  0.1811
 3945TIP3    H233327   3.304   4.668  12.686 -0.5469 -0.9731  0.6236
 3946TIP3   OH233328   3.035   6.070  14.964 -0.2860  0.1446 -0.0500
 3946TIP3    H133329   3.000   6.159  14.955  0.3202  0.4542  0.5084
 3946TIP3    H233330   3.002   6.041  15.049 -1.6420 -0.7226 -0.8310
 3947TIP3   OH233331   0.878   0.880   0.989 -0.0912 -0.2356 -0.9140
 3947TIP3    H133332   0.825   0.800   0.991  0.4153 -0.5856 -1.2620
 3947TIP3    H233333   0.927   0.877   1.071  0.3679 -0.5895 -1.1979
 3948TIP3   OH233334   0.676   5.446  12.605 -0.4644 -0.1028  0.1261
 3948TIP3    H133335   0.589   5.428  12.640 -0.4776 -0.5752 -0.1305
 3948TIP3    H233336   0.692   5.374  12.543  0.7863 -0.9764  1.4091
 3949TIP3   OH233337   4.421   4.942   4.964  0.0496  0.1173  0.6001
 3949TIP3    H133338   4.420   4.848   4.980 -0.2506 -0.1111 -0.6762
 3949TIP3    H233339   4.403   4.981   5.050  0.3416 -0.9726  1.1743
 3950TIP3   OH233340   2.746   1.151   0.873 -0.0400  0.0669 -0.1685
 3950TIP3    H133341   2.756   1.215   0.802  2.0430 -0.2048 -0.1779
 3950TIP3    H233342   2.763   1.066   0.831  0.6444 -0.1466  0.5324
 3951TIP3   OH233343   4.807   6.678   4.071 -0.8268 -0.1714 -1.2265
 3951TIP3    H133344   4.784   6.763   4.035  0.8130  1.4551  1.2290
 3951TIP3    H233345   4.882   6.695   4.128 -0.0569 -3.3848 -1.0608
 3952TIP3   OH233346   1.404   4.391   1.669 -0.1645  0.5224 -0.0887
 3952TIP3    H133347   1.474   4.336   1.632 -0.3362 -0.0370  0.4115
 3952TIP3    H233348   1.329   4.376   1.612 -0.0378  0.7108 -0.3091
 3953TIP3   OH233349   2.361   5.763   1.886  0.4921 -0.7279  0.0966
 3953TIP3    H133350   2.265   5.767   1.892  0.4206 -0.1394 -1.2310
 3953TIP3    H233351   2.390   5.760   1.977 -0.7130  1.1213  0.5890
 3954TIP3   OH233352   1.402   0.473  13.930  0.9840  0.5377 -0.2399
 3954TIP3    H133353   1.356   0.421  13.996  1.9389 -0.3774 -0.2646
 3954TIP3    H233354   1.338   0.537  13.901 -0.4002 -0.9082 -0.5199
 3955TIP3   OH233355   4.177   0.585  11.057 -0.5585 -0.1059 -0.3681
 3955TIP3    H133356   4.179   0.616  11.147  0.4863 -1.2496  0.0214
 3955TIP3    H233357   4.234   0.646  11.009  0.0410 -0.3471  0.0309
 3956TIP3   OH233358   0.844   2.578   5.215  0.2741 -0.1047  0.5842
 3956TIP3    H133359   0.810   2.667   5.216  0.5940  0.0332 -0.3998
 3956TIP3    H233360   0.912   2.578   5.283  1.5653  0.9314 -0.6476
 3957TIP3   OH233361   4.798   0.925  10.990  0.4191  0.0113  0.1007
 3957TIP3    H133362   4.851   0.861  10.944 -2.4959 -3.4524  1.0602
 3957TIP3    H233363   4.721   0.876  11.020 -1.4784  3.7138  2.1160
 3958TIP3   OH233364   5.666   0.139   2.096 -0.1251 -0.2602 -0.2686
 3958TIP3    H133365   5.694   0.187   2.018 -3.5651  2.6370  0.0316
 3958TIP3    H233366   5.684   0.198   2.169  1.0533 -2.0377  0.9717
 3959TIP3   OH233367   2.265   3.660   3.390  0.2275 -0.1253  0.2607
 3959TIP3    H133368   2.185   3.711   3.399  1.1255  1.4398 -0.2291
 3959TIP3    H233369   2.243   3.591   3.326 -0.9336 -0.2125  0.7367
 3960TIP3   OH233370   2.763   2.908   3.820 -0.1457 -0.4781 -0.2355
 3960TIP3    H133371   2.792   2.996   3.795  1.5244 -0.8677  0.2150
 3960TIP3    H233372   2.750   2.862   3.738  1.6460 -0.6088 -0.4938
 3961TIP3   OH233373   1.630   4.070   9.818  0.6638  0.0526 -0.4229
 3961TIP3    H133374   1.566   4.132   9.853 -0.7982 -0.8994 -1.3048
 3961TIP3    H233375   1.596   4.046   9.732  1.3422 -1.7105 -0.2472
 3962TIP3   OH233376   0.224   5.409  10.722 -0.5020  0.3609  0.2826
 3962TIP3    H133377   0.260   5.493  10.691 -0.7696  0.0017 -1.0603
 3962TIP3    H233378   0.214   5.357  10.643 -1.7605 -0.4096  0.9222
 3963TIP3   OH233379   2.502   3.012  12.236 -0.3308  0.4468  0.2794
 3963TIP3    H133380   2.496   2.947  12.307 -0.4988  0.1108 -0.0395
 3963TIP3    H233381   2.429   2.991  12.178  0.6534 -0.2404 -0.7766
 3964TIP3   OH233382   3.291   4.412  12.067 -0.1936 -0.8927  0.0112
 3964TIP3    H133383   3.303   4.507  12.054 -3.1698 -0.2423  1.1874
 3964TIP3    H233384   3.352   4.372  12.006 -1.4339  1.8181 -3.3249
 3965TIP3   OH233385   4.220   3.767   4.582 -0.0299 -0.0100  0.0605
 3965TIP3    H133386   4.255   3.783   4.670 -0.9218 -0.7448  0.5595
 3965TIP3    H233387   4.224   3.672   4.571 -2.0361 -0.1566  0.2308
 3966TIP3   OH233388   5.533   6.317  12.143 -0.3125  0.1673 -0.2614
 3966TIP3    H133389   5.480   6.367  12.206 -2.7490 -3.0617  0.4952
 3966TIP3    H233390   5.619   6.310  12.185 -1.5035 -0.8447  2.2200
 3967TIP3   OH233391   6.834   0.556  14.089  0.5696  0.3223 -0.4052
 3967TIP3    H133392   6.895   0.599  14.148  1.8455 -3.4304  1.3312
 3967TIP3    H233393   6.782   0.498  14.146 -2.6051  1.1371 -2.2295
 3968TIP3   OH233394   5.604   5.788  11.304  0.4646  0.6389  0.1464
 3968TIP3    H133395   5.519   5.832  11.303  0.0075 -0.2163 -0.7202
 3968TIP3    H233396   5.630   5.785  11.212  0.9448 -0.0158  0.2995
 3969TIP3   OH233397   2.106   3.753  14.637 -0.4390 -0.0319 -0.2747
 3969TIP3    H133398   2.085   3.846  14.624  0.0647 -0.0144 -1.0950
 3969TIP3    H233399   2.202   3.752  14.640 -0.3923 -0.6378 -1.3721
 3970TIP3   OH233400   0.800   5.937  16.504  0.2055 -0.4895 -0.0024
 3970TIP3    H133401   0.848   6.002  16.555  0.1816  0.1777 -0.8131
 3970TIP3    H233402   0.850   5.856  16.515 -0.3972 -0.6354  1.9576
 3971TIP3   OH233403   0.406   5.004  16.012 -0.6782  0.3509  0.3943
 3971TIP3    H133404   0.436   5.075  16.069  0.3563  0.7729 -0.6284
 3971TIP3    H233405   0.344   5.045  15.952  0.0372  0.4433 -0.2983
 3972TIP3   OH233406   5.433   3.727   5.062  0.2365  0.3522 -0.0742
 3972TIP3    H133407   5.445   3.713   4.968 -0.3836 -1.3459  0.0629
 3972TIP3    H233408   5.371   3.799   5.068 -3.0384 -2.1363 -1.1411
 3973TIP3   OH233409   3.674   1.970  16.486  0.2533 -0.4238 -0.3185
 3973TIP3    H133410   3.629   1.886  16.489 -1.5627  0.4924 -0.3091
 3973TIP3    H233411   3.734   1.962  16.412 -1.1095 -1.1780 -1.3934
 3974TIP3   OH233412   0.134   2.812   4.719  0.0748  0.8951  0.5091
 3974TIP3    H133413   0.083   2.862   4.783 -0.4936  0.8024  0.1402
 3974TIP3    H233414   0.089   2.828   4.636 -0.9247 -1.2388  0.5568
 3975TIP3   OH233415   6.518   5.480  13.726  0.7045  0.3339 -0.4135
 3975TIP3    H133416   6.601   5.445  13.759  1.0105  1.2818 -0.1598
 3975TIP3    H233417   6.452   5.437  13.780  1.0742  0.1408 -0.1024
 3976TIP3   OH233418   0.485   0.923   1.017 -0.2059 -0.2446 -0.3283
 3976TIP3    H133419   0.424   0.917   1.090  1.6123  0.1945  1.3338
 3976TIP3    H233420   0.543   0.848   1.029 -0.1498 -0.4215 -1.6125
 3977TIP3   OH233421   1.726   3.333  15.394 -0.8632 -0.5516 -0.1752
 3977TIP3    H133422   1.816   3.364  15.402 -1.3805  1.3573 -1.2242
 3977TIP3    H233423   1.732   3.261  15.331  0.3353 -2.6960  2.1908
 3978TIP3   OH233424   2.873   6.722   3.890  0.1150  0.1118  0.0178
 3978TIP3    H133425   2.878   6.778   3.968  0.8951  0.0257  0.0330
 3978TIP3    H233426   2.946   6.661   3.899 -1.4898 -1.8224  0.6785
 3979TIP3   OH233427   6.671   5.338  11.118  0.3515 -0.5852 -0.0456
 3979TIP3    H133428   6.599   5.396  11.142  0.5126 -0.9248  1.3063
 3979TIP3    H233429   6.696   5.367  11.030 -0.9911 -0.0351 -0.2775
 3980TIP3   OH233430   3.668   4.947   4.957  0.1633 -0.2807  0.4687
 3980TIP3    H133431   3.633   4.919   5.042  2.4852 -1.1321  1.2044
 3980TIP3    H233432   3.600   5.004   4.922 -2.1632 -2.1607  1.5817
 3981TIP3   OH233433   6.221   0.884   1.674 -0.1673 -0.1915 -0.3925
 3981TIP3    H133434   6.191   0.843   1.593  1.0374  1.8475 -1.9789
 3981TIP3    H233435   6.298   0.934   1.648 -2.2425  4.2428  0.9511
 3982TIP3   OH233436   3.463   2.848  13.035 -0.5831 -1.1016 -0.5170
 3982TIP3    H133437   3.427   2.761  13.053  1.1181 -1.8208 -0.3638
 3982TIP3    H233438   3.529   2.860  13.103 -2.4583  1.4182  1.0517
 3983TIP3   OH233439   6.649   2.336   4.049 -0.6396 -0.1643 -0.8651
 3983TIP3    H133440   6.612   2.326   3.961 -0.5093  1.3040 -1.1006
 3983TIP3    H233441   6.638   2.429   4.069 -0.2511 -0.4006  0.4902
 3984TIP3   OH233442   0.356   6.424   4.762  0.0385  0.3880 -0.3025
 3984TIP3    H133443   0.357   6.410   4.668  1.2397 -3.0820  0.0575
 3984TIP3    H233444   0.272   6.389   4.792  1.3183 -2.5597  0.2036
 3985TIP3   OH233445   1.672   3.214   4.654  0.0898  0.0462  0.0004
 3985TIP3    H133446   1.706   3.126   4.671  0.8917  0.1744 -0.8561
 3985TIP3    H233447   1.623   3.236   4.733  3.1882  0.4218  1.9897
 3986TIP3   OH233448   4.087   2.995  10.574  0.0648  0.1131  0.4659
 3986TIP3    H133449   4.152   3.057  10.607 -0.6826  0.0246  2.2179
 3986TIP3    H233450   4.006   3.020  10.617 -0.7139 -0.7988 -0.4198
 3987TIP3   OH233451   3.458   0.331  16.514  0.0242  0.1909  0.7469
 3987TIP3    H133452   3.489   0.297  16.597  2.2122 -2.8894 -1.1174
 3987TIP3    H233453   3.427   0.254  16.466 -0.0949  1.6483 -1.7085
 3988TIP3   OH233454   4.951   4.246   5.406  0.3278 -0.4065  0.1462
 3988TIP3    H133455   5.023   4.187   5.426  2.1669  0.9330 -1.9197
 3988TIP3    H233456   4.879   4.189   5.381  0.9358 -1.7869  1.4089
 3989TIP3   OH233457   4.140   4.208   1.833  0.0265  0.6490 -0.0686
 3989TIP3    H133458   4.056   4.164   1.830  0.2966 -0.0183  1.1923
 3989TIP3    H233459   4.124   4.287   1.885  0.2874  0.2207  0.6807
 3990TIP3   OH233460   3.570   1.379  16.503  0.2557 -0.1204 -0.3440
 3990TIP3    H133461   3.644   1.332  16.466  0.4824  0.3675 -0.5139
 3990TIP3    H233462   3.514   1.397  16.428  1.2056  1.7706 -0.6351
 3991TIP3   OH233463   2.517   4.938  11.260 -0.1597 -0.1839 -0.0446
 3991TIP3    H133464   2.444   4.940  11.321  0.6569 -0.1926  0.9705
 3991TIP3    H233465   2.490   4.877  11.192 -0.5556 -1.2649  1.0431
 3992TIP3   OH233466   0.607   4.710   0.518 -0.1574 -0.2452 -0.4141
 3992TIP3    H133467   0.684   4.657   0.537 -0.1204 -0.3533 -0.8562
 3992TIP3    H233468   0.616   4.734   0.426 -1.1677 -1.1529 -0.7811
 3993TIP3   OH233469   3.974   0.587  12.713  0.0497 -0.2616  0.1437
 3993TIP3    H133470   4.025   0.636  12.648 -0.0553 -0.5269 -0.1432
 3993TIP3    H233471   3.943   0.654  12.774  1.1461 -0.1554  0.6054
 3994TIP3   OH233472   2.034   1.002  11.576 -0.3650  0.3503  0.9837
 3994TIP3    H133473   2.068   1.091  11.585  0.4070  0.1698  0.0022
 3994TIP3    H233474   1.942   1.009  11.600 -0.6252  1.6694 -0.2524
 3995TIP3   OH233475   4.917   2.686  14.620 -0.5170 -0.1140  0.6672
 3995TIP3    H133476   4.851   2.648  14.563  0.4561  0.2448 -0.7374
 3995TIP3    H233477   4.968   2.610  14.650 -0.1972 -0.1872 -0.0406
 3996TIP3   OH233478   6.241   2.830  12.825 -0.3790 -0.0648  0.2774
 3996TIP3    H133479   6.303   2.758  12.816 -0.7666 -0.2443 -1.3130
 3996TIP3    H233480   6.155   2.788  12.830 -0.5861  0.2647 -0.3899
 3997TIP3   OH233481   0.969   0.372  10.049 -0.0486  0.2610  0.1309
 3997TIP3    H133482   0.916   0.296  10.074  0.1057 -0.7122 -2.2246
 3997TIP3    H233483   1.056   0.353  10.084 -0.2210 -0.2621  0.2850
 3998TIP3   OH233484   0.515   0.862  10.521  0.5271 -0.3821  0.3248
 3998TIP3    H133485   0.540   0.841  10.431  0.4798 -0.4770  0.3341
 3998TIP3    H233486   0.468   0.945  10.514  0.2749 -0.5312  0.2262
 3999TIP3   OH233487   1.197   0.530   5.485  0.2273  0.2969  0.2617
 3999TIP3    H133488   1.131   0.511   5.419  2.6826  0.7103 -2.5062
 3999TIP3    H233489   1.265   0.464   5.472  2.5516  2.6366 -0.3379
 4000TIP3   OH233490   0.793   3.518   4.902  0.0327 -0.1407 -0.0163
 4000TIP3    H133491   0.864   3.540   4.961  0.3527  2.0000 -1.0859
 4000TIP3    H233492   0.731   3.469   4.956  0.9074  0.5764  1.7228
 4001TIP3   OH233493   0.102   3.751   2.058 -0.3888  0.0534  0.3052
 4001TIP3    H133494   0.050   3.680   2.095 -1.6921  0.6291 -0.3792
 4001TIP3    H233495   0.078   3.828   2.109 -1.6711  0.7099 -1.2045
 4002TIP3   OH233496   4.032   5.974   3.071 -0.3765 -0.1162 -0.0288
 4002TIP3    H133497   4.089   6.046   3.098 -0.8072  0.1231  0.2762
 4002TIP3    H233498   4.011   5.993   2.980 -0.7813  0.3517  0.1555
 4003TIP3   OH233499   5.825   1.314  12.391  0.6045 -0.3106 -0.0058
 4003TIP3    H133500   5.909   1.287  12.353  1.4641  2.3726 -0.2386
 4003TIP3    H233501   5.771   1.338  12.315  0.9785  1.4350  0.2326
 4004TIP3   OH233502   0.126   3.625  16.341 -0.1231 -0.0459  0.3400
 4004TIP3    H133503   0.203   3.615  16.398 -1.3978 -1.4382  1.9126
 4004TIP3    H233504   0.140   3.710  16.298  1.2127  0.8126  2.2721
 4005TIP3   OH233505   1.261   6.430  16.510  0.0161  0.5594  0.5836
 4005TIP3    H133506   1.224   6.496  16.569 -0.6809  1.6815 -1.0119
 4005TIP3    H233507   1.348   6.463  16.487  0.0344  0.4567  0.5004
 4006TIP3   OH233508   6.566   0.221   1.990 -0.0237 -0.2356 -0.3820
 4006TIP3    H133509   6.546   0.284   2.060  0.9992 -1.1288  0.7558
 4006TIP3    H233510   6.614   0.273   1.925  0.9092  0.1519  0.5923
 4007TIP3   OH233511   0.124   5.539  12.911  0.0086  0.1167  0.1211
 4007TIP3    H133512   0.213   5.517  12.885  0.6567  0.4915  1.8948
 4007TIP3    H233513   0.114   5.501  12.998 -1.0249  1.4176  0.6013
 4008TIP3   OH233514   3.347   5.030  12.925  0.0711 -0.4140 -0.7053
 4008TIP3    H133515   3.273   5.071  12.881  0.3282 -0.2587 -1.0025
 4008TIP3    H233516   3.313   4.948  12.958 -0.1171 -0.5589 -1.2478
 4009TIP3   OH233517   0.130   1.569   1.888  0.0856 -0.3783 -0.0368
 4009TIP3    H133518   0.144   1.654   1.930 -0.2942  0.4300 -1.4848
 4009TIP3    H233519   0.218   1.542   1.859  0.3512 -0.9451  1.2336
 4010TIP3   OH233520   6.037   0.840   6.153  0.2323  0.6335 -0.0991
 4010TIP3    H133521   6.016   0.760   6.202  0.4144  0.5153 -0.2140
 4010TIP3    H233522   6.070   0.901   6.219  0.7353  0.3821 -0.1149
 4011TIP3   OH233523   0.244   5.570   3.734  0.4189 -0.4606 -0.4011
 4011TIP3    H133524   0.324   5.588   3.683 -0.1676 -1.7883 -1.8711
 4011TIP3    H233525   0.191   5.515   3.676 -2.0867  1.3005  0.0815
 4012TIP3   OH233526   5.370   3.567  11.034 -0.5940 -0.1232  0.2975
 4012TIP3    H133527   5.366   3.473  11.053 -1.9700 -0.1124  0.1204
 4012TIP3    H233528   5.369   3.572  10.938  1.3360  0.0298  0.2336
 4013TIP3   OH233529   0.203   0.135  15.686  0.2660  0.4964 -0.0967
 4013TIP3    H133530   0.185   0.048  15.721 -0.7773  0.6093 -0.3341
 4013TIP3    H233531   0.275   0.122  15.624 -1.2786 -0.5900 -1.7416
 4014TIP3   OH233532   2.166   6.300  13.689 -0.5546  0.4382 -0.0437
 4014TIP3    H133533   2.233   6.346  13.638  1.4514 -1.3041  0.8765
 4014TIP3    H233534   2.184   6.324  13.780 -0.8563 -0.4248  0.2522
 4015TIP3   OH233535   0.851   5.639   4.933 -0.0791 -0.4097 -0.1899
 4015TIP3    H133536   0.936   5.638   4.977 -0.4775  0.0980  0.6456
 4015TIP3    H233537   0.843   5.553   4.892  0.9562 -0.3540 -0.5236
 4016TIP3   OH233538   1.910   5.797   3.474  0.0428  0.0868  0.0618
 4016TIP3    H133539   1.933   5.792   3.381  1.7224  1.6202  0.3333
 4016TIP3    H233540   1.985   5.758   3.520 -0.1955  0.4773  0.8038
 4017TIP3   OH233541   2.169   6.872   2.959 -0.1293  0.2197 -0.1100
 4017TIP3    H133542   2.231   6.841   3.025 -0.9712  0.4935  0.8429
 4017TIP3    H233543   2.151   6.795   2.905 -0.4363 -0.3821  0.8125
 4018TIP3   OH233544   5.613   3.910  13.260 -0.0269 -0.4542  0.1974
 4018TIP3    H133545   5.705   3.891  13.241 -0.0820  0.5634 -1.2499
 4018TIP3    H233546   5.564   3.843  13.212 -0.0560 -1.5514  1.6933
 4019TIP3   OH233547   6.154   3.661   5.289 -0.1665 -0.2624  0.2799
 4019TIP3    H133548   6.085   3.600   5.265  0.5680  0.1048 -3.3583
 4019TIP3    H233549   6.220   3.607   5.334 -1.0768 -1.3847  0.3078
 4020TIP3   OH233550   6.281   0.021   5.590  0.2224 -0.3458  0.3207
 4020TIP3    H133551   6.361  -0.028   5.573  0.9327  1.7019 -3.0913
 4020TIP3    H233552   6.303   0.079   5.662  0.8163 -1.7336  1.3160
 4021TIP3   OH233553   0.921   2.908  13.248  0.3423 -0.1520 -0.5551
 4021TIP3    H133554   0.869   2.982  13.280 -0.9874 -0.7397 -1.2678
 4021TIP3    H233555   1.008   2.944  13.233  0.1793  0.8614  0.7176
 4022TIP3   OH233556   4.120   6.351   2.697  0.2962 -0.3979 -0.2562
 4022TIP3    H133557   4.044   6.343   2.638  1.2213  0.7495 -1.6913
 4022TIP3    H233558   4.196   6.353   2.638  1.2385  1.2949  0.9328
 4023TIP3   OH233559   6.503   5.909  12.599 -0.0103  0.1716  0.0302
 4023TIP3    H133560   6.597   5.892  12.602  0.0272  0.3981  0.1724
 4023TIP3    H233561   6.474   5.898  12.689 -0.0871  0.2778  0.0190
 4024TIP3   OH233562   4.490   0.338  14.499 -0.3377 -0.7053  0.2484
 4024TIP3    H133563   4.502   0.419  14.549  0.8820 -1.2527  0.8768
 4024TIP3    H233564   4.523   0.358  14.412 -0.1312 -0.5051  0.3740
 4025TIP3   OH233565   6.519   5.861  13.823 -0.2487  0.2970  0.4004
 4025TIP3    H133566   6.589   5.926  13.830  0.0648  0.0587 -0.3937
 4025TIP3    H233567   6.486   5.871  13.734  1.5795 -2.3475 -0.7181
 4026TIP3   OH233568   5.406   0.814   0.936 -0.3563  0.0115 -0.1075
 4026TIP3    H133569   5.477   0.808   0.871 -0.1871 -1.6200  0.1991
 4026TIP3    H233570   5.450   0.840   1.017 -0.2924  0.2252 -0.2108
 4027TIP3   OH233571   4.358   6.540  15.221 -0.1014  0.0912  0.0101
 4027TIP3    H133572   4.367   6.575  15.133  1.7933 -0.1647  0.0667
 4027TIP3    H233573   4.362   6.445  15.210  0.2023  0.0588  0.3806
 4028TIP3   OH233574   0.606   2.633   4.929 -0.0993 -0.2555  0.2650
 4028TIP3    H133575   0.605   2.605   5.021  0.0005 -0.7386  0.1233
 4028TIP3    H233576   0.530   2.690   4.920 -1.5314 -2.0897  0.0794
 4029TIP3   OH233577   3.730   1.722  15.832 -0.1003 -0.2446  0.4652
 4029TIP3    H133578   3.748   1.735  15.925  0.0210 -0.5612  0.4901
 4029TIP3    H233579   3.634   1.720  15.827 -0.1092 -0.7710  0.6719
 4030TIP3   OH233580   6.478   4.140  13.270  0.4503 -0.1393  0.1965
 4030TIP3    H133581   6.551   4.184  13.226  0.2461  1.0337  0.9845
 4030TIP3    H233582   6.420   4.211  13.297 -0.8756 -1.0317 -0.1966
 4031TIP3   OH233583   6.162   2.068   1.975 -0.7805 -0.7229 -0.1217
 4031TIP3    H133584   6.157   1.981   1.935  1.7161 -0.5719 -0.9460
 4031TIP3    H233585   6.244   2.067   2.024 -1.3187  0.7878  0.8816
 4032TIP3   OH233586   2.199   1.390   6.034 -0.5037 -0.0665  0.3522
 4032TIP3    H133587   2.217   1.398   6.128  0.7782  0.9205  0.0611
 4032TIP3    H233588   2.279   1.352   5.998 -1.7455 -2.4064 -0.1049
 4033TIP3   OH233589   3.472   6.644  12.835  0.0790  0.3409 -0.5425
 4033TIP3    H133590   3.545   6.627  12.775 -0.4069 -1.3171 -0.6989
 4033TIP3    H233591   3.514   6.667  12.918  0.7711  0.3833 -0.8972
 4034TIP3   OH233592   3.608   6.817  10.864  0.1882 -0.3306 -0.1919
 4034TIP3    H133593   3.598   6.722  10.878 -1.7941  0.0787  1.7832
 4034TIP3    H233594   3.528   6.842  10.818 -0.2428  0.6177  1.0062
 4035TIP3   OH233595   2.443   1.792   2.026  0.0350  0.6203  0.0987
 4035TIP3    H133596   2.512   1.732   2.054 -1.2100 -0.5973  0.6564
 4035TIP3    H233597   2.489   1.875   2.010  1.8811 -0.5561 -1.1407
 4036TIP3   OH233598   2.018   0.895  14.675  0.1622 -0.3141 -0.0799
 4036TIP3    H133599   1.988   0.822  14.620  1.1709 -0.0647 -0.9875
 4036TIP3    H233600   2.054   0.853  14.753 -1.1228 -0.6795  0.3513
 4037TIP3   OH233601   2.367   4.746   0.996  0.3125 -0.4836  0.1240
 4037TIP3    H133602   2.285   4.776   1.035  0.3163  0.3838 -0.5236
 4037TIP3    H233603   2.356   4.651   0.989 -0.7372 -0.3570 -0.1758
 4038TIP3   OH233604   4.724   3.372   5.705 -0.2272  0.0411 -0.5905
 4038TIP3    H133605   4.706   3.463   5.682  2.5487  1.3315  1.6684
 4038TIP3    H233606   4.776   3.338   5.632  0.4648  0.9645 -0.5427
 4039TIP3   OH233607   6.384   5.664  14.337 -0.3795  0.3558  0.0993
 4039TIP3    H133608   6.304   5.619  14.364  0.7554 -0.6310  2.1104
 4039TIP3    H233609   6.452   5.597  14.343  1.0745  1.8584  1.4151
 4040TIP3   OH233610   2.524   2.719  14.473 -0.0022  0.5216  0.2873
 4040TIP3    H133611   2.523   2.775  14.396 -1.5896  0.6833  0.4029
 4040TIP3    H233612   2.611   2.733  14.512  0.0071  2.1107 -0.2458
 4041TIP3   OH233613   0.213   3.533   0.562  0.6926  0.4998  0.2502
 4041TIP3    H133614   0.131   3.565   0.600  0.3934 -0.6524  0.6066
 4041TIP3    H233615   0.209   3.559   0.470 -0.9284 -1.1035 -0.1785
 4042TIP3   OH233616   5.786   2.280   1.374  0.5820  0.2148  0.1502
 4042TIP3    H133617   5.810   2.195   1.410 -1.1955 -0.0199  0.8383
 4042TIP3    H233618   5.720   2.260   1.307  1.6824  0.8983 -1.1885
 4043TIP3   OH233619   5.583   2.896  15.434 -0.1525 -0.0184 -0.3647
 4043TIP3    H133620   5.608   2.987  15.419 -2.7002  0.8572  0.1301
 4043TIP3    H233621   5.632   2.870  15.512 -1.5563  2.0064  1.3332
 4044TIP3   OH233622   3.307   1.406   0.395  0.0142  0.3521  0.8634
 4044TIP3    H133623   3.361   1.425   0.471 -1.3408 -1.6994  2.4534
 4044TIP3    H233624   3.222   1.381   0.431 -0.7516 -0.5175 -1.3304
 4045TIP3   OH233625   2.875   6.373   0.951  0.0858  0.1236 -0.2070
 4045TIP3    H133626   2.837   6.425   1.022  0.4445 -1.9859  1.6666
 4045TIP3    H233627   2.969   6.387   0.957  0.1206 -0.0839 -0.2345
 4046TIP3   OH233628   1.967   0.395  13.762  0.7767  0.5875 -0.7239
 4046TIP3    H133629   1.895   0.333  13.772  1.3834 -0.1207 -0.7306
 4046TIP3    H233630   1.958   0.426  13.672  2.2431 -1.7757 -1.7758
 4047TIP3   OH233631   5.888   1.888   5.332 -0.1766 -0.0052  0.4115
 4047TIP3    H133632   5.816   1.833   5.302 -1.0036  1.3691 -0.2045
 4047TIP3    H233633   5.904   1.949   5.260  0.9732  0.3353  0.9223
 4048TIP3   OH233634   5.165   0.372   0.966 -0.1404  0.1315 -0.2615
 4048TIP3    H133635   5.253   0.346   0.939  0.6263  2.1001  0.1225
 4048TIP3    H233636   5.130   0.421   0.892 -0.4209  0.4067  0.0481
 4049TIP3   OH233637   5.669   6.607  13.007 -0.5521 -0.3769  0.1083
 4049TIP3    H133638   5.704   6.609  13.096  0.7901  0.4569 -0.4159
 4049TIP3    H233639   5.603   6.677  13.006  2.5934  2.8250 -0.7342
 4050TIP3   OH233640   2.448   0.813  11.411  0.0775 -0.0322 -0.1666
 4050TIP3    H133641   2.521   0.864  11.375 -1.1976  0.9456 -1.5186
 4050TIP3    H233642   2.489   0.746  11.464  1.9046  1.5898  0.6010
 4051TIP3   OH233643   1.515   2.605   2.714  0.1502 -0.4382  0.0380
 4051TIP3    H133644   1.522   2.518   2.677 -1.5587 -0.2337 -0.8899
 4051TIP3    H233645   1.549   2.663   2.647  0.6948 -0.3459  0.3933
 4052TIP3   OH233646   4.401   5.554  16.185 -0.0423 -0.2897 -0.3990
 4052TIP3    H133647   4.391   5.649  16.178 -0.6025 -0.0279  2.5602
 4052TIP3    H233648   4.494   5.540  16.199  0.3182 -0.3956 -2.6147
 4053TIP3   OH233649   0.819   4.230   0.815 -0.1088  0.7879 -0.4550
 4053TIP3    H133650   0.776   4.171   0.754 -1.8291  2.3474 -0.8635
 4053TIP3    H233651   0.912   4.223   0.795 -0.2911 -1.4797 -0.6970
 4054TIP3   OH233652   4.495   0.875  16.468 -0.0989  0.3720  0.0766
 4054TIP3    H133653   4.590   0.885  16.467 -0.1728  1.2719 -1.3857
 4054TIP3    H233654   4.474   0.826  16.388 -0.8339 -0.2510  0.6297
 4055TIP3   OH233655   2.619   6.629  14.127 -0.2861  1.2874 -0.4149
 4055TIP3    H133656   2.697   6.683  14.116  0.6492  0.3810  1.3385
 4055TIP3    H233657   2.639   6.573  14.202 -1.7474 -0.5329 -1.3014
 4056TIP3   OH233658   1.985   6.541  10.880 -0.1279 -0.0176  0.0965
 4056TIP3    H133659   2.057   6.489  10.917  1.2162  2.1346  0.7234
 4056TIP3    H233660   1.907   6.506  10.922  0.9587 -0.1008  2.2035
 4057TIP3   OH233661   4.746   4.130  11.577 -0.4641 -0.0827  0.2740
 4057TIP3    H133662   4.833   4.092  11.587  0.8685  2.9553  1.3731
 4057TIP3    H233663   4.714   4.140  11.667 -1.2288  0.3727 -0.0448
 4058TIP3   OH233664   2.999   4.540   2.849  0.0593  0.2244  0.4818
 4058TIP3    H133665   3.025   4.616   2.796 -0.3208  0.9394  1.2859
 4058TIP3    H233666   2.934   4.495   2.795 -0.3184  0.9348  0.3272
 4059TIP3   OH233667   1.057   4.178   2.778  0.0800 -0.0670 -0.2787
 4059TIP3    H133668   1.055   4.097   2.829  0.2105  0.0657 -0.0624
 4059TIP3    H233669   1.095   4.152   2.694 -3.0134 -0.9862 -1.5470
 4060TIP3   OH233670   2.924   4.654  12.395 -0.5781 -0.5044 -0.8851
 4060TIP3    H133671   2.980   4.711  12.343  1.7848 -2.7194 -0.9630
 4060TIP3    H233672   2.969   4.569  12.395 -1.3577 -1.1268  3.2240
 4061TIP3   OH233673   5.553   2.178   2.210 -0.3431 -0.1565  0.0475
 4061TIP3    H133674   5.540   2.181   2.115 -0.9979 -2.2182  0.0293
 4061TIP3    H233675   5.557   2.270   2.236  3.4367  0.6087 -2.4163
 4062TIP3   OH233676   6.361   1.326  13.418 -0.6613  0.3916 -0.2118
 4062TIP3    H133677   6.297   1.381  13.463  0.3893  0.4988  1.2438
 4062TIP3    H233678   6.397   1.381  13.349 -1.4071  0.6738 -0.3779
 4063TIP3   OH233679   0.656   1.215   0.193 -0.3570 -0.2656  0.3164
 4063TIP3    H133680   0.573   1.243   0.154 -2.3587 -2.0504  2.9385
 4063TIP3    H233681   0.691   1.150   0.132 -1.6748 -0.6017 -0.1007
 4064TIP3   OH233682   3.350   0.818  14.549 -0.0129 -0.1778 -0.6117
 4064TIP3    H133683   3.346   0.865  14.465  1.2521 -0.4577 -0.8458
 4064TIP3    H233684   3.404   0.874  14.605  0.5651 -0.8048 -0.5315
 4065TIP3   OH233685   0.337   4.946   0.829  0.2320  0.7786 -0.4691
 4065TIP3    H133686   0.369   5.036   0.824  0.8283  0.6453  0.7191
 4065TIP3    H233687   0.340   4.915   0.739 -0.0604  1.9672 -0.9083
 4066TIP3   OH233688   3.407   6.012   3.904 -0.3542  0.2372  0.2066
 4066TIP3    H133689   3.357   6.085   3.868 -0.9546 -1.1437 -1.9604
 4066TIP3    H233690   3.498   6.033   3.883 -0.6567 -0.3587 -1.9845
 4067TIP3   OH233691   6.567   3.370  16.849 -0.2503  0.4670 -0.1288
 4067TIP3    H133692   6.624   3.442  16.875 -0.1471  0.2110  0.3692
 4067TIP3    H233693   6.522   3.402  16.771 -0.3960  1.1566  0.2326
 4068TIP3   OH233694   6.050   6.129  12.633 -0.2180 -0.3360 -0.3454
 4068TIP3    H133695   6.107   6.068  12.588 -0.1177 -0.5798  0.1046
 4068TIP3    H233696   6.042   6.094  12.722 -3.4062 -1.9315 -1.1414
 4069TIP3   OH233697   5.105   4.267  16.059  0.4262  0.5669  0.1775
 4069TIP3    H133698   5.104   4.263  15.963  1.7079  2.2399  0.0433
 4069TIP3    H233699   5.086   4.359  16.079  1.3275  0.4932  1.4699
 4070TIP3   OH233700   4.573   4.199  10.576 -0.6355 -0.1151  0.0774
 4070TIP3    H133701   4.538   4.123  10.624  0.2595  0.2265  1.3355
 4070TIP3    H233702   4.548   4.184  10.485  1.2968 -3.0513 -0.1172
 4071TIP3   OH233703   2.483   2.288   0.520  0.2248 -0.5347  0.5563
 4071TIP3    H133704   2.485   2.382   0.501 -3.6851 -0.0625  1.5886
 4071TIP3    H233705   2.429   2.251   0.449  0.6750 -1.7906  0.8480
 4072TIP3   OH233706   0.809   6.578   4.598  0.7956  0.0512  0.1377
 4072TIP3    H133707   0.761   6.521   4.657  0.3768 -0.1153 -0.3488
 4072TIP3    H233708   0.766   6.566   4.513  0.8427  0.9108 -0.0228
 4073TIP3   OH233709   1.482   5.183   4.343 -0.0010 -0.1105 -0.3498
 4073TIP3    H133710   1.424   5.161   4.416  1.3746 -0.7914  0.5920
 4073TIP3    H233711   1.455   5.271   4.317 -1.2655 -0.3047  0.2276
 4074TIP3   OH233712   5.573   3.719  10.825 -0.7224  0.3825 -0.2058
 4074TIP3    H133713   5.501   3.661  10.802 -0.7608  0.5901 -0.6337
 4074TIP3    H233714   5.603   3.754  10.740  2.6316 -2.9012 -0.6183
 4075TIP3   OH233715   0.717   3.463  15.626  0.1530  0.3059  0.3726
 4075TIP3    H133716   0.771   3.420  15.691 -0.3613 -0.3135  0.3963
 4075TIP3    H233717   0.715   3.555  15.653  2.2112  0.6011 -0.3221
 4076TIP3   OH233718   1.948   4.950   1.868 -0.2261  0.6203  0.2642
 4076TIP3    H133719   1.900   4.875   1.902  0.8758 -0.0287  0.4044
 4076TIP3    H233720   1.905   5.026   1.909  0.1416 -0.0552  1.9871
 4077TIP3   OH233721   4.157   0.671   2.592 -0.0528 -0.1768 -0.2353
 4077TIP3    H133722   4.099   0.605   2.555 -0.1647  0.9404 -2.2414
 4077TIP3    H233723   4.206   0.626   2.661 -2.6264 -1.3822  0.9138
 4078TIP3   OH233724   3.563   2.793   5.596 -0.2023  0.4358 -0.6594
 4078TIP3    H133725   3.579   2.848   5.520  2.4613  0.8429  0.0919
 4078TIP3    H233726   3.638   2.734   5.600 -1.0291 -0.6113  0.8131
 4079TIP3   OH233727   3.078   3.147  16.026 -0.1775  0.0482 -0.3130
 4079TIP3    H133728   3.073   3.190  15.941  0.6967  0.8440  0.0158
 4079TIP3    H233729   3.057   3.216  16.089  1.1911  0.0074  0.2241
 4080TIP3   OH233730   1.759   3.502  13.351 -0.3557  0.4819  0.1205
 4080TIP3    H133731   1.792   3.507  13.261  0.4593  0.8248  0.4231
 4080TIP3    H233732   1.772   3.591  13.385  0.5767  0.0315  0.9862
 4081TIP3   OH233733   5.930   6.124  10.106  0.4078  0.2617 -0.0317
 4081TIP3    H133734   5.966   6.158  10.188 -1.4676  1.0419  0.5184
 4081TIP3    H233735   5.893   6.200  10.062 -0.9932 -0.5329 -0.3051
 4082TIP3   OH233736   1.007   0.289  12.212 -0.5948 -0.3855 -0.0956
 4082TIP3    H133737   1.065   0.216  12.236 -0.0134  0.2022  0.3184
 4082TIP3    H233738   0.974   0.322  12.295  0.3900  0.8242 -0.1556
 4083TIP3   OH233739   0.447   4.928   1.511 -0.0858  0.0466 -0.0609
 4083TIP3    H133740   0.395   4.935   1.431 -2.7424 -0.7282  1.4764
 4083TIP3    H233741   0.468   4.834   1.518 -2.2958 -0.4148  1.4695
 4084TIP3   OH233742   1.367   3.900  13.064  0.1367 -0.8383 -0.3052
 4084TIP3    H133743   1.285   3.949  13.061  0.5813  0.4440  3.3096
 4084TIP3    H233744   1.426   3.949  13.007 -0.2765  1.2068  0.9313
 4085TIP3   OH233745   2.938   0.505   4.167  0.2684 -0.9022 -0.4485
 4085TIP3    H133746   2.965   0.503   4.075 -1.9754 -1.2594 -1.1658
 4085TIP3    H233747   2.871   0.573   4.171  2.9733  1.9080  1.8308
 4086TIP3   OH233748   0.855   0.154   5.744  0.0592  0.1734 -0.1688
 4086TIP3    H133749   0.886   0.110   5.665 -0.0350  1.5713 -1.0187
 4086TIP3    H233750   0.925   0.140   5.808  0.0554 -1.1330 -0.4210
 4087TIP3   OH233751   5.679   0.808  13.069  0.0096  0.2818 -0.0932
 4087TIP3    H133752   5.638   0.872  13.010 -0.8462  0.1974  0.3835
 4087TIP3    H233753   5.670   0.848  13.156  2.2664  0.9348 -0.1093
 4088TIP3   OH233754   6.261   2.687   5.654 -0.0231  0.1501  0.3500
 4088TIP3    H133755   6.176   2.729   5.639 -1.0190 -1.3709  1.5022
 4088TIP3    H233756   6.296   2.731   5.732  0.0277  0.4020  0.1895
 4089TIP3   OH233757   2.624   2.043   5.184  0.4225 -0.5884 -0.4633
 4089TIP3    H133758   2.671   1.961   5.165  0.1014 -0.8092 -0.3098
 4089TIP3    H233759   2.589   2.030   5.272  0.7062 -0.1251 -0.2779
 4090TIP3   OH233760   0.658   6.509  14.175 -0.3858  0.0136  0.2249
 4090TIP3    H133761   0.614   6.578  14.124 -0.2945  0.6323  0.9675
 4090TIP3    H233762   0.751   6.525  14.160 -0.3799 -1.2298 -1.2607
 4091TIP3   OH233763   1.851   6.018   1.142  0.7812  0.0718 -0.1642
 4091TIP3    H133764   1.793   5.946   1.165  0.2471  0.4236 -0.3809
 4091TIP3    H233765   1.939   5.986   1.162  0.7577 -1.3799 -2.0982
 4092TIP3   OH233766   0.368   5.336  11.839 -0.2337  0.6633  0.0575
 4092TIP3    H133767   0.421   5.257  11.824 -0.6918  0.3542  0.0392
 4092TIP3    H233768   0.411   5.380  11.913 -1.6654 -1.1797  2.1432
 4093TIP3   OH233769   5.781   6.825   1.630 -0.0526  0.7114 -0.0939
 4093TIP3    H133770   5.744   6.783   1.552  1.3215  0.2965 -0.5529
 4093TIP3    H233771   5.792   6.753   1.693 -0.0446  0.8334  0.0461
 4094TIP3   OH233772   4.138   1.446  15.247 -0.1151 -0.2872  0.3923
 4094TIP3    H133773   4.153   1.435  15.153  0.5493 -0.9790  0.5695
 4094TIP3    H233774   4.069   1.384  15.268 -1.8910  1.4369 -0.0311
 4095TIP3   OH233775   0.875   1.850   4.969 -0.2440 -0.0957 -0.3684
 4095TIP3    H133776   0.849   1.924   5.023  0.7257 -2.1457  3.2253
 4095TIP3    H233777   0.818   1.778   4.995 -0.2945 -1.0444 -2.7705
 4096TIP3   OH233778   6.516   6.057  13.488  0.4634  0.2720 -0.4969
 4096TIP3    H133779   6.452   6.110  13.441 -0.5755  2.4845  2.9894
 4096TIP3    H233780   6.464   5.990  13.532  1.0546 -0.2401 -0.5648
 4097TIP3   OH233781   6.025   1.905   3.232 -0.7709  0.1466  0.2557
 4097TIP3    H133782   6.047   1.922   3.141  0.7941 -2.0130  0.1572
 4097TIP3    H233783   6.062   1.979   3.280  0.4166  0.1713 -0.6564
 4098TIP3   OH233784   1.751   0.259  14.887 -1.0629  0.1896 -0.1945
 4098TIP3    H133785   1.686   0.327  14.906 -0.5728  0.2246  1.5268
 4098TIP3    H233786   1.711   0.178  14.918  0.0062  0.3327  1.7109
 4099TIP3   OH233787   3.135   5.693   4.785  0.2327 -0.4283  0.0799
 4099TIP3    H133788   3.162   5.761   4.723  0.9268 -0.0350  0.7973
 4099TIP3    H233789   3.039   5.701   4.788  0.0818 -1.1929 -1.7547
 4100TIP3   OH233790   5.130   0.050   4.553 -0.3348 -0.4897 -0.7740
 4100TIP3    H133791   5.154   0.075   4.642 -1.4511 -0.9555 -0.3321
 4100TIP3    H233792   5.205   0.076   4.500  0.4575 -0.4650  0.3370
 4101TIP3   OH233793   4.561   2.316  14.504 -0.2349 -0.0455 -0.5334
 4101TIP3    H133794   4.495   2.365  14.552 -0.7198  0.5236 -1.7274
 4101TIP3    H233795   4.516   2.239  14.471  0.1036 -0.4555 -0.0539
 4102TIP3   OH233796   6.549   6.146   2.816  0.4975  1.2227  0.4397
 4102TIP3    H133797   6.572   6.140   2.909  1.3034  0.8540  0.2257
 4102TIP3    H233798   6.510   6.062   2.795  0.8141  1.1035  0.3188
 4103TIP3   OH233799   0.288   0.175   2.547  0.1977  0.0175 -0.1182
 4103TIP3    H133800   0.346   0.219   2.485 -0.3231 -1.6683 -1.9005
 4103TIP3    H233801   0.324   0.086   2.554 -0.2881 -0.0925  1.3272
 4104TIP3   OH233802   2.234   1.458   3.752 -0.3216  0.1994 -0.1345
 4104TIP3    H133803   2.240   1.434   3.845 -3.4245 -2.4759 -0.4508
 4104TIP3    H233804   2.274   1.385   3.706  1.5915  1.7075 -1.0092
 4105TIP3   OH233805   3.565   4.608   1.786  0.2094  0.3442  0.1968
 4105TIP3    H133806   3.604   4.600   1.699  0.0911 -1.2084  0.2590
 4105TIP3    H233807   3.637   4.638   1.841  0.4966  0.5283 -0.2661
 4106TIP3   OH233808   2.902   5.119   3.603  0.5931 -0.2940 -0.3291
 4106TIP3    H133809   2.946   5.050   3.553  0.0735 -1.1823  0.4065
 4106TIP3    H233810   2.813   5.085   3.616  0.6966 -0.0442  1.1186
 4107TIP3   OH233811   5.627   0.926  10.550 -0.7436 -0.5976 -0.0000
 4107TIP3    H133812   5.586   0.923  10.464 -1.8301  1.3501  0.4179
 4107TIP3    H233813   5.708   0.976  10.536 -0.8295 -0.4375  0.0781
 4108TIP3   OH233814   0.439   2.281  12.295 -0.6310  0.5310 -0.0177
 4108TIP3    H133815   0.434   2.357  12.353  0.5946  0.7242 -0.1329
 4108TIP3    H233816   0.420   2.315  12.208 -0.5712  0.6180  0.0029
 4109TIP3   OH233817   1.219   4.724  15.525 -0.2801 -0.3160  0.3366
 4109TIP3    H133818   1.186   4.709  15.436  2.2317 -0.2513 -0.6844
 4109TIP3    H233819   1.270   4.645  15.545  2.7007  1.3733 -0.0585
 4110TIP3   OH233820   1.256   1.724   2.364 -0.0036  0.0566  0.7213
 4110TIP3    H133821   1.230   1.783   2.435 -1.0932 -1.7549  1.9257
 4110TIP3    H233822   1.277   1.642   2.408 -0.6068 -1.1077 -1.0450
 4111TIP3   OH233823   0.237   1.111   0.267 -0.2112  0.0776  0.6061
 4111TIP3    H133824   0.258   1.064   0.348 -1.4976  0.8290  1.4118
 4111TIP3    H233825   0.209   1.198   0.296  0.9811  0.9928 -0.7765
 4112TIP3   OH233826   2.867   0.999  13.166  1.0163 -0.1622  0.2523
 4112TIP3    H133827   2.942   1.059  13.165  0.4455  0.6447  1.6953
 4112TIP3    H233828   2.791   1.056  13.157  0.4821 -0.6969  1.2496
 4113TIP3   OH233829   2.233   4.040  15.994  0.4117 -0.2039  0.4110
 4113TIP3    H133830   2.248   3.982  15.919  0.5897 -1.5099  1.4151
 4113TIP3    H233831   2.151   4.009  16.032 -0.8320  1.8425 -0.4668
 4114TIP3   OH233832   0.385   3.891  12.488  0.4539 -0.3424 -0.2170
 4114TIP3    H133833   0.331   3.913  12.412 -1.1940 -3.2273 -0.0678
 4114TIP3    H233834   0.422   3.805  12.467 -0.9671 -1.7857  2.5654
 4115TIP3   OH233835   6.395   1.501   0.464  0.2746 -0.5160 -0.1491
 4115TIP3    H133836   6.473   1.478   0.514 -0.5815 -0.2053  1.3672
 4115TIP3    H233837   6.328   1.438   0.492 -1.5304  2.3403  2.5771
 4116TIP3   OH233838   1.601   5.999   2.890 -0.3033  0.0302 -0.5486
 4116TIP3    H133839   1.557   6.027   2.970 -2.2766  1.2174 -1.9416
 4116TIP3    H233840   1.532   5.958   2.837  0.9642 -0.8548 -1.5931
 4117TIP3   OH233841   3.936   5.026  12.328  0.0800 -0.2691  0.0305
 4117TIP3    H133842   3.944   5.013  12.423 -0.0890 -1.3607 -0.0941
 4117TIP3    H233843   3.888   4.949  12.297  0.3658 -0.0534 -0.9797
 4118TIP3   OH233844   1.314   5.538  11.157 -0.1153  0.1925 -0.3934
 4118TIP3    H133845   1.219   5.541  11.149 -0.2191  1.9941  0.9541
 4118TIP3    H233846   1.341   5.476  11.089 -2.0748  1.2742 -2.3086
 4119TIP3   OH233847   1.637   0.316  16.055 -0.1463  0.1869  0.2857
 4119TIP3    H133848   1.654   0.408  16.039  0.2207  0.1747  0.5895
 4119TIP3    H233849   1.718   0.282  16.093 -1.4113  0.5864  3.7324
 4120TIP3   OH233850   4.268   0.890   5.472 -0.2996  0.3715 -0.2996
 4120TIP3    H133851   4.318   0.971   5.462  0.2248 -0.0220 -0.9362
 4120TIP3    H233852   4.249   0.884   5.565 -2.0226  2.2321 -0.4653
 4121TIP3   OH233853   0.101   5.939   3.962  1.0294 -0.3678  0.2190
 4121TIP3    H133854   0.135   5.997   4.031  1.7212  0.8717 -1.1168
 4121TIP3    H233855   0.029   5.989   3.923 -0.3813 -1.7068  1.0224
 4122TIP3   OH233856   0.278   5.430  13.462 -0.3127  0.0976 -0.0030
 4122TIP3    H133857   0.253   5.462  13.548 -1.3076 -0.7105  0.0315
 4122TIP3    H233858   0.216   5.360  13.443  0.6570 -0.5788 -0.8457
 4123TIP3   OH233859   2.749   2.723  11.201  0.2886  0.1754  0.3080
 4123TIP3    H133860   2.843   2.711  11.211  0.5165  1.2088 -0.4381
 4123TIP3    H233861   2.734   2.726  11.107 -0.7783 -1.8813  0.3573
 4124TIP3   OH233862   4.526   0.936   2.164  0.1567  0.0586  0.0695
 4124TIP3    H133863   4.614   0.920   2.130  0.0245 -2.6262  0.8049
 4124TIP3    H233864   4.485   0.850   2.167 -2.4896  1.2097 -0.1270
 4125TIP3   OH233865   2.735   3.382  12.116 -0.3778 -0.1439 -0.5600
 4125TIP3    H133866   2.758   3.467  12.079 -0.3560  0.5522  0.9740
 4125TIP3    H233867   2.799   3.321  12.078  0.0918  0.6588 -1.0897
 4126TIP3   OH233868   1.821   4.801  13.557 -0.2965  0.3111 -0.1588
 4126TIP3    H133869   1.878   4.743  13.608 -2.2750 -1.3104  0.3123
 4126TIP3    H233870   1.850   4.889  13.581  1.3037 -0.4442  0.8638
 4127TIP3   OH233871   6.491   6.496  12.105  0.4076 -0.2899 -0.1413
 4127TIP3    H133872   6.423   6.561  12.122  0.5810  0.5164 -2.2673
 4127TIP3    H233873   6.462   6.418  12.152 -1.8144  0.1304 -0.7306
 4128TIP3   OH233874   0.542   3.644   1.500  0.2558 -0.4690 -0.2233
 4128TIP3    H133875   0.532   3.552   1.474  2.2632 -0.6412 -0.4830
 4128TIP3    H233876   0.529   3.693   1.419 -0.3536 -0.5344 -0.1730
 4129TIP3   OH233877   3.487   6.163   5.652 -0.4674  0.5399  0.1719
 4129TIP3    H133878   3.563   6.149   5.709 -0.6247  2.8681  1.0636
 4129TIP3    H233879   3.425   6.094   5.677  0.8641 -0.7093  0.2083
 4130TIP3   OH233880   6.029   3.205   0.766 -0.0334  0.2276  0.1734
 4130TIP3    H133881   6.092   3.274   0.745 -0.0229 -0.3581 -2.0414
 4130TIP3    H233882   5.944   3.250   0.770 -0.0042  0.4359 -1.0878
 4131TIP3   OH233883   5.275   3.778   3.764 -0.3381 -0.2450 -0.1419
 4131TIP3    H133884   5.335   3.711   3.731  1.6025  0.7579  1.1478
 4131TIP3    H233885   5.295   3.855   3.713  0.0896  0.3186  0.8408
 4132TIP3   OH233886   2.541   6.283  15.043 -0.7656  0.7378 -0.0588
 4132TIP3    H133887   2.542   6.210  14.982 -1.5617  0.0746  0.7046
 4132TIP3    H233888   2.568   6.358  14.990 -0.8358  0.0672 -1.0768
 4133TIP3   OH233889   3.199   1.876  12.307  0.1106  0.7886  0.2066
 4133TIP3    H133890   3.163   1.805  12.253 -1.7514  2.0607 -0.3514
 4133TIP3    H233891   3.248   1.930  12.245 -1.4807  1.8934 -0.1458
 4134TIP3   OH233892   6.335   0.353  14.749 -0.0233  0.1890 -0.2766
 4134TIP3    H133893   6.368   0.442  14.739 -2.8941  1.3574 -0.4328
 4134TIP3    H233894   6.282   0.339  14.671 -1.8086 -0.5600  1.0029
 4135TIP3   OH233895   2.358   0.374   2.059 -0.1057  0.4281  0.5004
 4135TIP3    H133896   2.378   0.465   2.037 -0.3996  0.2475 -0.5713
 4135TIP3    H233897   2.347   0.330   1.975  0.7809 -0.7867  0.9835
 4136TIP3   OH233898   3.856   2.019  16.884  0.2387 -0.4715  0.2537
 4136TIP3    H133899   3.903   2.036  16.803 -0.3537  1.1108  0.2143
 4136TIP3    H233900   3.829   2.105  16.915 -2.4901 -1.2672  0.3679
 4137TIP3   OH233901   3.708   6.178   0.164 -0.2733 -0.0718 -0.0425
 4137TIP3    H133902   3.792   6.186   0.209  0.3688 -4.1333 -0.1490
 4137TIP3    H233903   3.647   6.227   0.218  2.0593  3.2024 -0.0646
 4138TIP3   OH233904   5.722   5.189   4.518 -0.1967 -0.8064  0.1711
 4138TIP3    H133905   5.810   5.175   4.484 -0.0540 -0.5723  0.4405
 4138TIP3    H233906   5.669   5.207   4.440  0.3018  0.6038  0.1303
 4139TIP3   OH233907   1.124   3.316  13.978 -0.0308 -0.3340  0.5053
 4139TIP3    H133908   1.136   3.224  14.003  1.3173 -0.5401 -0.7017
 4139TIP3    H233909   1.136   3.316  13.883  2.1575  1.3614  0.7044
 4140TIP3   OH233910   0.274   5.303  16.642 -0.0299 -0.0446 -0.1488
 4140TIP3    H133911   0.305   5.392  16.622  0.2036 -0.4766 -1.9246
 4140TIP3    H233912   0.301   5.288  16.733  0.2161  1.5713  0.0778
 4141TIP3   OH233913   2.441   5.571   0.117  0.0877 -0.1483 -0.1028
 4141TIP3    H133914   2.438   5.489   0.166  1.1881 -0.3695 -0.3766
 4141TIP3    H233915   2.481   5.634   0.177  4.2973 -1.1326 -1.5532
 4142TIP3   OH233916   4.830   1.858   0.620 -0.5913  0.1070 -0.0847
 4142TIP3    H133917   4.906   1.914   0.635 -0.8500  0.6161 -0.6303
 4142TIP3    H233918   4.850   1.777   0.666  1.0313 -0.4104 -1.6012
 4143TIP3   OH233919   5.760   2.932   1.866 -0.0836 -0.5998 -0.1296
 4143TIP3    H133920   5.845   2.954   1.904 -0.0059 -2.3448  0.8161
 4143TIP3    H233921   5.780   2.910   1.774  0.5386 -1.1657  0.1288
 4144TIP3   OH233922   4.700   6.297   0.071  0.3155 -0.1897  0.1738
 4144TIP3    H133923   4.720   6.356  -0.001  1.4194 -0.5558  0.1620
 4144TIP3    H233924   4.700   6.353   0.149 -2.1690  0.4579 -0.1902
 4145TIP3   OH233925   4.973   1.384   5.435 -0.9647 -0.0050 -0.0595
 4145TIP3    H133926   4.888   1.359   5.471 -0.2716  0.4309  1.9712
 4145TIP3    H233927   5.036   1.356   5.501  0.5586 -0.8357 -1.7690
 4146TIP3   OH233928   1.882   3.137  13.207 -0.0482 -0.3979  0.7139
 4146TIP3    H133929   1.958   3.177  13.249  1.0913 -2.7847  1.0994
 4146TIP3    H233930   1.860   3.063  13.262 -1.5734 -0.7939 -0.3597
 4147TIP3   OH233931   0.690   2.139  11.797 -0.0922  0.9109 -0.2172
 4147TIP3    H133932   0.765   2.142  11.738  1.0187  0.0515  1.1018
 4147TIP3    H233933   0.618   2.108  11.742  1.1048 -0.7068 -0.9606
 4148TIP3   OH233934   2.374   1.798  13.136  0.3464  0.3716  0.2039
 4148TIP3    H133935   2.386   1.703  13.143  1.6479  0.5416  0.5270
 4148TIP3    H233936   2.368   1.816  13.042 -0.2454 -0.0557  0.1539
 4149TIP3   OH233937   4.535   6.699  15.392  0.7598 -0.2741  0.0858
 4149TIP3    H133938   4.552   6.766  15.327  0.3986  0.9048  1.1546
 4149TIP3    H233939   4.469   6.643  15.352 -0.0491  0.8886 -0.2758
 4150TIP3   OH233940   4.556   0.159  10.934 -0.0599 -0.5384 -0.0744
 4150TIP3    H133941   4.482   0.145  10.993 -0.1339 -3.9993 -0.8119
 4150TIP3    H233942   4.519   0.209  10.861 -1.3290 -0.9953  0.2347
 4151TIP3   OH233943   2.029   2.899  14.318  0.1938  0.0828  0.7955
 4151TIP3    H133944   1.996   2.891  14.408 -1.3664  1.2795  0.3768
 4151TIP3    H233945   1.961   2.859  14.264  0.9067 -0.2188  0.1120
 4152TIP3   OH233946   2.229   2.709  12.943  0.4450 -0.1747  0.1970
 4152TIP3    H133947   2.161   2.769  12.973  0.5781  0.0455  0.0596
 4152TIP3    H233948   2.231   2.640  13.009 -0.8060 -0.8690 -0.4429
 4153TIP3   OH233949   2.042   2.037   2.097  0.1963  0.4503  0.3467
 4153TIP3    H133950   2.120   2.093   2.101  0.8353 -0.3895  0.0170
 4153TIP3    H233951   1.972   2.095   2.069  1.2545  0.7095 -2.0310
 4154TIP3   OH233952   6.155   6.514  13.876 -0.9258 -0.1782  0.2889
 4154TIP3    H133953   6.189   6.531  13.964  0.4112 -0.6642 -0.1079
 4154TIP3    H233954   6.074   6.565  13.871 -0.5746  0.5304  1.4954
 4155TIP3   OH233955   3.471   5.209   2.367  0.9178  0.1013  0.8890
 4155TIP3    H133956   3.532   5.223   2.295 -0.0499  0.2317  0.0850
 4155TIP3    H233957   3.401   5.156   2.330 -1.2717  2.8432  0.7898
 4156TIP3   OH233958   5.355   5.493   3.853  0.5293 -0.3201 -0.5346
 4156TIP3    H133959   5.389   5.569   3.805 -0.3029  0.0004 -0.6478
 4156TIP3    H233960   5.370   5.419   3.794  2.2141 -0.4128 -0.0242
 4157TIP3   OH233961   0.529   2.973   2.228  0.0636  0.5672  0.4783
 4157TIP3    H133962   0.521   2.925   2.145  1.8105  0.9974  0.0134
 4157TIP3    H233963   0.440   3.006   2.245 -0.5699 -0.4727 -0.6291
 4158TIP3   OH233964   3.415   6.295  13.412  0.3469  0.4316 -0.0608
 4158TIP3    H133965   3.389   6.213  13.370  1.2988  0.8272 -1.5134
 4158TIP3    H233966   3.341   6.317  13.468  0.2224 -1.5974  0.6595
 4159TIP3   OH233967   5.433   3.706   2.625  0.1524 -0.5516  0.3636
 4159TIP3    H133968   5.515   3.755   2.622 -0.2245  0.1707  1.0980
 4159TIP3    H233969   5.365   3.774   2.629 -0.5553 -1.1158 -1.1889
 4160TIP3   OH233970   2.341   6.442  13.536  0.0284  0.2120 -0.3503
 4160TIP3    H133971   2.322   6.397  13.454  0.2511  0.4257 -0.5223
 4160TIP3    H233972   2.436   6.451  13.537  0.0592 -0.1046  0.1029
 4161TIP3   OH233973   4.130   5.117  16.873 -0.2760  0.7382 -0.1599
 4161TIP3    H133974   4.150   5.089  16.962 -1.8581  0.2861  0.0856
 4161TIP3    H233975   4.048   5.073  16.852 -0.1890  1.2367 -1.6658
 4162TIP3   OH233976   3.036   0.522   0.701  0.6114  0.3313  0.5213
 4162TIP3    H133977   3.101   0.460   0.734 -0.0161 -0.7445 -0.1794
 4162TIP3    H233978   2.953   0.475   0.709 -0.2591  2.0119  2.2869
 4163TIP3   OH233979   5.185   6.343   1.285  0.4296  0.0948  0.1277
 4163TIP3    H133980   5.220   6.337   1.374  0.0841 -0.8452  0.2176
 4163TIP3    H233981   5.263   6.342   1.229  0.6078 -0.8445  0.3713
 4164TIP3   OH233982   6.512   5.521  16.429 -0.5894  0.5838  0.8544
 4164TIP3    H133983   6.607   5.531  16.433 -0.2266 -1.9796  0.3128
 4164TIP3    H233984   6.485   5.516  16.521  0.0137 -0.1908  0.9998
 4165TIP3   OH233985   5.213   1.225   5.861  0.2069  0.4184 -0.1238
 4165TIP3    H133986   5.272   1.151   5.874 -0.5591  0.1794  2.4109
 4165TIP3    H233987   5.252   1.296   5.913 -0.2001  1.1570 -0.8060
 4166TIP3   OH233988   0.087   1.740   1.547  0.1229  0.1241 -0.5974
 4166TIP3    H133989   0.138   1.693   1.612 -1.4413 -1.8970 -0.7339
 4166TIP3    H233990   0.080   1.679   1.473 -1.1990  0.9243 -1.1767
 4167TIP3   OH233991   5.103   6.654   1.809  0.1470 -0.2395  0.1537
 4167TIP3    H133992   5.032   6.643   1.872  0.7328 -0.7057  0.7362
 4167TIP3    H233993   5.128   6.565   1.785 -1.2687 -0.1216 -2.1368
 4168TIP3   OH233994   5.551   3.583  12.840  0.4735  0.4540  0.4003
 4168TIP3    H133995   5.492   3.621  12.776  0.5001  3.6512  2.0539
 4168TIP3    H233996   5.633   3.571  12.792 -0.5476 -0.9932 -1.0890
 4169TIP3   OH233997   4.607   2.854   1.339 -0.0112 -0.0524  0.1101
 4169TIP3    H133998   4.558   2.790   1.287  0.9171 -1.2866  0.6817
 4169TIP3    H233999   4.687   2.807   1.363  0.6909  1.3509  0.5621
 4170TIP3   OH234000   4.009   3.042  16.548 -0.2690 -0.7975 -0.4934
 4170TIP3    H134001   3.942   2.975  16.535 -1.0055 -0.0845 -0.4194
 4170TIP3    H234002   4.057   3.014  16.626  0.0336 -1.7220 -0.9965
 4171TIP3   OH234003   3.025   4.204  11.448  0.9019 -0.5055  0.9360
 4171TIP3    H134004   3.085   4.152  11.394  1.1410  0.5662  0.1403
 4171TIP3    H234005   3.080   4.275  11.482  0.8523 -1.3458  2.9265
 4172TIP3   OH234006   4.961   5.041  15.909 -0.7461 -0.2730  0.7810
 4172TIP3    H134007   4.905   5.111  15.875  0.0815 -0.0687 -0.2045
 4172TIP3    H234008   4.958   5.053  16.004 -2.0551 -0.0327  0.7410
 4173TIP3   OH234009   3.574   2.749   4.400  0.3166 -0.0624  0.2240
 4173TIP3    H134010   3.555   2.790   4.316  1.5164 -0.7410 -0.4008
 4173TIP3    H234011   3.590   2.822   4.459 -3.6043  0.5891  0.7450
 4174TIP3   OH234012   5.435   3.243   0.200 -0.4285 -0.6455 -0.4555
 4174TIP3    H134013   5.372   3.274   0.266 -0.0329 -1.5807  0.4067
 4174TIP3    H234014   5.471   3.163   0.239  1.8953  0.2830 -0.5446
 4175TIP3   OH234015   4.446   1.336   4.930 -0.1005  0.3706 -0.2855
 4175TIP3    H134016   4.374   1.395   4.908  1.4987  1.6728 -2.4814
 4175TIP3    H234017   4.420   1.251   4.896 -1.0852  0.5398  0.0209
 4176TIP3   OH234018   2.415   5.341  13.244  0.2408  0.2561 -0.9623
 4176TIP3    H134019   2.403   5.433  13.266  2.7794  0.5406 -0.4460
 4176TIP3    H234020   2.446   5.342  13.154 -0.7027 -0.1928 -1.3030
 4177TIP3   OH234021   0.920   1.509  13.458  0.4391  0.2001  0.8107
 4177TIP3    H134022   0.967   1.584  13.493 -1.3726  1.4083  0.8011
 4177TIP3    H234023   0.947   1.504  13.367  0.7133  0.7308  0.8588
 4178TIP3   OH234024   4.787   6.871   0.698  0.3016 -0.3047 -0.6312
 4178TIP3    H134025   4.852   6.936   0.720  3.3984 -1.6547 -4.5251
 4178TIP3    H234026   4.815   6.792   0.744 -0.1193 -0.2863 -0.3362
 4179TIP3   OH234027   0.958   6.177   3.008  0.7273 -0.3735  0.0676
 4179TIP3    H134028   0.897   6.119   3.053  1.4031 -2.0843 -1.0890
 4179TIP3    H234029   1.043   6.134   3.019  1.3505  0.7384 -0.3124
 4180TIP3   OH234030   1.658   3.053   2.584  0.1522  0.0652 -0.4144
 4180TIP3    H134031   1.590   3.001   2.625  0.1045 -0.4139 -1.0855
 4180TIP3    H234032   1.639   3.144   2.609 -1.7569  0.1575 -1.9899
 4181TIP3   OH234033   3.301   5.590   5.754 -0.6273  0.0886  0.3246
 4181TIP3    H134034   3.346   5.610   5.672 -0.7160 -2.0305 -0.3003
 4181TIP3    H234035   3.209   5.610   5.736 -0.6668 -0.5030 -0.1652
 4182TIP3   OH234036   6.762   6.870  16.024  0.1147  0.1964  0.1807
 4182TIP3    H134037   6.840   6.841  16.071  0.9364  0.9964 -0.6495
 4182TIP3    H234038   6.689   6.828  16.070  0.9934 -0.1921  1.2565
 4183TIP3   OH234039   5.369   1.749   3.452 -0.1487 -0.4701 -0.2796
 4183TIP3    H134040   5.408   1.662   3.447 -0.2759 -0.6344  1.2075
 4183TIP3    H234041   5.443   1.808   3.465 -0.2012 -0.5808  0.6214
 4184TIP3   OH234042   1.588   5.714  14.144 -0.2169  0.9790  0.1400
 4184TIP3    H134043   1.505   5.700  14.098 -0.8133  1.4604  1.0433
 4184TIP3    H234044   1.604   5.808  14.137 -0.0512  0.9770  0.4718
 4185TIP3   OH234045   5.339   2.837  15.574  0.1214  0.1270  0.5852
 4185TIP3    H134046   5.364   2.747  15.595 -0.4239  0.1246  1.2661
 4185TIP3    H234047   5.422   2.884  15.565  0.3994 -0.3313  0.7506
 4186TIP3   OH234048   5.227   2.138   3.247  0.0398 -0.6679 -0.0931
 4186TIP3    H134049   5.251   2.153   3.155  0.2400  1.5248  0.2531
 4186TIP3    H234050   5.309   2.118   3.291  0.4022  0.9765  0.0445
 4187TIP3   OH234051   5.100   5.678   4.614  0.3246  0.5147 -0.3444
 4187TIP3    H134052   5.184   5.648   4.648 -1.2290  0.0978  3.7849
 4187TIP3    H234053   5.076   5.751   4.671 -1.2659  2.0040 -2.7271
 4188TIP3   OH234054   5.682   2.950  11.028 -0.1909 -0.5615  0.0552
 4188TIP3    H134055   5.773   2.975  11.044  0.3967 -0.4674 -2.7840
 4188TIP3    H234056   5.647   3.021  10.974 -1.4679 -1.3384 -0.1855
 4189TIP3   OH234057   3.166   0.666  14.402 -0.2564  0.0077  0.1542
 4189TIP3    H134058   3.109   0.723  14.351 -1.1452 -1.2012 -0.2402
 4189TIP3    H234059   3.206   0.724  14.467 -0.4312  1.2435 -0.8054
 4190TIP3   OH234060   2.050   0.098  10.684  0.4151 -0.3836  0.0832
 4190TIP3    H134061   2.102   0.151  10.744  0.5611 -1.7727  1.2342
 4190TIP3    H234062   2.025   0.159  10.614  0.0417  1.3507  1.6339
 4191TIP3   OH234063   6.294   6.099  11.981 -0.0512  0.3123 -0.8271
 4191TIP3    H134064   6.330   6.045  11.910 -1.7550 -0.4469 -1.1575
 4191TIP3    H234065   6.234   6.160  11.937  0.4225  1.2409 -0.2378
 4192TIP3   OH234066   1.575   1.575  16.091  0.4891 -0.3770  0.2503
 4192TIP3    H134067   1.549   1.656  16.134  1.8912  0.5696 -0.5934
 4192TIP3    H234068   1.493   1.525  16.083 -0.6041  1.3731 -0.1102
 4193TIP3   OH234069   4.205   5.659   3.884  0.0336 -0.3937  0.3494
 4193TIP3    H134070   4.264   5.649   3.959 -0.5838 -0.2764  0.8606
 4193TIP3    H234071   4.122   5.685   3.923 -0.3026 -0.3620 -0.3816
 4194TIP3   OH234072   2.409   3.414   1.103  0.0481  0.1436 -0.6746
 4194TIP3    H134073   2.464   3.421   1.181  0.2486 -0.2714 -0.7771
 4194TIP3    H234074   2.459   3.360   1.043 -1.4305 -2.2335  0.1148
 4195TIP3   OH234075   4.719   2.925  14.446  0.0934 -0.1248  0.3696
 4195TIP3    H134076   4.697   2.884  14.530  0.6330  1.0138  1.0943
 4195TIP3    H234077   4.748   3.013  14.469  1.4535 -0.1958 -0.8980
 4196TIP3   OH234078   0.529   3.080  16.879  0.1065 -0.2982  0.2611
 4196TIP3    H134079   0.439   3.057  16.860 -1.0338  0.5062  3.8587
 4196TIP3    H234080   0.544   3.162  16.832 -1.3980  0.0673  0.3752
 4197TIP3   OH234081   1.532   5.355   3.243  0.0385 -0.6460  0.1412
 4197TIP3    H134082   1.512   5.447   3.258  0.1284 -0.8956  2.1644
 4197TIP3    H234083   1.508   5.339   3.152  1.0169  1.6081 -0.5721
 4198TIP3   OH234084   3.775   4.379  12.065 -1.0800  0.2266  0.9360
 4198TIP3    H134085   3.819   4.429  12.134  1.7363  1.3698 -1.5083
 4198TIP3    H234086   3.816   4.292  12.069  0.0444  0.6834 -0.0416
 4199TIP3   OH234087   1.137   6.174   5.361  0.3028  0.8546 -0.2586
 4199TIP3    H134088   1.047   6.169   5.329  0.2375  4.1358 -0.9789
 4199TIP3    H234089   1.128   6.200   5.453  0.5918 -2.4260  0.8361
 4200TIP3   OH234090   6.373   2.545  16.463  0.9709  0.1452 -0.1057
 4200TIP3    H134091   6.288   2.584  16.445  0.2412 -2.1735 -2.2979
 4200TIP3    H234092   6.357   2.485  16.535  0.9809  0.3743  0.0900
 4201TIP3   OH234093   5.192   0.353   0.360 -0.1518 -0.0785  0.2731
 4201TIP3    H134094   5.269   0.348   0.304  0.1854 -0.4711  0.7742
 4201TIP3    H234095   5.189   0.444   0.388  0.0605 -0.0352  0.1573
 4202TIP3   OH234096   5.493   4.575   4.968 -0.1287 -0.4426 -0.0470
 4202TIP3    H134097   5.448   4.657   4.950 -2.0289 -1.3682  0.2898
 4202TIP3    H234098   5.533   4.587   5.054 -0.2170  0.1813 -0.0891
 4203TIP3   OH234099   2.370   0.047  10.643 -0.4140  0.4823 -0.1386
 4203TIP3    H134100   2.361  -0.041  10.679  0.5190 -0.2534 -1.6220
 4203TIP3    H234101   2.281   0.081  10.641 -0.6640  0.0277  1.4812
 4204TIP3   OH234102   2.172   2.421  13.511  0.7366  0.2845 -0.2311
 4204TIP3    H134103   2.267   2.410  13.513  0.5153 -2.0718 -0.4078
 4204TIP3    H234104   2.146   2.397  13.422  0.0076  1.6076 -0.4126
 4205TIP3   OH234105   5.147   0.707   1.537 -0.5295 -0.4129 -0.1742
 4205TIP3    H134106   5.203   0.699   1.460  1.0401  3.7335  0.3085
 4205TIP3    H234107   5.160   0.625   1.584  2.5921 -0.9640 -1.7576
 4206TIP3   OH234108   6.270   4.820   4.449 -0.3452  0.4074  0.3191
 4206TIP3    H134109   6.217   4.886   4.492  0.8412  1.1973  0.5959
 4206TIP3    H234110   6.311   4.865   4.375  0.1573 -0.1162  0.2663
 4207TIP3   OH234111   6.080   2.734  13.933 -0.0693 -0.5583  0.2495
 4207TIP3    H134112   6.143   2.799  13.963 -0.6459 -0.2338  0.7744
 4207TIP3    H234113   6.129   2.651  13.934  0.9514 -0.0305 -1.3210
 4208TIP3   OH234114   3.958   6.572  12.209  0.2432  0.1901 -0.0077
 4208TIP3    H134115   3.997   6.509  12.149 -0.4643  0.8795 -1.2562
 4208TIP3    H234116   3.892   6.522  12.257  0.0259 -0.1489 -0.6393
 4209TIP3   OH234117   6.420   1.049   0.342 -0.2495 -0.6866  0.1583
 4209TIP3    H134118   6.366   1.128   0.344  0.2153 -0.3727  1.0211
 4209TIP3    H234119   6.458   1.048   0.254 -1.7481 -0.9931 -0.5021
 4210TIP3   OH234120   4.777   3.939  13.367  0.5252 -0.3536 -0.0529
 4210TIP3    H134121   4.694   3.928  13.322  0.9532  0.1348 -1.0108
 4210TIP3    H234122   4.828   3.861  13.343  0.3652 -0.6247  0.4852
 4211TIP3   OH234123   3.574   1.997  12.064  0.1541 -0.2865  0.6999
 4211TIP3    H134124   3.642   1.942  12.026 -0.4295  0.0643 -0.9217
 4211TIP3    H234125   3.542   1.947  12.140  0.5568 -1.5530  0.0570
 4212TIP3   OH234126   3.546   5.607  10.769  0.1279 -0.6599  0.0406
 4212TIP3    H134127   3.458   5.644  10.773  0.1051 -0.8010  1.1678
 4212TIP3    H234128   3.583   5.642  10.688 -1.3057 -1.4022 -0.9758
 4213TIP3   OH234129   2.735   3.623   2.144 -0.7427 -0.0304 -0.0233
 4213TIP3    H134130   2.732   3.713   2.177 -0.4970 -0.0610  0.0831
 4213TIP3    H234131   2.679   3.574   2.203  0.2948 -0.2350  0.8213
 4214TIP3   OH234132   3.507   3.217  14.543 -0.4743 -0.0712  0.0005
 4214TIP3    H134133   3.434   3.165  14.576  0.2989 -1.1036  0.1417
 4214TIP3    H234134   3.499   3.302  14.586 -0.8772 -0.5918  0.9655
 4215TIP3   OH234135   5.437   1.608  12.458 -0.0901 -0.6302  0.4745
 4215TIP3    H134136   5.393   1.676  12.407  1.1890 -0.6773 -0.7641
 4215TIP3    H234137   5.371   1.578  12.521 -1.2834  0.4050 -0.2418
 4216TIP3   OH234138   6.811   2.411  14.508  0.4997  0.3221  0.1198
 4216TIP3    H134139   6.826   2.343  14.574  0.5233  0.6393  0.4432
 4216TIP3    H234140   6.743   2.467  14.546 -0.2504 -0.0898 -0.5758
 4217TIP3   OH234141   5.648   1.059  12.251 -0.3490  0.2939  0.1972
 4217TIP3    H134142   5.563   1.020  12.271  0.3869 -1.1831  0.5464
 4217TIP3    H234143   5.661   1.124  12.320 -0.6109 -0.3948  0.9051
 4218TIP3   OH234144   2.717   3.176   0.376 -0.2659  0.6979  0.1760
 4218TIP3    H134145   2.650   3.228   0.421  0.0401  2.5021 -1.3209
 4218TIP3    H234146   2.667   3.123   0.314 -0.3856  2.5603 -1.4471
 4219TIP3   OH234147   1.285   2.767  11.747  0.6213 -0.0699 -0.0932
 4219TIP3    H134148   1.220   2.812  11.801 -0.2185  1.7135 -2.3775
 4219TIP3    H234149   1.366   2.814  11.764  1.3041 -1.9789  2.3875
 4220TIP3   OH234150   1.851   0.716   1.159  0.3739 -0.4371  0.8998
 4220TIP3    H134151   1.874   0.715   1.252  0.7957 -1.5091  0.8028
 4220TIP3    H234152   1.931   0.687   1.114 -0.1673 -1.0630  0.3075
 4221TIP3   OH234153   0.340   6.380  10.007 -0.3501  0.1472 -0.2539
 4221TIP3    H134154   0.317   6.287   9.999  0.9130 -0.2458  0.5016
 4221TIP3    H234155   0.317   6.417   9.921 -1.5767 -0.6783 -0.3192
 4222TIP3   OH234156   2.302   3.513   5.549  0.2655  0.0415  0.2189
 4222TIP3    H134157   2.390   3.487   5.578 -0.0285 -0.5234  0.6029
 4222TIP3    H234158   2.308   3.513   5.454 -0.1039 -2.8056  0.1328
 4223TIP3   OH234159   0.035   1.027  14.956 -0.4444  0.1565 -0.4337
 4223TIP3    H134160  -0.059   1.011  14.965 -0.7824  0.5638 -2.7339
 4223TIP3    H234161   0.074   0.940  14.948 -0.3130 -0.1438  2.2819
 4224TIP3   OH234162   0.850   0.166  11.568  0.3614 -0.2536  0.0371
 4224TIP3    H134163   0.770   0.175  11.517  0.3759 -2.7555 -0.5804
 4224TIP3    H234164   0.919   0.201  11.511 -0.0948  0.5655 -0.0228
 4225TIP3   OH234165   2.702   6.269  14.695  0.5869  0.3867 -0.2643
 4225TIP3    H134166   2.686   6.351  14.741  3.6088  2.0798 -1.9111
 4225TIP3    H234167   2.699   6.202  14.764  2.7354  2.4995  2.1020
 4226TIP3   OH234168   1.686   1.492   4.477 -0.1098 -0.0353 -0.0185
 4226TIP3    H134169   1.627   1.532   4.540  0.2336  1.6442 -0.7146
 4226TIP3    H234170   1.771   1.534   4.493  0.0818  0.1077 -1.3009
 4227TIP3   OH234171   4.547   3.416   6.258 -0.1208 -0.2912 -0.1324
 4227TIP3    H134172   4.513   3.505   6.269  0.3552 -0.1004 -0.1759
 4227TIP3    H234173   4.617   3.409   6.323  0.7735 -0.1531 -1.0369
 4228TIP3   OH234174   3.956   4.531   3.330 -0.6645 -0.2162 -0.0939
 4228TIP3    H134175   3.990   4.490   3.410 -0.3854 -0.4731 -0.3428
 4228TIP3    H234176   3.956   4.625   3.350 -1.4583 -0.3336  0.5384
 4229TIP3   OH234177   2.780   0.754   0.289  0.2461 -0.0839  0.0647
 4229TIP3    H134178   2.821   0.815   0.227  1.3220  0.1759  0.9937
 4229TIP3    H234179   2.697   0.731   0.248  0.8925  0.1322 -1.4396
 4230TIP3   OH234180   4.139   6.656  13.202  0.1634  0.1358 -0.2103
 4230TIP3    H134181   4.153   6.589  13.268  1.3583  1.4703  0.9832
 4230TIP3    H234182   4.190   6.627  13.127 -0.9208 -1.2312 -0.4309
 4231TIP3   OH234183   1.739   5.556   0.824 -0.5380 -0.1269 -0.3868
 4231TIP3    H134184   1.687   5.610   0.884  0.4305 -1.5684  1.8909
 4231TIP3    H234185   1.753   5.611   0.748  0.0861  2.7274  1.6455
 4232TIP3   OH234186   2.135   2.176   5.731  0.8204 -0.9430  0.3021
 4232TIP3    H134187   2.193   2.188   5.806  0.0680 -2.0628  1.0995
 4232TIP3    H234188   2.048   2.199   5.765  0.5716 -0.7879 -0.4304
 4233TIP3   OH234189   3.588   6.166  11.179 -0.0528 -0.6506  0.2744
 4233TIP3    H134190   3.500   6.151  11.215  0.0090 -1.2395  0.2004
 4233TIP3    H234191   3.643   6.101  11.223  0.5355  0.3152  0.9897
 4234TIP3   OH234192   2.195   0.019   3.978  0.1809 -0.2865 -0.3454
 4234TIP3    H134193   2.148  -0.034   3.915 -0.8667 -0.3646  0.4828
 4234TIP3    H234194   2.153   0.105   3.974 -0.3804 -0.4876  0.7330
 4235TIP3   OH234195   4.181   1.440   4.332 -0.0852  0.1887 -0.0858
 4235TIP3    H134196   4.122   1.366   4.348  0.5902 -0.1458  0.9800
 4235TIP3    H234197   4.265   1.412   4.369  0.8431  0.5409 -1.8022
 4236TIP3   OH234198   6.256   1.842   6.382 -0.5151 -0.1668  0.0561
 4236TIP3    H134199   6.181   1.900   6.391  0.3670  0.7989  1.5441
 4236TIP3    H234200   6.332   1.898   6.396  0.3930 -1.4946  0.6451
 4237TIP3   OH234201   5.717   6.662   3.598 -0.1010 -0.3422 -0.2206
 4237TIP3    H134202   5.689   6.753   3.589 -0.2066 -0.3253  0.2746
 4237TIP3    H234203   5.800   6.658   3.551  0.3202  0.2145  0.4577
 4238TIP3   OH234204   0.099   0.613  11.714  0.2463  0.1927 -0.3009
 4238TIP3    H134205   0.106   0.602  11.619 -0.1731 -0.0796 -0.3024
 4238TIP3    H234206   0.005   0.616  11.731  0.2959  3.0262 -0.1929
 4239TIP3   OH234207   2.003   4.110  14.096  0.1302 -0.1688  0.7268
 4239TIP3    H134208   1.942   4.089  14.166 -0.9971 -2.0299 -0.6970
 4239TIP3    H234209   2.089   4.103  14.136 -0.5118 -0.2836  2.1399
 4240TIP3   OH234210   4.366   2.153   2.428 -0.5095  0.1097  0.1702
 4240TIP3    H134211   4.361   2.164   2.523  1.8774  0.9780  0.2654
 4240TIP3    H234212   4.404   2.235   2.396 -0.4599 -0.4989 -1.4258
 4241TIP3   OH234213   4.663   3.643   0.841  0.2796 -0.1924 -0.3394
 4241TIP3    H134214   4.735   3.696   0.810  0.1555  0.4091  0.3644
 4241TIP3    H234215   4.585   3.697   0.829  0.0540 -0.4999 -0.3014
 4242TIP3   OH234216   0.842   3.421   1.432  0.9252 -1.0628  0.5547
 4242TIP3    H134217   0.863   3.435   1.525  0.5413 -0.2764  0.5303
 4242TIP3    H234218   0.768   3.361   1.433 -2.2517  2.5043  1.0118
 4243TIP3   OH234219   1.909   5.819  11.203 -0.1886 -0.1609 -0.1358
 4243TIP3    H134220   1.871   5.852  11.122 -0.4008 -1.6090 -0.6644
 4243TIP3    H234221   1.870   5.873  11.272 -2.2482 -0.7674 -0.7662
 4244TIP3   OH234222   2.110   1.067   2.044  0.0273 -0.3870  0.0028
 4244TIP3    H134223   2.056   1.111   2.110  0.6364 -0.4572  0.5602
 4244TIP3    H234224   2.162   1.138   2.005 -1.2019 -0.1581 -1.2701
 4245TIP3   OH234225   5.245   2.634  14.702  0.2125 -0.1944 -0.4417
 4245TIP3    H134226   5.204   2.547  14.701  1.0377 -0.6153 -0.0036
 4245TIP3    H234227   5.198   2.682  14.770  1.1788 -1.0870  0.9461
 4246TIP3   OH234228   6.525   5.050   0.502  0.2421  0.3676  0.3137
 4246TIP3    H134229   6.569   5.077   0.583  1.8193 -0.0398 -0.3740
 4246TIP3    H234230   6.527   5.127   0.446  1.0792  0.0432 -0.1207
 4247TIP3   OH234231   6.126   3.592   1.706 -0.6295  0.1237 -0.2363
 4247TIP3    H134232   6.124   3.578   1.611 -0.4918  1.5132 -0.4616
 4247TIP3    H234233   6.200   3.651   1.719 -0.0367 -0.8194  0.8634
 4248TIP3   OH234234   0.384   4.902  12.195  0.0226 -0.8183  0.3458
 4248TIP3    H134235   0.364   4.981  12.244  1.9455  1.0606 -1.6742
 4248TIP3    H234236   0.431   4.847  12.258 -0.5883 -0.0200  1.5435
 4249TIP3   OH234237   5.485   4.738   3.844  0.0266  0.0311  0.7820
 4249TIP3    H134238   5.562   4.686   3.870  1.0466  0.7189 -0.7122
 4249TIP3    H234239   5.482   4.730   3.749 -0.6580  1.5272  0.6535
 4250TIP3   OH234240   2.991   5.147   5.866 -0.6958 -0.4480  0.6348
 4250TIP3    H134241   3.046   5.224   5.857  0.6120 -1.1664  1.9997
 4250TIP3    H234242   2.937   5.146   5.787  1.6590 -0.0232 -1.0564
 4251TIP3   OH234243   5.080   0.119  12.557  0.1602 -0.4409  0.0508
 4251TIP3    H134244   5.075   0.143  12.650 -1.4645  2.4204 -0.6621
 4251TIP3    H234245   5.013   0.051  12.547 -0.5687  0.1552  0.7468
 4252TIP3   OH234246   3.005   4.737   1.453  0.2132 -0.0181  0.1699
 4252TIP3    H134247   2.918   4.730   1.493  0.5501  1.2647  1.1981
 4252TIP3    H234248   2.988   4.741   1.359 -0.9078  0.9296  0.3874
 4253TIP3   OH234249   0.179   2.518   2.668  0.6785 -0.2854 -0.0210
 4253TIP3    H134250   0.270   2.503   2.695  0.3338  0.5148  1.7116
 4253TIP3    H234251   0.140   2.430   2.667  0.9235 -0.4271  1.3994
 4254TIP3   OH234252   2.333   3.169   6.002  0.0540  0.7554 -0.3764
 4254TIP3    H134253   2.358   3.204   6.088  0.3755 -0.8673  0.2199
 4254TIP3    H234254   2.352   3.240   5.941  0.0171  1.8720  0.8563
 4255TIP3   OH234255   3.532   3.498  12.083  0.2987 -0.5797 -0.1069
 4255TIP3    H134256   3.470   3.449  12.031 -0.5470  0.4553 -0.1123
 4255TIP3    H234257   3.478   3.560  12.133  1.3034  0.2248  0.0133
 4256TIP3   OH234258   6.360   0.554  11.393  0.1932 -0.3061 -0.0410
 4256TIP3    H134259   6.445   0.561  11.350 -0.6290  0.1865 -1.6743
 4256TIP3    H234260   6.297   0.584  11.327 -1.2867 -0.9969  0.9933
 4257TIP3   OH234261   5.148   3.835  14.254 -0.0327  0.1682 -0.3936
 4257TIP3    H134262   5.231   3.788  14.261  1.3724  2.7028  2.0553
 4257TIP3    H234263   5.083   3.773  14.285  1.1795 -1.2961 -0.6461
 4258TIP3   OH234264   4.641   6.521  11.485  0.0864  0.3206 -0.4361
 4258TIP3    H134265   4.707   6.587  11.504  0.1115  0.0570  0.4368
 4258TIP3    H234266   4.656   6.498  11.393  0.8081  0.6985 -0.4217
 4259TIP3   OH234267   2.774   1.676  15.302 -0.1904  0.2629  0.3016
 4259TIP3    H134268   2.869   1.666  15.300 -0.3474 -1.6089  0.8503
 4259TIP3    H234269   2.758   1.742  15.370  0.7910  2.8130 -1.7286
 4260TIP3   OH234270   4.309   1.438   0.196 -0.1863  0.1076  0.1610
 4260TIP3    H134271   4.340   1.421   0.107 -1.5863 -1.8393 -0.0161
 4260TIP3    H234272   4.359   1.377   0.250 -1.4326 -0.8275  0.2817
 4261TIP3   OH234273   5.191   5.621  15.919 -0.2413  0.3200 -0.1683
 4261TIP3    H134274   5.184   5.525  15.922  1.4585  0.1682  0.7953
 4261TIP3    H234275   5.101   5.652  15.927 -0.7475 -1.1950  0.4723
 4262TIP3   OH234276   6.894   4.117  15.380  0.2153  0.4373 -0.0780
 4262TIP3    H134277   6.924   4.201  15.413  1.7601 -1.0182  2.5754
 4262TIP3    H234278   6.974   4.072  15.354 -0.4439 -0.7228 -0.1714
 4263TIP3   OH234279   0.836   2.058   2.029  0.7125  0.4316 -0.0325
 4263TIP3    H134280   0.800   1.976   1.996  2.1749 -0.3443  0.2440
 4263TIP3    H234281   0.759   2.113   2.044 -0.1763 -0.1694 -2.0547
 4264TIP3   OH234282   2.527   5.529   5.067 -0.0085  0.1381 -0.1177
 4264TIP3    H134283   2.531   5.496   5.157 -0.8699 -1.7760 -0.7267
 4264TIP3    H234284   2.445   5.494   5.032  0.3174  0.8313 -1.6628
 4265TIP3   OH234285   4.192   6.176   3.195 -0.7456 -0.0547  0.0459
 4265TIP3    H134286   4.228   6.262   3.219 -0.3989 -0.4286  0.9027
 4265TIP3    H234287   4.251   6.144   3.127  0.8501 -0.8196  1.6867
 4266TIP3   OH234288   4.749   4.956  11.264 -0.0867  0.0664 -0.1762
 4266TIP3    H134289   4.814   4.941  11.196  0.1314 -0.9430  0.2366
 4266TIP3    H234290   4.798   4.997  11.335 -0.0557 -0.0157 -0.1502
 4267TIP3   OH234291   5.300   1.795   4.132  0.3166  0.2650  0.0810
 4267TIP3    H134292   5.369   1.816   4.196  0.6995 -0.5523 -0.0563
 4267TIP3    H234293   5.308   1.701   4.118 -2.6802 -0.4686  2.2281
 4268TIP3   OH234294   1.115   4.349  11.715  0.1943 -0.2918  0.0184
 4268TIP3    H134295   1.192   4.397  11.686  0.7634 -1.5938 -0.6828
 4268TIP3    H234296   1.076   4.405  11.782  0.8796  1.0906 -0.7016
 4269TIP3   OH234297   1.647   3.802  13.080  0.2494  0.2575 -0.0930
 4269TIP3    H134298   1.720   3.740  13.078  1.3838  1.5000 -3.0645
 4269TIP3    H234299   1.688   3.886  13.100 -0.9758  0.4616  1.8342
 4270TIP3   OH234300   5.251   0.689  13.947 -0.8456 -0.2037 -0.3430
 4270TIP3    H134301   5.332   0.659  13.906 -0.3108 -0.0140  0.5466
 4270TIP3    H234302   5.219   0.612  13.995 -0.1088  0.2774  0.9594
 4271TIP3   OH234303   2.714   4.897  10.414 -0.3241 -0.1028  0.2659
 4271TIP3    H134304   2.774   4.934  10.349 -0.1439 -0.1603  0.3981
 4271TIP3    H234305   2.630   4.940  10.396 -0.6468 -1.1397 -0.9197
 4272TIP3   OH234306   6.842   0.111   5.745  0.0099 -0.0666 -0.3035
 4272TIP3    H134307   6.792   0.068   5.815 -1.0394  1.2013 -0.2342
 4272TIP3    H234308   6.932   0.082   5.758  0.1329  1.2534  2.5081
 4273TIP3   OH234309   2.294   0.493  14.730  0.5036  0.1303 -0.5709
 4273TIP3    H134310   2.262   0.403  14.738 -0.5050  0.4981 -0.2807
 4273TIP3    H234311   2.390   0.484  14.730  0.4298 -0.8907  0.1030
 4274TIP3   OH234312   1.313   0.229   3.019 -0.0255 -0.4311  0.6419
 4274TIP3    H134313   1.254   0.227   3.095 -1.0285  1.8068  0.0133
 4274TIP3    H234314   1.386   0.285   3.046  0.5541 -1.1234  0.5492
 4275TIP3   OH234315   4.844   4.870   3.958 -0.2453  0.0168 -0.0518
 4275TIP3    H134316   4.860   4.784   3.919  0.4795  0.3343 -0.4905
 4275TIP3    H234317   4.834   4.929   3.883 -2.0931  0.1106  0.2269
 4276TIP3   OH234318   3.126   1.192  15.117 -0.3835 -0.2065  0.1362
 4276TIP3    H134319   3.210   1.239  15.116  0.3084 -1.3557 -1.8821
 4276TIP3    H234320   3.070   1.245  15.174  2.2619 -0.4609  3.2984
 4277TIP3   OH234321   3.564   4.668  12.179  0.7021 -0.5260 -0.6156
 4277TIP3    H134322   3.493   4.646  12.118 -0.3875 -1.5333  0.9315
 4277TIP3    H234323   3.633   4.705  12.123 -0.4702 -0.8291 -2.3601
 4278TIP3   OH234324   2.905   6.244  10.681 -0.2109 -0.2674  0.5558
 4278TIP3    H134325   2.924   6.270  10.771 -2.0474  2.8739  0.1821
 4278TIP3    H234326   2.835   6.179  10.688 -1.7230  1.3762  1.4269
 4279TIP3   OH234327   1.032   6.333  11.169  0.3551 -0.4740 -0.4403
 4279TIP3    H134328   1.128   6.342  11.173  0.5092 -2.0425 -0.0902
 4279TIP3    H234329   0.999   6.407  11.220  1.4535 -1.0531  1.1900
 4280TIP3   OH234330   3.450   4.980  12.159 -0.3268 -0.4049  0.1685
 4280TIP3    H134331   3.428   4.909  12.097 -0.6363  1.0480 -1.4644
 4280TIP3    H234332   3.366   5.020  12.180  0.0944  1.6021 -1.6468
 4281TIP3   OH234333   3.889   0.316  13.016 -0.1391 -0.2213  0.8251
 4281TIP3    H134334   3.959   0.340  12.955  0.3486  0.7578  1.7425
 4281TIP3    H234335   3.845   0.243  12.973 -0.4810  1.0783 -1.2054
 4282TIP3   OH234336   1.317   4.386  14.365  0.1465  0.8516 -0.1123
 4282TIP3    H134337   1.303   4.298  14.330  0.3814  0.3601  0.9690
 4282TIP3    H234338   1.326   4.373  14.460  1.4538  1.8967 -0.0623
 4283TIP3   OH234339   3.392   2.455   3.518  0.7109  0.1003  0.0018
 4283TIP3    H134340   3.449   2.528   3.541  0.7563 -0.1018  0.5551
 4283TIP3    H234341   3.436   2.378   3.554 -0.0804 -0.0145  0.7544
 4284TIP3   OH234342   6.635   5.970  15.798 -0.5883 -0.2197 -0.2680
 4284TIP3    H134343   6.553   5.923  15.816 -0.2568 -0.5518  0.4504
 4284TIP3    H234344   6.703   5.903  15.809 -0.0551  0.5327  1.3710
 4285TIP3   OH234345   3.180   4.271   3.868  0.0496  0.0706  0.0636
 4285TIP3    H134346   3.129   4.352   3.880  0.0350  0.1968 -0.7976
 4285TIP3    H234347   3.233   4.287   3.790  0.6597 -0.4496  0.3627
 4286TIP3   OH234348   6.326   6.700  15.879 -0.0922  0.2942 -0.2042
 4286TIP3    H134349   6.268   6.699  15.955 -0.7748 -0.2957 -0.7324
 4286TIP3    H234350   6.344   6.793  15.865 -0.3775  0.4414  0.3552
 4287TIP3   OH234351   5.486   4.912   4.661  0.1027  0.0748  0.2596
 4287TIP3    H134352   5.544   4.954   4.725  0.4722 -0.5104  0.3125
 4287TIP3    H234353   5.416   4.977   4.646  0.4970  0.5788  0.5729
 4288TIP3   OH234354   0.314   3.039   1.065 -0.0395 -0.3584 -0.1123
 4288TIP3    H134355   0.225   3.037   1.099  0.3827 -1.9174  1.0222
 4288TIP3    H234356   0.312   2.982   0.988 -0.6483  1.9682 -1.9141
 4289TIP3   OH234357   1.253   5.181  15.709  0.3645  0.3247 -0.2770
 4289TIP3    H134358   1.265   5.199  15.802 -1.1113  1.9690 -0.3431
 4289TIP3    H234359   1.158   5.171  15.698  0.6705 -2.0318 -1.2767
 4290TIP3   OH234360   0.191   2.843  14.526  0.1717  0.1745  0.1225
 4290TIP3    H134361   0.165   2.752  14.538 -1.1689  0.4365 -0.5962
 4290TIP3    H234362   0.249   2.862  14.600 -1.7890 -0.4271  1.9288
 4291TIP3   OH234363   6.259   3.262  11.797  0.0565  0.2517  0.3275
 4291TIP3    H134364   6.338   3.240  11.747  0.0540  2.1770 -0.6130
 4291TIP3    H234365   6.186   3.231  11.742  0.1121  0.4096  0.1632
 4292TIP3   OH234366   5.783   5.066   2.571 -0.4754  0.5458 -0.1196
 4292TIP3    H134367   5.772   4.980   2.613 -1.4859  0.4764 -0.5033
 4292TIP3    H234368   5.878   5.073   2.557 -0.0139  0.7550  2.5447
 4293TIP3   OH234369   4.054   5.017   0.486 -0.1913  0.1760 -0.1123
 4293TIP3    H134370   4.078   5.070   0.410  1.4440  0.7055  0.7334
 4293TIP3    H234371   3.959   5.023   0.490 -0.6940 -2.0849 -3.6851
 4294TIP3   OH234372   2.814   4.987  12.654  0.4077 -0.0631 -0.1703
 4294TIP3    H134373   2.879   5.047  12.617  0.7231 -0.6906 -0.6525
 4294TIP3    H234374   2.857   4.902  12.656 -0.8856 -0.8179 -1.9333
 4295TIP3   OH234375   0.678   6.493  14.998 -0.3220 -0.3192 -0.0467
 4295TIP3    H134376   0.591   6.466  15.029 -0.9430  1.6716  0.0932
 4295TIP3    H234377   0.736   6.479  15.073 -0.4336 -1.8557 -0.2045
 4296TIP3   OH234378   0.920   0.098   4.517  0.5602  0.0059  1.0320
 4296TIP3    H134379   0.860   0.113   4.443 -1.3330 -2.8194  1.8119
 4296TIP3    H234380   0.903   0.171   4.577  0.4533  1.0997 -0.2846
 4297TIP3   OH234381   2.705   2.750   5.684 -0.3653 -0.2819 -0.1867
 4297TIP3    H134382   2.767   2.769   5.754  0.4854  0.5172 -1.1294
 4297TIP3    H234383   2.621   2.741   5.729  0.3794 -1.2259  1.0924
 4298TIP3   OH234384   5.718   3.315   1.660 -0.1925  0.2321  0.1384
 4298TIP3    H134385   5.731   3.402   1.624  2.8658 -0.4240 -0.6272
 4298TIP3    H234386   5.676   3.266   1.589 -0.0662  0.5631 -0.1689
 4299TIP3   OH234387   0.760   1.861  12.258  0.3662 -0.3595 -0.0174
 4299TIP3    H134388   0.692   1.919  12.224  1.0771 -0.2586 -1.3210
 4299TIP3    H234389   0.838   1.882  12.207  1.3203 -0.6821  1.2473
 4300TIP3   OH234390   1.893   4.882   2.860  0.2840 -0.0091 -0.6901
 4300TIP3    H134391   1.879   4.918   2.948  2.3514  0.9548 -0.6814
 4300TIP3    H234392   1.805   4.870   2.825 -0.6942 -2.0895  2.1101
 4301TIP3   OH234393   4.262   3.794  13.374 -0.4533 -0.1140  0.4197
 4301TIP3    H134394   4.314   3.730  13.423 -0.3235 -0.7112 -0.4798
 4301TIP3    H234395   4.226   3.852  13.441  0.6630 -0.2141  1.1254
 4302TIP3   OH234396   6.082   4.194   1.674  0.1043 -0.8665 -0.6719
 4302TIP3    H134397   6.125   4.268   1.631  0.5852 -0.2481  0.7945
 4302TIP3    H234398   6.103   4.205   1.767 -0.1551 -2.6317 -0.3696
 4303TIP3   OH234399   3.243   0.221   2.563  0.3514 -0.3271 -0.1119
 4303TIP3    H134400   3.212   0.262   2.482  0.7046 -2.9125 -1.6723
 4303TIP3    H234401   3.334   0.196   2.544  1.1105  0.6832  1.8283
 4304TIP3   OH234402   4.278   1.255   3.588 -0.0696 -0.4385 -0.4711
 4304TIP3    H134403   4.282   1.163   3.614  0.3562 -0.2513  0.1403
 4304TIP3    H234404   4.296   1.254   3.494  0.6205 -0.9167 -0.3436
 4305TIP3   OH234405   2.571   0.737   0.919 -0.5028 -0.0752  0.5795
 4305TIP3    H134406   2.559   0.663   0.860 -0.6582  0.4302 -0.0391
 4305TIP3    H234407   2.483   0.763   0.943 -0.4395 -0.2635  1.0206
 4306TIP3   OH234408   2.059   4.620   2.037 -0.6665  0.0319  0.6519
 4306TIP3    H134409   2.035   4.706   2.071 -1.7656 -0.2656  0.6937
 4306TIP3    H234410   2.049   4.627   1.942  1.6030  0.6258  0.4116
 4307TIP3   OH234411   2.451   0.237  14.843  0.3227 -0.6422  0.4024
 4307TIP3    H134412   2.545   0.253  14.835  0.6985 -2.1308  1.3745
 4307TIP3    H234413   2.432   0.174  14.772  0.2626 -1.0482  0.7723
 4308TIP3   OH234414   6.246   6.434   1.554 -0.1937  0.5692  0.1055
 4308TIP3    H134415   6.305   6.487   1.501  1.3654  1.0374  2.1719
 4308TIP3    H234416   6.169   6.490   1.567  0.6272  1.6225  0.6752
 4309TIP3   OH234417   3.716   4.167   3.893 -0.3904 -0.0340 -0.3598
 4309TIP3    H134418   3.688   4.126   3.975  0.8381  0.7009  0.4700
 4309TIP3    H234419   3.769   4.100   3.849 -0.9441 -0.3860 -0.4934
 4310TIP3   OH234420   1.686   0.314   0.564 -0.3409  0.5009  0.6171
 4310TIP3    H134421   1.659   0.401   0.535 -0.8065 -0.2424 -1.3746
 4310TIP3    H234422   1.771   0.327   0.605 -0.2118  1.8377 -0.0394
 4311TIP3   OH234423   6.514   2.204   4.805  0.0719 -0.6062  0.3153
 4311TIP3    H134424   6.561   2.260   4.867  0.6087 -1.6965  0.9130
 4311TIP3    H234425   6.569   2.206   4.726  0.5542 -1.0030  0.6388
 4312TIP3   OH234426   2.951   6.512   0.235 -0.1231  0.2576 -0.7078
 4312TIP3    H134427   2.992   6.596   0.254 -1.0761  0.2199  1.8805
 4312TIP3    H234428   2.988   6.452   0.299 -1.9023 -0.4785 -0.3161
 4313TIP3   OH234429   5.124   2.870   2.938 -0.4459 -0.0162 -0.0047
 4313TIP3    H134430   5.186   2.909   3.000  0.4294  0.6146 -1.2469
 4313TIP3    H234431   5.141   2.776   2.944 -1.1661 -0.0767  1.5253
 4314TIP3   OH234432   3.312   1.192   3.729  0.1066  0.1853  0.2462
 4314TIP3    H134433   3.238   1.230   3.682  0.1529 -0.9193 -0.7632
 4314TIP3    H234434   3.370   1.267   3.746 -1.3556  1.1090  1.3242
 4315TIP3   OH234435   6.436   0.613  10.546  0.4436 -0.6401  0.4217
 4315TIP3    H134436   6.345   0.633  10.526  0.5967 -0.8504 -0.5163
 4315TIP3    H234437   6.439   0.517  10.549  0.5622 -0.6266  0.8110
 4316TIP3   OH234438   0.541   4.432  12.466  0.2511  0.5716 -0.5420
 4316TIP3    H134439   0.609   4.383  12.512  1.2432  1.5673 -0.8931
 4316TIP3    H234440   0.504   4.370  12.404  1.0629  0.0930 -0.5594
 4317TIP3   OH234441   4.507   0.944   5.659 -0.1703  0.0629 -0.3182
 4317TIP3    H134442   4.586   0.911   5.703  1.3348  1.1778 -2.0664
 4317TIP3    H234443   4.513   0.909   5.570 -1.6150  0.2628 -0.5079
 4318TIP3   OH234444   4.568   3.293   2.621  0.0582  0.1250 -0.0729
 4318TIP3    H134445   4.557   3.246   2.703  1.6729 -0.9792 -0.4306
 4318TIP3    H234446   4.663   3.306   2.613 -0.0366  0.0714 -1.8020
 4319TIP3   OH234447   0.429   3.404   0.704  0.3014  0.4254  0.0130
 4319TIP3    H134448   0.353   3.441   0.661  0.0483  0.1878  0.2486
 4319TIP3    H234449   0.394   3.335   0.760  0.8168 -0.5998 -0.8828
 4320TIP3   OH234450   3.685   1.356  13.744  0.1135  0.2761 -1.1201
 4320TIP3    H134451   3.642   1.289  13.692  0.5013 -1.6525  0.8942
 4320TIP3    H234452   3.629   1.433  13.736 -2.3332 -1.3571 -0.6531
 4321TIP3   OH234453   1.586   3.391   4.019  0.7394  0.3329 -0.1318
 4321TIP3    H134454   1.508   3.368   3.969  0.4978 -0.1816  0.4796
 4321TIP3    H234455   1.655   3.336   3.981  1.2137  1.9595 -1.7984
 4322TIP3   OH234456   6.360   0.669   2.601 -0.6131 -0.1139  0.3470
 4322TIP3    H134457   6.289   0.732   2.605 -0.7355 -0.1444 -1.0350
 4322TIP3    H234458   6.440   0.722   2.608 -0.6576  0.4217 -2.2519
 4323TIP3   OH234459   0.930   2.571  10.423  0.1752 -0.3538  0.3141
 4323TIP3    H134460   0.883   2.644  10.383  0.6707 -0.3229 -0.2351
 4323TIP3    H234461   0.933   2.504  10.354  0.4569 -0.5626  0.5249
 4324TIP3   OH234462   1.808   3.886   1.384 -0.0320 -0.0812  0.1219
 4324TIP3    H134463   1.846   3.858   1.468 -1.7490  0.2818  1.0640
 4324TIP3    H234464   1.847   3.972   1.369  0.0320  0.0043  0.7322
 4325TIP3   OH234465   5.901   3.540  11.214 -0.1878 -0.3993  0.3270
 4325TIP3    H134466   5.823   3.521  11.162 -1.8718  0.0847  2.5447
 4325TIP3    H234467   5.911   3.464  11.271  1.2911 -0.6784 -0.2715
 4326TIP3   OH234468   3.777   4.485  16.429 -0.0693  0.0234 -0.0837
 4326TIP3    H134469   3.686   4.498  16.456 -0.7303  1.2562 -2.6219
 4326TIP3    H234470   3.829   4.525  16.500 -1.6370  2.1221 -0.0183
 4327TIP3   OH234471   5.102   3.828   0.896  0.1351 -0.0235  0.4287
 4327TIP3    H134472   5.008   3.829   0.876  0.2044  0.1805  0.1114
 4327TIP3    H234473   5.140   3.771   0.829  0.1576 -0.5809  0.9158
 4328TIP3   OH234474   3.170   1.064  13.341 -0.0391 -0.4603 -0.2006
 4328TIP3    H134475   3.145   1.093  13.254  0.3299 -1.3801 -0.6338
 4328TIP3    H234476   3.141   1.134  13.400  0.9166  0.8035 -1.1832
 4329TIP3   OH234477   2.862   2.445  14.985 -0.2943  0.0274 -0.0199
 4329TIP3    H134478   2.943   2.428  15.033  1.3271  0.9600 -2.2012
 4329TIP3    H234479   2.877   2.531  14.945 -1.5701 -0.6117 -1.9924
 4330TIP3   OH234480   4.610   0.714   0.405 -0.6166 -1.1125 -0.4739
 4330TIP3    H134481   4.581   0.652   0.472 -1.8229  0.8589  0.9346
 4330TIP3    H234482   4.541   0.781   0.403  1.6297  1.3677 -0.3226
 4331TIP3   OH234483   0.626   4.051   2.988 -0.4748 -0.1835 -0.2823
 4331TIP3    H134484   0.599   4.007   3.069  0.2393  0.7465  0.4871
 4331TIP3    H234485   0.716   4.023   2.974 -0.0654  0.8786  0.1308
 4332TIP3   OH234486   0.743   3.403  13.866 -0.0455  0.2180  1.4852
 4332TIP3    H134487   0.773   3.493  13.879  0.3788  0.3187  0.0466
 4332TIP3    H234488   0.819   3.357  13.831 -0.4479 -0.5401  1.5914
 4333TIP3   OH234489   4.777   2.693   1.897  0.3764 -0.3055 -0.4117
 4333TIP3    H134490   4.703   2.635   1.880  0.3526 -0.4302  0.0944
 4333TIP3    H234491   4.793   2.685   1.991  0.2332  0.6701 -0.2938
 4334TIP3   OH234492   5.669   1.974  11.423 -0.0702 -1.0666 -0.4149
 4334TIP3    H134493   5.665   1.923  11.504  1.4896 -0.5991 -0.0009
 4334TIP3    H234494   5.675   2.065  11.452 -2.5784 -0.6022 -1.1388
 4335TIP3   OH234495   2.620   0.623  13.596  0.1235  0.5209  0.5381
 4335TIP3    H134496   2.646   0.660  13.512 -0.6055  1.2430  0.6087
 4335TIP3    H234497   2.547   0.678  13.625 -0.0445 -0.0951  1.3504
 4336TIP3   OH234498   0.014   5.106   4.141  0.4193  0.2185 -0.1802
 4336TIP3    H134499  -0.002   5.146   4.226 -1.2833  0.0982 -0.4224
 4336TIP3    H234500  -0.035   5.024   4.143  2.9590 -1.4082 -0.1039
 4337TIP3   OH234501   3.604   3.616   2.869  0.0016 -0.1226 -0.1035
 4337TIP3    H134502   3.526   3.672   2.872 -1.9312 -2.6114 -0.0788
 4337TIP3    H234503   3.619   3.591   2.961  2.4469  2.2605  0.2518
 4338TIP3   OH234504   1.164   4.398  16.530 -0.0306  0.3538  0.4605
 4338TIP3    H134505   1.179   4.475  16.476  0.0400 -0.4912 -0.7747
 4338TIP3    H234506   1.213   4.328  16.486 -1.0847 -0.6648  0.8384
 4339TIP3   OH234507   2.870   2.847   2.368 -0.4024  0.2363  0.2037
 4339TIP3    H134508   2.836   2.825   2.281  0.2367 -0.7991  0.1993
 4339TIP3    H234509   2.930   2.920   2.353  0.0893 -0.2688 -0.2969
 4340TIP3   OH234510   0.965   6.532   2.180 -0.0419 -0.5632  0.0883
 4340TIP3    H134511   0.962   6.494   2.268 -0.8349 -0.4138  0.1372
 4340TIP3    H234512   1.014   6.469   2.128 -0.7693 -1.3431  0.3233
 4341TIP3   OH234513   6.156   5.084  12.359  0.1447 -0.4684  0.4310
 4341TIP3    H134514   6.108   5.074  12.277 -0.3790  0.8691  0.5420
 4341TIP3    H234515   6.114   5.159  12.402  1.4582 -0.1105  1.1638
 4342TIP3   OH234516   4.833   0.278   5.216 -0.4614 -0.4623  0.8310
 4342TIP3    H134517   4.812   0.371   5.217  3.4536  0.5749  1.8338
 4342TIP3    H234518   4.819   0.250   5.307 -3.0808 -1.3465  0.2323
 4343TIP3   OH234519   0.679   4.962  11.050  0.2552  0.7397  1.2097
 4343TIP3    H134520   0.649   4.876  11.020 -1.1307  1.7920 -0.6345
 4343TIP3    H234521   0.773   4.962  11.032 -0.1434  0.4959 -1.2863
 4344TIP3   OH234522   5.449   1.637   4.741  0.0927 -0.0679 -0.0733
 4344TIP3    H134523   5.437   1.552   4.782 -0.0181  0.6237  1.3831
 4344TIP3    H234524   5.457   1.618   4.648 -2.2848 -1.4843 -0.0683
 4345TIP3   OH234525   6.311   0.093   0.369 -0.0327  0.0691  0.8085
 4345TIP3    H134526   6.237   0.039   0.394  0.5479 -0.6574  0.9887
 4345TIP3    H234527   6.282   0.140   0.291 -1.0343  0.5693  1.4634
 4346TIP3   OH234528   5.918   5.958  13.575 -0.2352 -0.8047 -0.5638
 4346TIP3    H134529   5.940   6.051  13.575  0.2394 -0.8848  1.0714
 4346TIP3    H234530   5.825   5.955  13.552 -0.6139  0.1900  0.7300
 4347TIP3   OH234531   5.109   0.534  10.944 -0.0535  0.0238  0.4409
 4347TIP3    H134532   5.179   0.526  10.879 -0.2023  0.6972  0.1912
 4347TIP3    H234533   5.063   0.614  10.920 -0.4840 -0.0449  1.0198
 4348TIP3   OH234534   1.406   1.625   5.371 -0.0440 -0.0362  0.0432
 4348TIP3    H134535   1.332   1.680   5.344 -1.5545 -1.7801  0.4222
 4348TIP3    H234536   1.467   1.686   5.412  0.2047  1.9887 -2.9731
 4349TIP3   OH234537   2.776   0.766   3.428 -0.0541  0.2135  0.2609
 4349TIP3    H134538   2.786   0.671   3.427 -0.9949  0.0881  1.3031
 4349TIP3    H234539   2.864   0.799   3.447  0.4527 -0.3949 -0.9201
 4350TIP3   OH234540   2.801   5.712  15.343  0.5857 -0.1958  0.8523
 4350TIP3    H134541   2.869   5.779  15.338  0.3549  0.1159 -4.9558
 4350TIP3    H234542   2.849   5.629  15.346  1.0745  0.0996  1.2459
 4351TIP3   OH234543   5.815   3.970   5.140 -0.4360 -0.3947  0.4951
 4351TIP3    H134544   5.811   3.887   5.187 -0.6007 -0.5811  0.1562
 4351TIP3    H234545   5.734   4.015   5.165  0.4814  0.4583  2.1120
 4352TIP3   OH234546   1.547   0.708  15.169 -0.0778 -0.0038  0.0112
 4352TIP3    H134547   1.546   0.626  15.219  0.3564  0.1037  0.1910
 4352TIP3    H234548   1.475   0.697  15.106 -0.1958 -0.4122  0.2108
 4353TIP3   OH234549   4.606   6.526  13.189  0.4223 -0.6807  0.1917
 4353TIP3    H134550   4.524   6.490  13.156 -0.5171  1.8745 -0.5569
 4353TIP3    H234551   4.671   6.458  13.172 -0.7311 -1.0943 -3.4322
 4354TIP3   OH234552   3.081   6.242  14.592 -0.5291 -0.9138  0.6368
 4354TIP3    H134553   3.068   6.234  14.686 -0.5794  0.3673  0.7571
 4354TIP3    H234554   2.993   6.245  14.556 -0.5400  0.1014  0.7117
 4355TIP3   OH234555   1.833   6.858  15.677 -0.3175 -0.4019 -0.1295
 4355TIP3    H134556   1.785   6.922  15.729 -2.2652 -0.4442 -1.7351
 4355TIP3    H234557   1.925   6.884  15.686 -0.8437  1.2158  1.0950
 4356TIP3   OH234558   3.121   4.199  16.501 -0.1645  0.0687 -0.1741
 4356TIP3    H134559   3.034   4.233  16.481  0.6319  2.6762  0.5108
 4356TIP3    H234560   3.140   4.230  16.589  1.1926 -1.0917 -0.0147
 4357TIP3   OH234561   1.749   0.959  13.891 -0.1755 -0.1222  0.1024
 4357TIP3    H134562   1.784   1.022  13.954  0.2235 -1.6350  1.4869
 4357TIP3    H234563   1.660   0.988  13.874  0.1538  1.0596  0.3351
 4358TIP3   OH234564   6.590   2.373  15.134 -0.1929 -0.2715 -0.6100
 4358TIP3    H134565   6.624   2.299  15.185  0.1804  0.1867 -0.1868
 4358TIP3    H234566   6.500   2.385  15.166 -0.3213 -0.6668 -0.8208
 4359TIP3   OH234567   2.227   2.374  16.092  0.0474 -0.4543 -0.2430
 4359TIP3    H134568   2.225   2.282  16.118 -2.4456  0.3636  3.0711
 4359TIP3    H234569   2.314   2.405  16.118  0.7035 -1.6687 -0.8889
 4360TIP3   OH234570   2.154   5.093   9.668 -0.1899 -0.3822  0.3188
 4360TIP3    H134571   2.067   5.056   9.654 -0.1201 -0.6339  0.5418
 4360TIP3    H234572   2.200   5.027   9.719 -0.2404  0.2310  1.1869
 4361TIP3   OH234573   5.659   6.860   3.183  0.0844  0.3112  0.5806
 4361TIP3    H134574   5.620   6.831   3.101  1.3341 -1.7031  0.6385
 4361TIP3    H234575   5.750   6.878   3.162  0.0559  1.2617  1.2266
 4362TIP3   OH234576   2.355   6.871   0.646 -0.2793 -0.4786 -0.1477
 4362TIP3    H134577   2.338   6.814   0.571  1.3467 -0.3804 -0.6302
 4362TIP3    H234578   2.450   6.865   0.660 -0.0214  2.2190 -0.3168
 4363TIP3   OH234579   1.337   4.705  13.179  0.1529 -0.3114  0.0858
 4363TIP3    H134580   1.377   4.660  13.104 -0.7643 -0.7550 -0.1447
 4363TIP3    H234581   1.410   4.718  13.240  0.8876 -0.0566 -0.8201
 4364TIP3   OH234582   5.301   6.645  16.250 -0.0204  0.2838  0.0271
 4364TIP3    H134583   5.296   6.620  16.342  0.3625  0.0305 -0.0175
 4364TIP3    H234584   5.334   6.566  16.206 -1.4335 -0.0417 -0.5196
 4365TIP3   OH234585   5.803   4.590  11.391  0.1645  0.1850 -0.1363
 4365TIP3    H134586   5.775   4.620  11.477 -1.4305 -0.0267 -0.5564
 4365TIP3    H234587   5.847   4.665  11.352  1.7251  0.0177  1.1723
 4366TIP3   OH234588   1.153   2.614   6.004  0.0607  0.1691 -0.5443
 4366TIP3    H134589   1.218   2.666   6.051  0.0193 -0.1270 -0.1540
 4366TIP3    H234590   1.177   2.523   6.024 -0.3400  0.0564 -0.5816
 4367TIP3   OH234591   0.878   0.602   2.560  0.2302 -0.1744 -0.2147
 4367TIP3    H134592   0.901   0.512   2.536  0.1093 -0.4178  0.5515
 4367TIP3    H234593   0.956   0.635   2.606 -0.2265 -0.3700  0.7330
 4368TIP3   OH234594   5.406   0.871  12.558 -0.5212  0.1940 -0.4382
 4368TIP3    H134595   5.431   0.926  12.484  0.6581  0.8923  0.4415
 4368TIP3    H234596   5.460   0.902  12.630 -2.0030 -0.1113  0.8740
 4369TIP3   OH234597   2.736   6.780   3.448 -0.3610  0.4369 -0.7156
 4369TIP3    H134598   2.828   6.752   3.454 -0.1227  1.3525  0.2491
 4369TIP3    H234599   2.704   6.772   3.538 -1.1066  0.5425 -0.9722
 4370TIP3   OH234600   3.701   1.780  16.136  0.2535  0.2780 -0.1870
 4370TIP3    H134601   3.675   1.692  16.164  1.5767 -0.4433 -1.0736
 4370TIP3    H234602   3.778   1.800  16.189  0.2963  0.6567 -0.3869
 4371TIP3   OH234603   0.921   0.590  16.447 -0.2647 -0.2092  0.1068
 4371TIP3    H134604   0.876   0.591  16.363  1.5714 -0.2534 -0.9262
 4371TIP3    H234605   1.008   0.625  16.428  0.1252 -0.0031  2.0441
 4372TIP3   OH234606   0.055   2.333   3.816 -0.1147 -0.0117 -0.2917
 4372TIP3    H134607   0.061   2.299   3.905 -2.4436  0.3172  0.0326
 4372TIP3    H234608  -0.023   2.293   3.779 -0.4556  1.5707 -1.4165
 4373TIP3   OH234609   2.373   5.532  14.730 -0.6687  0.4916 -0.4431
 4373TIP3    H134610   2.421   5.599  14.779 -0.1130  0.2023 -0.5881
 4373TIP3    H234611   2.380   5.453  14.783 -1.4037  0.5636 -0.2257
 4374TIP3   OH234612   5.066   2.991  16.220  0.4662  0.6264 -0.5101
 4374TIP3    H134613   5.113   2.910  16.198  0.2471  0.5742 -0.7911
 4374TIP3    H234614   5.131   3.044  16.266  0.3189 -0.1290  0.6233
 4375TIP3   OH234615   3.137   3.014   5.760 -0.6195  0.2483  0.6858
 4375TIP3    H134616   3.059   3.020   5.705  0.5549  1.7487 -0.9442
 4375TIP3    H234617   3.173   3.103   5.759  2.1684 -0.7754 -0.3049
 4376TIP3   OH234618   4.635   3.988   4.929  1.1967 -0.3703 -0.0040
 4376TIP3    H134619   4.701   3.939   4.881  0.7939 -0.3631 -0.5782
 4376TIP3    H234620   4.610   4.060   4.871 -0.0518 -0.9646 -0.2476
 4377TIP3   OH234621   2.195   0.858   5.841  0.4746 -0.1803  0.5475
 4377TIP3    H134622   2.272   0.839   5.895  1.7547  1.7057 -0.4892
 4377TIP3    H234623   2.165   0.944   5.872  1.3531  1.0465 -1.7346
 4378TIP3   OH234624   4.520   0.109   1.967 -0.9511 -0.4919 -0.3806
 4378TIP3    H134625   4.431   0.074   1.972 -0.5858 -1.5241 -0.7029
 4378TIP3    H234626   4.541   0.136   2.056 -1.3910 -0.7799 -0.1870
 4379TIP3   OH234627   5.961   5.797  16.864 -0.1677  0.4261 -0.2317
 4379TIP3    H134628   6.019   5.867  16.896  0.7620  0.5030 -1.9586
 4379TIP3    H234629   5.988   5.783  16.773 -0.8241 -1.7070 -0.1480
 4380TIP3   OH234630   5.784   6.495  12.220  0.8768 -0.0031 -0.1016
 4380TIP3    H134631   5.754   6.561  12.282  1.7056  0.2954 -0.0007
 4380TIP3    H234632   5.806   6.545  12.141 -0.1251 -0.3732 -0.6351
 4381TIP3   OH234633   5.464   1.372   1.646  0.0851 -0.1149 -0.6445
 4381TIP3    H134634   5.558   1.383   1.634 -0.0780 -0.5657 -2.8565
 4381TIP3    H234635   5.454   1.280   1.671  0.2369 -0.0021 -0.1603
 4382TIP3   OH234636   3.096   3.281  12.105 -0.0480  0.4248 -0.4452
 4382TIP3    H134637   3.033   3.243  12.044  0.1446  0.9237 -0.9691
 4382TIP3    H234638   3.176   3.290  12.054  0.7756 -1.1243  0.4881
 4383TIP3   OH234639   1.731   2.475  15.568  0.8500 -0.5203 -0.0658
 4383TIP3    H134640   1.731   2.565  15.536 -0.2607 -0.7595 -0.7999
 4383TIP3    H234641   1.809   2.435  15.530  1.1542  0.0351 -0.0241
 4384TIP3   OH234642   6.784   5.890  15.304 -0.0922  0.0395  0.5655
 4384TIP3    H134643   6.741   5.810  15.332 -0.6435  0.4203  0.8277
 4384TIP3    H234644   6.811   5.933  15.385  0.3134  0.0657  0.4223
 4385TIP3   OH234645   4.723   3.623  11.877 -0.2492  0.0682  0.3842
 4385TIP3    H134646   4.648   3.678  11.898 -0.5272  0.2263 -0.9223
 4385TIP3    H234647   4.798   3.683  11.876 -0.3500  0.1936  0.2385
 4386TIP3   OH234648   5.810   3.185   2.595  0.5510  0.7367  0.0250
 4386TIP3    H134649   5.727   3.167   2.639  0.9454 -0.3164  0.3723
 4386TIP3    H234650   5.794   3.165   2.503  1.0102 -1.7796  0.4092
 4387TIP3   OH234651   1.293   1.275   1.561 -0.0605 -1.1875  0.2938
 4387TIP3    H134652   1.358   1.207   1.548 -0.8030 -1.7509 -0.6153
 4387TIP3    H234653   1.273   1.307   1.473 -0.9695 -0.9931  0.5573
 4388TIP3   OH234654   1.075   4.737  11.191 -0.1075  0.2839  0.1378
 4388TIP3    H134655   0.993   4.740  11.239 -0.2884 -0.9312 -0.0510
 4388TIP3    H234656   1.092   4.643  11.179  1.0741  0.5240 -0.2116
 4389TIP3   OH234657   2.503   6.491   1.690 -0.2352 -0.5663 -0.3967
 4389TIP3    H134658   2.471   6.472   1.602  1.2798 -2.0016 -0.6898
 4389TIP3    H234659   2.438   6.451   1.749 -2.0297  1.6189 -0.7297
 4390TIP3   OH234660   2.616   2.748   3.355 -0.4953 -0.0536  0.2230
 4390TIP3    H134661   2.627   2.711   3.267 -1.0497  0.1926  0.0429
 4390TIP3    H234662   2.621   2.843   3.342  1.3173 -0.0414  0.7395
 4391TIP3   OH234663   3.921   0.857  15.206 -0.1378  0.3832 -0.2604
 4391TIP3    H134664   3.907   0.812  15.123  0.3677 -1.4764  0.6041
 4391TIP3    H234665   3.862   0.932  15.203 -0.3694  0.1754 -2.1446
 4392TIP3   OH234666   0.460   4.024   4.243  0.3766  0.0512  0.2625
 4392TIP3    H134667   0.415   4.026   4.327  1.2877 -0.0781  0.7741
 4392TIP3    H234668   0.449   4.112   4.208 -0.7660 -0.1523  0.0988
 4393TIP3   OH234669   5.283   2.410  11.537  0.5636 -0.4111 -0.5803
 4393TIP3    H134670   5.247   2.347  11.475  1.0077  0.0986 -1.3856
 4393TIP3    H234671   5.367   2.436  11.498 -0.5527  2.3213 -1.4408
 4394TIP3   OH234672   1.537   3.490   1.464  0.2067 -0.3023  0.0788
 4394TIP3    H134673   1.548   3.409   1.415  2.0096 -0.2723  0.3550
 4394TIP3    H234674   1.601   3.550   1.426 -0.5891  0.7771  0.3693
 4395TIP3   OH234675   6.398   2.231  12.873  0.3343 -0.5930  0.0506
 4395TIP3    H134676   6.418   2.151  12.824  1.3541 -1.2359  1.4531
 4395TIP3    H234677   6.378   2.200  12.962 -3.9276  0.2717 -0.3969
 4396TIP3   OH234678   3.358   5.813   2.338  0.4601  0.9486 -0.2895
 4396TIP3    H134679   3.391   5.723   2.337  0.2025  0.8619 -0.7504
 4396TIP3    H234680   3.430   5.863   2.377 -0.3964  0.1575  2.5550
 4397TIP3   OH234681   4.429   0.837   2.447 -0.4090  0.3021 -0.2375
 4397TIP3    H134682   4.431   0.849   2.542 -1.5010 -0.4212 -0.0921
 4397TIP3    H234683   4.497   0.894   2.413 -0.2744  0.8713  0.9563
 4398TIP3   OH234684   6.477   5.406   5.966 -1.0265 -0.3206  0.2905
 4398TIP3    H134685   6.495   5.499   5.953  0.7290 -0.7990 -0.9876
 4398TIP3    H234686   6.460   5.399   6.060 -1.3761  1.2945  0.3923
 4399TIP3   OH234687   5.569   0.219  16.019  0.4938  0.1280  0.0106
 4399TIP3    H134688   5.497   0.163  16.048  1.4673  0.4680  3.6130
 4399TIP3    H234689   5.632   0.160  15.979  0.2372 -0.9534  1.1427
 4400TIP3   OH234690   6.853   0.867   1.806  0.4427 -0.3481  0.0289
 4400TIP3    H134691   6.883   0.890   1.718  1.4184 -1.8707 -0.0680
 4400TIP3    H234692   6.917   0.803   1.837  0.3109  0.4017  1.9928
 4401TIP3   OH234693   3.141   4.018   3.942 -0.3846 -0.1924 -0.0109
 4401TIP3    H134694   3.125   4.111   3.922 -0.5299  0.0973  1.3518
 4401TIP3    H234695   3.078   3.998   4.011  0.3862 -1.0100  0.4601
 4402TIP3   OH234696   4.379   2.111   5.783  0.3285  0.2153  0.1489
 4402TIP3    H134697   4.296   2.064   5.790  0.9111 -0.8636 -0.0087
 4402TIP3    H234698   4.395   2.118   5.689  1.1453 -0.9196  0.1896
 4403TIP3   OH234699   1.517   4.416   0.232  0.1515  0.6104  0.7873
 4403TIP3    H134700   1.548   4.328   0.208  2.2686  1.2133  1.0569
 4403TIP3    H234701   1.487   4.406   0.322 -0.0721  0.0568  0.6557
 4404TIP3   OH234702   3.256   5.040   2.209 -0.1125  0.2013  0.1570
 4404TIP3    H134703   3.256   5.041   2.113 -1.1961 -1.2213  0.1166
 4404TIP3    H234704   3.193   5.109   2.233  0.1059  0.5121 -0.1447
 4405TIP3   OH234705   1.463   4.761   4.885 -0.7282  0.0920 -0.9202
 4405TIP3    H134706   1.460   4.706   4.963  0.5300 -0.8285 -1.4854
 4405TIP3    H234707   1.372   4.786   4.869 -0.9800  0.4984  0.9581
 4406TIP3   OH234708   6.075   0.470   3.447  0.7758  0.3044 -0.4725
 4406TIP3    H134709   6.015   0.396   3.442 -1.1790  1.8481 -0.7902
 4406TIP3    H234710   6.021   0.547   3.431  2.4773  1.9508  1.1018
 4407TIP3   OH234711   3.060   0.196   4.847 -0.0007 -0.0466 -0.0966
 4407TIP3    H134712   3.013   0.115   4.862 -0.9871  0.2267 -1.5175
 4407TIP3    H234713   3.006   0.264   4.887 -0.0201  0.0934 -0.3561
 4408TIP3   OH234714   3.149   2.073   4.859 -0.3213 -0.0631  0.3806
 4408TIP3    H134715   3.213   2.082   4.789  0.3119 -0.4814  0.9031
 4408TIP3    H234716   3.194   2.103   4.938 -0.5283 -0.9908  0.8691
 4409TIP3   OH234717   0.243   2.692   1.011 -0.2792 -0.0627 -0.0577
 4409TIP3    H134718   0.229   2.747   1.088 -0.5616 -1.5075  0.9653
 4409TIP3    H234719   0.229   2.751   0.936 -0.9634  1.1387  0.9790
 4410TIP3   OH234720   0.050   3.183  15.548 -0.0522  0.0132 -0.2845
 4410TIP3    H134721  -0.000   3.231  15.614  1.4993  1.1037  0.1734
 4410TIP3    H234722  -0.016   3.150  15.486 -1.4344 -0.0421  1.1663
 4411TIP3   OH234723   2.018   4.847  10.181  0.2136 -0.3793 -0.2955
 4411TIP3    H134724   1.998   4.776  10.243 -0.3303 -0.4351 -0.5370
 4411TIP3    H234725   2.062   4.803  10.108  1.0927 -0.2780  0.1577
 4412TIP3   OH234726   5.360   3.703  12.617 -0.5887  0.2759  0.2079
 4412TIP3    H134727   5.393   3.738  12.534 -0.6202  2.2104  0.9757
 4412TIP3    H234728   5.291   3.641  12.590  0.7116 -0.6142 -1.2486
 4413TIP3   OH234729   4.272   3.696   1.109  0.2448  0.2170  0.4235
 4413TIP3    H134730   4.275   3.623   1.170 -0.5129  0.5341  0.8489
 4413TIP3    H234731   4.358   3.696   1.068 -0.3341 -2.1076 -0.9980
 4414TIP3   OH234732   1.835   1.062   5.088  0.1856 -0.4885  0.2439
 4414TIP3    H134733   1.761   1.098   5.039  0.0119 -0.7772  0.2884
 4414TIP3    H234734   1.800   0.982   5.128  0.3488 -0.3013  0.7686
 4415TIP3   OH234735   0.399   1.382   1.188 -0.2378  0.0505 -0.0730
 4415TIP3    H134736   0.340   1.357   1.259  0.6080  0.0503  0.6424
 4415TIP3    H234737   0.459   1.445   1.228  0.2862 -0.0011 -0.7663
 4416TIP3   OH234738   4.284   4.195  12.933 -0.2503 -0.3223  0.2642
 4416TIP3    H134739   4.202   4.146  12.940 -1.1355  1.0467 -0.0815
 4416TIP3    H234740   4.340   4.157  13.001 -1.5144 -0.6342  1.1788
 4417TIP3   OH234741   4.255   0.588   1.665 -0.2355 -0.0527  0.2478
 4417TIP3    H134742   4.313   0.528   1.712  0.4787  0.6639  0.3120
 4417TIP3    H234743   4.315   0.649   1.622 -0.9532  0.8538  0.5158
 4418TIP3   OH234744   2.367   6.665   2.582  0.2467  0.0330 -0.4426
 4418TIP3    H134745   2.385   6.724   2.655 -1.9444  0.9253 -0.5303
 4418TIP3    H234746   2.376   6.719   2.504 -0.7483  0.0020 -0.5928
 4419TIP3   OH234747   2.569   3.076  10.532  0.0466  0.1107 -0.5077
 4419TIP3    H134748   2.539   3.088  10.442 -1.7177 -0.2228 -0.0039
 4419TIP3    H234749   2.495   3.036  10.577  0.6743  0.8043  1.2425
 4420TIP3   OH234750   0.765   6.878  15.291  0.5500 -0.3473 -0.3630
 4420TIP3    H134751   0.725   6.882  15.204  1.0784  0.2298 -0.5806
 4420TIP3    H234752   0.753   6.787  15.318  0.2744 -0.5030 -0.9845
 4421TIP3   OH234753   1.449   1.401   0.528 -0.1867 -0.3633  0.3397
 4421TIP3    H134754   1.430   1.472   0.589  3.2251 -0.7069  2.0460
 4421TIP3    H234755   1.454   1.323   0.584  0.7710 -1.0889 -0.7249
 4422TIP3   OH234756   0.051   3.094  16.142  0.6440  0.5102 -0.1783
 4422TIP3    H134757   0.140   3.062  16.156  0.5425  0.7403  1.0891
 4422TIP3    H234758   0.062   3.183  16.109  0.8819 -0.0084 -1.6057
 4423TIP3   OH234759   5.892   5.268  11.283 -0.1350  0.4703 -0.0618
 4423TIP3    H134760   5.980   5.232  11.289  0.5225  2.1624  1.3303
 4423TIP3    H234761   5.905   5.363  11.282 -1.9247  0.7528  0.0515
 4424TIP3   OH234762   6.161   3.798   0.414  0.2242 -0.3144  0.5500
 4424TIP3    H134763   6.099   3.737   0.452  0.3578 -1.2915 -0.7290
 4424TIP3    H234764   6.242   3.785   0.463 -0.4535  0.7411  2.0156
 4425TIP3   OH234765   6.419   2.502   1.493  0.7241  0.5202 -0.8074
 4425TIP3    H134766   6.380   2.452   1.421  0.5175  0.9258 -0.9814
 4425TIP3    H234767   6.353   2.501   1.562  0.8583  0.2674 -0.6787
 4426TIP3   OH234768   5.196   5.017  15.778  0.0827  0.3313 -0.0535
 4426TIP3    H134769   5.132   5.032  15.848  1.7721 -0.4483  1.7369
 4426TIP3    H234770   5.149   4.962  15.715 -1.1340  0.0658  1.0226
 4427TIP3   OH234771   4.258   3.174   1.865  0.2214 -0.3071 -0.7087
 4427TIP3    H134772   4.320   3.247   1.873 -0.1052 -0.0169 -0.7938
 4427TIP3    H234773   4.310   3.102   1.829  0.8424 -0.5049  0.5300
 4428TIP3   OH234774   0.707   3.480   2.488  0.4395  0.0903 -0.3160
 4428TIP3    H134775   0.623   3.438   2.469  0.8929 -0.6378 -0.8059
 4428TIP3    H234776   0.685   3.570   2.511 -0.5448 -0.3380  0.4724
 4429TIP3   OH234777   1.976   5.506   0.301 -0.1597 -0.3503 -0.5702
 4429TIP3    H134778   1.929   5.431   0.265  1.2905 -0.5043 -2.2719
 4429TIP3    H234779   1.998   5.480   0.391 -1.9198 -0.8669 -0.2418
 4430TIP3   OH234780   2.057   6.331  10.612  0.5724 -0.0965  0.2899
 4430TIP3    H134781   2.021   6.271  10.678  2.6397 -2.1563 -0.3147
 4430TIP3    H234782   1.992   6.331  10.542  0.0328 -0.7699  0.7759
 4431TIP3   OH234783   1.109   3.947  15.708 -0.0364  0.2376  0.3302
 4431TIP3    H134784   1.088   3.911  15.621  0.7053  0.1965  0.1624
 4431TIP3    H234785   1.032   3.927  15.761 -0.6310  0.5515 -0.4055
 4432TIP3   OH234786   4.648   6.552  12.485 -0.1359 -0.9085 -0.0562
 4432TIP3    H134787   4.633   6.540  12.391  0.5681  1.1382 -0.4923
 4432TIP3    H234788   4.599   6.631  12.507 -0.7249 -1.6544  1.4584
 4433TIP3   OH234789   0.829   6.005   0.661  0.4613  0.0397 -0.3383
 4433TIP3    H134790   0.801   5.914   0.660 -0.7375  0.3911 -0.0876
 4433TIP3    H234791   0.750   6.055   0.641  0.8266  1.0864  0.7012
 4434TIP3   OH234792   4.534   0.417  15.730  0.1433 -0.2155  0.4168
 4434TIP3    H134793   4.571   0.412  15.641  1.1803 -1.4510  0.8931
 4434TIP3    H234794   4.602   0.380  15.786 -0.1092  1.3986  1.8612
 4435TIP3   OH234795   6.546   0.194  12.961  0.9596 -0.4029 -0.1320
 4435TIP3    H134796   6.460   0.157  12.981  0.3204  0.5404 -1.0899
 4435TIP3    H234797   6.607   0.121  12.976  0.1421 -0.7833  1.6119
 4436TIP3   OH234798   1.670   0.048  15.058  0.3095  0.0607 -0.2520
 4436TIP3    H134799   1.721   0.111  15.108  0.4116 -0.7217  0.6633
 4436TIP3    H234800   1.612   0.008  15.123 -0.4929 -0.0420 -1.0171
 4437TIP3   OH234801   2.794   0.985  12.516 -0.0749  0.4300 -0.3637
 4437TIP3    H134802   2.780   1.031  12.433  0.6751  1.1667 -0.1018
 4437TIP3    H234803   2.769   1.049  12.583  1.8101  0.8342  0.0370
 4438TIP3   OH234804   4.824   6.874  16.452 -0.4095  0.0171  0.0079
 4438TIP3    H134805   4.752   6.831  16.498 -0.8693 -0.5464 -1.2002
 4438TIP3    H234806   4.901   6.821  16.471 -0.4724  0.1488  0.6319
 4439TIP3   OH234807   1.282   0.336  15.469  0.1990  1.0582  0.1056
 4439TIP3    H134808   1.299   0.370  15.557  1.4694  0.1871  0.2266
 4439TIP3    H234809   1.289   0.241  15.478  1.0887  0.9862 -1.0663
 4440TIP3   OH234810   0.110   2.353  11.012  0.0448  0.6115  0.5960
 4440TIP3    H134811   0.144   2.348  10.923 -3.4016  2.3160 -0.9986
 4440TIP3    H234812   0.039   2.290  11.015 -0.8045  1.5662  1.6705
 4441TIP3   OH234813   0.692   4.201  10.941  0.3108  0.0976  0.0712
 4441TIP3    H134814   0.645   4.145  10.879  1.1572 -0.0300 -0.4736
 4441TIP3    H234815   0.708   4.282  10.893 -1.2286  0.9873  0.9781
 4442TIP3   OH234816   1.932   2.810   4.785 -0.0480 -0.2873  0.3728
 4442TIP3    H134817   1.881   2.821   4.865  0.4613  1.7948  0.4708
 4442TIP3    H234818   2.020   2.787   4.815 -0.1055 -0.5493  0.3475
 4443TIP3   OH234819   1.380   6.881   0.841  0.2592  0.5131 -0.1459
 4443TIP3    H134820   1.400   6.892   0.934  1.1532 -2.3557  0.1109
 4443TIP3    H234821   1.427   6.951   0.797 -0.0702  1.8477  1.5281
 4444TIP3   OH234822   5.340   0.208   0.816 -0.2310  0.0427  0.0046
 4444TIP3    H134823   5.301   0.156   0.745 -1.2079  0.5392  0.1610
 4444TIP3    H234824   5.364   0.144   0.882  0.7668 -0.4387 -0.7995
 4445TIP3   OH234825   3.913   5.618   2.939  0.3449 -0.4056  0.0198
 4445TIP3    H134826   3.976   5.548   2.921  1.3849  0.6790 -0.6672
 4445TIP3    H234827   3.967   5.695   2.954 -0.8352  0.8859 -1.9989
 4446TIP3   OH234828   3.757   4.199  12.833 -0.2263 -0.2200 -0.5969
 4446TIP3    H134829   3.737   4.142  12.907  0.4605 -0.5050 -0.6197
 4446TIP3    H234830   3.796   4.141  12.768  1.1977  0.3875 -0.3272
 4447TIP3   OH234831   1.941   1.355   6.400 -0.5413 -0.7670 -0.2633
 4447TIP3    H134832   1.880   1.285   6.376  0.1011 -2.0398  1.6020
 4447TIP3    H234833   1.892   1.410   6.461 -0.3546 -0.8520 -0.0348
 4448TIP3   OH234834   1.516   1.916   2.138 -0.1785  0.1621  0.3171
 4448TIP3    H134835   1.565   1.948   2.214 -0.6775 -0.1318  0.7788
 4448TIP3    H234836   1.557   1.957   2.063 -0.4325  1.4137  0.8409
 4449TIP3   OH234837   2.497   3.620   4.601 -0.0810 -0.1849 -0.2216
 4449TIP3    H134838   2.590   3.625   4.579 -0.1033  1.1059 -0.0998
 4449TIP3    H234839   2.477   3.527   4.598  0.9094 -0.3841 -1.4947
 4450TIP3   OH234840   0.271   3.563  12.736  0.4574 -0.6542  0.4490
 4450TIP3    H134841   0.329   3.639  12.723  0.9609 -0.9790  0.7442
 4450TIP3    H234842   0.189   3.601  12.768  0.8631 -0.2632  1.0570
 4451TIP3   OH234843   5.749   1.726  14.353  0.1413  0.4746 -0.0317
 4451TIP3    H134844   5.723   1.768  14.270 -1.2666  0.5359  0.4070
 4451TIP3    H234845   5.825   1.775  14.382  1.4111 -0.3131 -1.8810
 4452TIP3   OH234846   5.192   5.321   0.641 -0.2521  0.4188 -0.2488
 4452TIP3    H134847   5.259   5.287   0.701 -1.2301 -0.1569  0.5350
 4452TIP3    H234848   5.212   5.414   0.633 -0.9685  0.8285  2.1615
 4453TIP3   OH234849   3.608   6.821  13.003 -0.2356  0.4689  0.0173
 4453TIP3    H134850   3.568   6.907  12.983  2.6448  1.5376 -1.7629
 4453TIP3    H234851   3.702   6.835  12.991  0.6376 -2.2647  2.5453
 4454TIP3   OH234852   1.125   6.025   4.659 -0.1303  0.2506 -0.3374
 4454TIP3    H134853   1.115   6.007   4.753 -0.0126  0.8360 -0.2089
 4454TIP3    H234854   1.067   6.099   4.642  0.6205  0.8293 -0.4980
 4455TIP3   OH234855   6.781   2.081  10.378  0.0316 -0.4036 -0.1343
 4455TIP3    H134856   6.820   2.166  10.360 -0.9376  0.1242  0.1559
 4455TIP3    H234857   6.772   2.039  10.293  2.0178 -0.9252 -0.1342
 4456TIP3   OH234858   3.889   1.904  14.459  0.3787 -0.8367  0.7768
 4456TIP3    H134859   3.962   1.852  14.426  0.2994 -0.3913 -0.1477
 4456TIP3    H234860   3.817   1.886  14.398  0.7264  1.3349 -0.4171
 4457TIP3   OH234861   6.616   5.817   1.849 -0.2696  0.4961  0.5328
 4457TIP3    H134862   6.573   5.742   1.891 -0.7280  0.7275  0.4879
 4457TIP3    H234863   6.596   5.891   1.906 -0.2714  0.6806  0.2945
 4458TIP3   OH234864   5.028   2.309  15.197  0.1745 -0.1169 -0.7391
 4458TIP3    H134865   5.108   2.336  15.243 -0.9192  0.2490  1.0583
 4458TIP3    H234866   5.028   2.213  15.205 -0.0205 -0.0591  0.1191
 4459TIP3   OH234867   4.214   4.920   2.492 -0.2253 -0.0596 -0.0578
 4459TIP3    H134868   4.243   4.930   2.582 -0.2509 -1.6624  0.1426
 4459TIP3    H234869   4.283   4.961   2.440  0.0782  0.3398  0.6526
 4460TIP3   OH234870   0.380   0.113  12.686 -0.4567  0.2708 -0.6632
 4460TIP3    H134871   0.402   0.167  12.610 -0.4243 -0.1187 -0.9324
 4460TIP3    H234872   0.447   0.045  12.687 -0.1349  0.5928  0.0407
 4461TIP3   OH234873   1.032   0.580   0.144  0.4758  0.2851  0.4636
 4461TIP3    H134874   1.013   0.564   0.236 -0.3120 -2.3455 -0.0735
 4461TIP3    H234875   1.014   0.497   0.100  1.5734  1.2149 -1.9752
 4462TIP3   OH234876   3.797   2.137   4.971 -0.2946  0.0383 -0.0259
 4462TIP3    H134877   3.742   2.215   4.976  0.5676  0.6147  0.7377
 4462TIP3    H234878   3.882   2.169   4.942  0.4179 -0.4099  1.4706
 4463TIP3   OH234879   0.658   2.471   5.416 -0.1556 -0.3178 -0.5363
 4463TIP3    H134880   0.573   2.514   5.415  0.0285  0.0555 -0.4437
 4463TIP3    H234881   0.702   2.501   5.336 -0.0245 -0.3261 -0.4691
 4464TIP3   OH234882   5.947   6.280  14.093 -0.4085  0.5779 -0.0750
 4464TIP3    H134883   5.863   6.306  14.132 -2.6304 -2.3942 -2.3963
 4464TIP3    H234884   6.000   6.255  14.169 -2.1217  1.2049  1.4345
 4465TIP3   OH234885   1.164   6.028  15.625 -0.4035 -0.5866  0.1206
 4465TIP3    H134886   1.109   6.053  15.699  1.1224 -0.1041  1.1517
 4465TIP3    H234887   1.186   6.110  15.582 -2.6854 -0.9720 -2.0144
 4466TIP3   OH234888   1.266   5.197   5.271 -0.2509 -0.1178  0.1948
 4466TIP3    H134889   1.325   5.267   5.242 -0.8322  0.8911  1.3222
 4466TIP3    H234890   1.213   5.177   5.194  0.1719  0.4256 -0.2517
 4467TIP3   OH234891   2.660   2.436  13.654  0.2884  0.3289 -0.3186
 4467TIP3    H134892   2.745   2.404  13.625  0.3710 -0.0022  0.2735
 4467TIP3    H234893   2.649   2.520  13.610  1.3833  0.8797  0.4119
 4468TIP3   OH234894   3.240   4.529   4.263  0.2274  0.2687 -0.3700
 4468TIP3    H134895   3.264   4.587   4.191  0.6480  0.1035 -0.3619
 4468TIP3    H234896   3.149   4.553   4.284 -0.3069 -0.4599 -1.7162
 4469TIP3   OH234897   1.736   2.689  13.478 -0.0457  0.2708 -0.2182
 4469TIP3    H134898   1.796   2.615  13.464 -0.0620  0.5560 -2.0226
 4469TIP3    H234899   1.708   2.679  13.569  1.0502 -1.1232  0.0202
 4470TIP3   OH234900   5.233   1.278  14.764 -0.2532 -0.1642  0.0513
 4470TIP3    H134901   5.202   1.298  14.853 -1.2030  0.5422 -0.4121
 4470TIP3    H234902   5.207   1.187  14.749  0.3679 -0.4525  0.6747
 4471TIP3   OH234903   2.141   0.328   3.715 -0.3032  0.0540 -0.2240
 4471TIP3    H134904   2.144   0.382   3.636  0.4782  0.2519 -0.0623
 4471TIP3    H234905   2.228   0.290   3.721 -0.7925 -1.1155 -0.2509
 4472TIP3   OH234906   0.159   6.538  12.719 -0.7571  0.1033  0.1246
 4472TIP3    H134907   0.249   6.518  12.692 -0.1758  1.3337  1.0489
 4472TIP3    H234908   0.146   6.629  12.691 -1.4802  0.1462  0.5891
 4473TIP3   OH234909   5.235   5.200  12.834 -0.3049  0.4912 -0.3543
 4473TIP3    H134910   5.315   5.195  12.886 -0.4772 -0.9968 -0.1826
 4473TIP3    H234911   5.184   5.123  12.861 -1.2759  0.7734 -1.2983
 4474TIP3   OH234912   4.665   1.514  11.406  0.4034  0.2783 -0.3304
 4474TIP3    H134913   4.647   1.556  11.322  0.5793  0.3386 -0.3386
 4474TIP3    H234914   4.609   1.436  11.407  0.0928  0.5027 -0.3239
 4475TIP3   OH234915   1.452   3.733   5.793 -0.2801 -0.3163 -0.1753
 4475TIP3    H134916   1.402   3.807   5.825  0.2734  0.3285 -0.7567
 4475TIP3    H234917   1.544   3.760   5.802 -0.0719 -0.9223 -0.4015
 4476TIP3   OH234918   6.565   3.593   3.096 -0.1628 -0.7168  0.0088
 4476TIP3    H134919   6.585   3.571   3.005 -0.8725  2.1527 -0.9296
 4476TIP3    H234920   6.470   3.609   3.097  0.0753  0.8532  0.8417
 4477TIP3   OH234921   6.257   6.884   2.353 -0.0802 -0.7972 -0.1784
 4477TIP3    H134922   6.281   6.892   2.260  0.4565 -1.3843 -0.0969
 4477TIP3    H234923   6.325   6.934   2.399 -0.0597 -0.9267 -0.0681
 4478TIP3   OH234924   5.203   3.168   4.668  0.4037  0.1526  0.4481
 4478TIP3    H134925   5.197   3.236   4.736 -0.5442  1.0861 -0.5150
 4478TIP3    H234926   5.125   3.115   4.681  0.1520  0.4120  0.0249
 4479TIP3   OH234927   3.285   5.462  12.231 -0.2073  0.2069  0.1142
 4479TIP3    H134928   3.286   5.474  12.325 -1.1051  0.2267  0.1280
 4479TIP3    H234929   3.375   5.477  12.203 -0.5075  3.4980  0.5468
 4480TIP3   OH234930   2.870   6.369  11.800 -0.4032  0.6805 -0.1183
 4480TIP3    H134931   2.911   6.336  11.720 -0.4040  1.5469 -0.4833
 4480TIP3    H234932   2.817   6.296  11.832  0.5488 -0.0919 -0.2347
 4481TIP3   OH234933   6.688   5.931   0.806 -0.3529 -0.2380  0.0443
 4481TIP3    H134934   6.724   5.846   0.831  0.9766 -0.0603 -1.1356
 4481TIP3    H234935   6.660   5.920   0.715 -0.2933  0.5446 -0.0770
 4482TIP3   OH234936   4.841   4.578  14.851 -0.0077 -0.7145  0.4946
 4482TIP3    H134937   4.874   4.549  14.766 -1.1393 -1.3697  0.2551
 4482TIP3    H234938   4.774   4.643  14.829 -0.6556 -1.2484  0.8503
 4483TIP3   OH234939   1.470   0.063   1.992 -0.0139 -0.6190  0.0071
 4483TIP3    H134940   1.523   0.055   2.071  1.4047 -0.6269 -0.9120
 4483TIP3    H234941   1.458  -0.027   1.962  1.1157 -0.4982 -0.8399
 4484TIP3   OH234942   0.015   2.614  11.012 -0.5098 -1.1275  0.2486
 4484TIP3    H134943  -0.035   2.608  11.094 -0.2424 -1.8555  0.3630
 4484TIP3    H234944   0.059   2.530  11.005 -1.5844 -1.5955 -1.3483
 4485TIP3   OH234945   4.735   1.357  16.315 -0.4449 -0.3803 -0.9398
 4485TIP3    H134946   4.676   1.330  16.246  0.4961 -1.7067 -1.2643
 4485TIP3    H234947   4.769   1.276  16.351 -0.0676  0.3163  0.3419
 4486TIP3   OH234948   2.437   5.322   0.252  0.4087  0.2727  0.6824
 4486TIP3    H134949   2.373   5.334   0.323  0.1871  0.6629  0.4206
 4486TIP3    H234950   2.432   5.229   0.230 -1.2530  0.5941 -0.4354
 4487TIP3   OH234951   1.435   5.759  10.881 -0.5371 -0.1139  0.2338
 4487TIP3    H134952   1.522   5.720  10.887 -0.1780  0.5079 -0.6214
 4487TIP3    H234953   1.400   5.728  10.797 -0.9196  0.0800  0.3166
 4488TIP3   OH234954   5.786   2.740  11.794 -0.4138 -0.5067  0.3549
 4488TIP3    H134955   5.762   2.664  11.742  2.0732  0.9304 -3.2368
 4488TIP3    H234956   5.748   2.814  11.747  2.4009  0.9154  0.1212
 4489TIP3   OH234957   3.450   0.532  11.832  0.3667 -0.3348 -0.1000
 4489TIP3    H134958   3.469   0.440  11.813 -0.9193 -0.5623 -0.4070
 4489TIP3    H234959   3.534   0.570  11.857  0.7468 -1.8131  0.9521
 4490TIP3   OH234960   3.744   5.028   5.394 -0.1922  0.1462  0.5783
 4490TIP3    H134961   3.756   4.953   5.336 -0.1889 -0.5819  1.4989
 4490TIP3    H234962   3.759   5.105   5.338 -1.0727 -0.5014 -0.5875
 4491TIP3   OH234963   6.019   2.621  15.838 -0.2515  0.0546  0.2161
 4491TIP3    H134964   6.102   2.646  15.879 -1.3677  1.5817  1.6529
 4491TIP3    H234965   5.964   2.591  15.910 -1.1572 -0.4382 -0.6474
 4492TIP3   OH234966   2.090   1.720  13.887 -0.2595 -0.1663 -0.4132
 4492TIP3    H134967   2.111   1.691  13.976  1.9409  1.2041 -0.4012
 4492TIP3    H234968   2.106   1.815  13.889 -1.5980  0.1366 -1.9161
 4493TIP3   OH234969   4.930   0.373  11.089  0.0784 -0.4796  0.1503
 4493TIP3    H134970   4.989   0.438  11.053  0.5325 -0.9182  0.0967
 4493TIP3    H234971   4.885   0.336  11.013 -0.6406  0.1975  0.2266
 4494TIP3   OH234972   1.835   6.407   6.013 -0.0309 -0.0823  0.5041
 4494TIP3    H134973   1.888   6.446   5.943 -1.2538  0.9727  0.1131
 4494TIP3    H234974   1.799   6.327   5.974  0.7523 -0.4679  0.5595
 4495TIP3   OH234975   5.850   0.663   2.432 -0.2535  0.1459  0.0924
 4495TIP3    H134976   5.840   0.753   2.464 -0.4994 -0.2203  1.0724
 4495TIP3    H234977   5.763   0.639   2.401  0.1576  0.7897 -1.7178
 4496TIP3   OH234978   6.675   1.967   3.163  0.2013  0.2193  0.4336
 4496TIP3    H134979   6.648   2.056   3.187  0.5467  0.2731  0.6343
 4496TIP3    H234980   6.604   1.934   3.107  0.9585  1.3000 -1.2142
 4497TIP3   OH234981   6.819   0.029   0.017 -0.4094 -0.1030 -0.2971
 4497TIP3    H134982   6.791  -0.049  -0.031 -0.1918  0.3053 -1.1211
 4497TIP3    H234983   6.850   0.088  -0.052 -0.8204  0.8100  0.2965
 4498TIP3   OH234984   4.835   0.579   3.134  0.9542 -0.2196 -0.3379
 4498TIP3    H134985   4.863   0.670   3.146 -1.8074  0.5967  0.6765
 4498TIP3    H234986   4.740   0.585   3.124 -0.1837 -3.2719  4.8491
 4499TIP3   OH234987   3.024   1.602   5.378 -0.0295  0.4671  0.2786
 4499TIP3    H134988   2.987   1.533   5.323 -0.0165  0.4285  0.3172
 4499TIP3    H234989   3.095   1.559   5.426  0.5941  0.7393 -0.3839
 4500TIP3   OH234990   6.420   5.677   3.890  0.2803  0.4843  0.4440
 4500TIP3    H134991   6.355   5.739   3.923  0.5858  0.3307  1.3612
 4500TIP3    H234992   6.453   5.633   3.968 -0.9437 -1.8550 -0.2762
 4501TIP3   OH234993   2.923   5.098   0.170  0.3321  0.1256 -0.4740
 4501TIP3    H134994   2.860   5.169   0.180  0.5037  0.2685 -0.4081
 4501TIP3    H234995   2.909   5.043   0.248 -1.5783 -1.3332 -1.7335
 4502TIP3   OH234996   0.910   4.417  15.493  0.3058  0.5239  0.4307
 4502TIP3    H134997   0.922   4.427  15.587 -1.7984  0.4501  0.7630
 4502TIP3    H234998   0.961   4.339  15.470 -1.2731 -1.1053  2.0595
 4503TIP3   OH234999   2.206   2.568  12.160  0.3673 -0.2419  0.0937
 4503TIP3    H135000   2.175   2.649  12.120  1.6258  0.7683  1.0777
 4503TIP3    H235001   2.260   2.527  12.093 -0.6293 -0.5255 -0.5670
 4504TIP3   OH235002   0.340   1.382   4.058  0.1970 -0.9393  0.4328
 4504TIP3    H135003   0.338   1.289   4.079  1.4133 -0.9402  0.6394
 4504TIP3    H235004   0.304   1.425   4.135 -1.0559 -1.2533  0.0527
 4505TIP3   OH235005   5.777   5.668  12.041 -0.3876  0.7326  0.3700
 4505TIP3    H135006   5.808   5.638  11.956  0.6726 -1.6151  1.5099
 4505TIP3    H235007   5.689   5.631  12.049 -0.2665  0.4716  0.5142
 4506TIP3   OH235008   4.161   2.510  12.349  0.3402 -0.4921 -0.3467
 4506TIP3    H135009   4.193   2.556  12.271  1.0816 -1.7101 -0.7940
 4506TIP3    H235010   4.169   2.574  12.419  1.6995 -0.0364 -0.8682
 4507TIP3   OH235011   6.705   2.227  14.246  0.4675 -0.4963  0.3973
 4507TIP3    H135012   6.724   2.135  14.266  0.6232 -0.2809  1.2809
 4507TIP3    H235013   6.743   2.275  14.319 -1.6026  0.1173  1.1257
 4508TIP3   OH235014   2.742   6.511  16.395  0.7033  0.0487  0.3025
 4508TIP3    H135015   2.784   6.438  16.439 -0.0482 -0.3501  0.3852
 4508TIP3    H235016   2.745   6.488  16.302  0.8715  0.1327  0.2872
 4509TIP3   OH235017   0.846   6.264  13.562  0.0503 -0.4856 -0.1496
 4509TIP3    H135018   0.920   6.284  13.619  0.2583 -0.3329 -0.4754
 4509TIP3    H235019   0.816   6.349  13.530  1.1221 -0.6775 -1.7730
 4510TIP3   OH235020   5.976   4.154  14.365 -0.1824 -0.0359 -0.2861
 4510TIP3    H135021   5.898   4.180  14.414  0.0955  0.5133 -0.1295
 4510TIP3    H235022   6.001   4.233  14.316  2.3890  0.9905  2.4014
 4511TIP3   OH235023   2.533   3.375   0.445  0.1471 -0.4152 -0.1244
 4511TIP3    H135024   2.441   3.364   0.423 -0.5127 -0.5579  2.4424
 4511TIP3    H235025   2.553   3.465   0.417 -1.1579  0.0845  0.4607
 4512TIP3   OH235026   4.256   2.285   1.779 -0.0493  0.6264 -0.7709
 4512TIP3    H135027   4.275   2.258   1.689 -0.3993 -1.5003 -0.2773
 4512TIP3    H235028   4.177   2.236   1.802 -1.9594  3.6615 -0.3607
 4513TIP3   OH235029   2.264   0.990   1.756  0.1075 -0.2753 -0.2038
 4513TIP3    H135030   2.325   0.931   1.711 -0.1444 -1.4585  0.9503
 4513TIP3    H235031   2.319   1.062   1.787  0.4492  0.0425 -1.4775
 4514TIP3   OH235032   4.747   4.061   5.326 -0.0652 -0.6460 -0.5038
 4514TIP3    H135033   4.783   3.995   5.385 -0.4413 -1.2356 -0.9175
 4514TIP3    H235034   4.662   4.083   5.362  0.4121  0.2696  0.1146
 4515TIP3   OH235035   4.061   1.734   4.897  0.2119  0.6091  0.8623
 4515TIP3    H135036   4.137   1.743   4.839  0.9415  1.1805  1.8672
 4515TIP3    H235037   3.986   1.751   4.841  0.6490 -1.8940 -0.6291
 4516TIP3   OH235038   0.175   2.325  11.292  0.0593  0.1648  0.4741
 4516TIP3    H135039   0.146   2.323  11.201 -0.1516 -0.6498  0.5488
 4516TIP3    H235040   0.125   2.397  11.331  0.3593  0.6977 -0.1161
 4517TIP3   OH235041   2.027   1.428   0.262  0.1623  0.0136 -0.2408
 4517TIP3    H135042   2.099   1.489   0.245  0.4469  0.5656  2.4966
 4517TIP3    H235043   1.980   1.467   0.336 -0.2092 -2.5877  0.9985
 4518TIP3   OH235044   2.117   4.890  16.558 -0.5187  0.2019  0.0723
 4518TIP3    H135045   2.187   4.908  16.496  0.2488 -1.0890  0.5250
 4518TIP3    H235046   2.158   4.903  16.644 -0.9189 -0.2562  0.3368
 4519TIP3   OH235047   0.400   0.948  14.132 -0.0416  0.9927  0.3043
 4519TIP3    H135048   0.337   0.936  14.061  0.6390 -0.1158 -0.1461
 4519TIP3    H235049   0.483   0.967  14.088  0.5180 -0.2852  0.7379
 4520TIP3   OH235050   3.531   2.062  15.027  0.3286 -0.0830 -0.4243
 4520TIP3    H135051   3.475   2.127  14.986  0.5902  1.3399  1.3454
 4520TIP3    H235052   3.522   1.984  14.972 -0.7301  1.1411 -2.0716
 4521TIP3   OH235053   4.306   5.086   4.268  0.1029  0.3466  0.0208
 4521TIP3    H135054   4.304   4.997   4.233  0.3987  0.5265 -0.4597
 4521TIP3    H235055   4.221   5.096   4.312 -0.1992  0.0609 -0.4903
 4522TIP3   OH235056   4.136   3.824  11.461 -0.0409 -0.4829 -0.1161
 4522TIP3    H135057   4.141   3.913  11.495  1.6902  0.2043 -1.9111
 4522TIP3    H235058   4.213   3.780  11.497  0.1088 -0.6844 -0.6693
 4523TIP3   OH235059   2.565   5.266  13.526  0.0595 -0.2570 -0.2685
 4523TIP3    H135060   2.529   5.272  13.615  1.8501 -0.7735  0.5371
 4523TIP3    H235061   2.488   5.255  13.470 -1.0493 -1.0778  1.3184
 4524TIP3   OH235062   5.506   5.803   3.294 -0.1279  0.3247 -0.7575
 4524TIP3    H135063   5.552   5.887   3.288  0.4882  0.0536 -0.0043
 4524TIP3    H235064   5.415   5.827   3.313  0.3345  0.8189  1.0911
 4525TIP3   OH235065   4.362   3.634   1.862 -0.0485  0.6504 -0.1350
 4525TIP3    H135066   4.302   3.707   1.848 -0.8274  0.1836  0.6419
 4525TIP3    H235067   4.449   3.671   1.847 -0.4864  1.5090 -0.6285
 4526TIP3   OH235068   6.278   1.903   2.257 -0.0309 -0.0785 -0.0246
 4526TIP3    H135069   6.248   1.872   2.172 -1.0415 -1.9341  0.9188
 4526TIP3    H235070   6.365   1.864   2.268 -0.0824 -0.2022 -0.0490
 4527TIP3   OH235071   5.682   5.415  11.165  0.5329 -0.2261 -0.0316
 4527TIP3    H135072   5.638   5.434  11.248  1.7292  2.9581 -0.0163
 4527TIP3    H235073   5.740   5.341  11.185  1.0805  0.7092  2.1079
 4528TIP3   OH235074   3.888   0.968  16.058 -0.1227  0.5694 -0.2012
 4528TIP3    H135075   3.979   0.995  16.055  0.2069 -0.4289  0.5191
 4528TIP3    H235076   3.839   1.047  16.032  0.8224  1.7538  1.4321
 4529TIP3   OH235077   0.958   5.916  10.231  0.2940  0.4621 -0.2548
 4529TIP3    H135078   0.869   5.949  10.216  0.2062  0.9632  1.2580
 4529TIP3    H235079   1.003   5.934  10.148 -0.1427  3.1621 -0.0063
 4530TIP3   OH235080   1.133   4.450  16.004 -0.4999  0.6555  0.4743
 4530TIP3    H135081   1.153   4.429  16.096  2.2053 -0.0628 -0.1894
 4530TIP3    H235082   1.056   4.397  15.984 -0.2250 -0.3694  1.9114
 4531TIP3   OH235083   5.875   1.278  16.595 -0.4318 -0.3284  0.4172
 4531TIP3    H135084   5.860   1.197  16.547  1.1251 -0.5952  0.3449
 4531TIP3    H235085   5.791   1.325  16.590 -0.7914 -1.0901 -1.1200
 4532TIP3   OH235086   6.098   2.060  13.128  0.0562  0.4440  0.3116
 4532TIP3    H135087   6.052   2.030  13.207 -1.4458 -1.2616 -1.1047
 4532TIP3    H235088   6.108   1.980  13.075  1.3531  1.4711 -1.0706
 4533TIP3   OH235089   4.606   1.450   4.755  0.1579  0.7191  0.2635
 4533TIP3    H135090   4.551   1.414   4.825  1.4099 -1.9146 -0.0001
 4533TIP3    H235091   4.625   1.539   4.784 -2.1928  0.9030  1.5468
 4534TIP3   OH235092   5.599   1.092  14.689 -0.1430  0.1847 -0.3399
 4534TIP3    H135093   5.673   1.146  14.717  0.8186  0.0537 -2.4372
 4534TIP3    H235094   5.564   1.137  14.612 -0.2051 -1.3972 -1.2895
 4535TIP3   OH235095   4.470   4.984   3.790  0.4087  0.1298  0.4898
 4535TIP3    H135096   4.455   5.078   3.785 -2.8198 -0.2496  1.1403
 4535TIP3    H235097   4.506   4.970   3.877 -0.7707  0.6095  1.0665
 4536TIP3   OH235098   6.531   5.389   0.965 -0.0606 -0.1640 -0.3086
 4536TIP3    H135099   6.587   5.325   0.921  0.6569 -0.5576  1.1032
 4536TIP3    H235100   6.554   5.381   1.058 -2.4610 -0.3143  0.3326
 4537TIP3   OH235101   6.312   1.615   2.645  0.0740 -0.5100 -0.0368
 4537TIP3    H135102   6.353   1.595   2.729  0.0220 -0.0693  0.0927
 4537TIP3    H235103   6.342   1.703   2.623  0.6824 -0.8984 -0.8396
 4538TIP3   OH235104   4.236   0.731  15.165  0.5623  0.0157 -0.2668
 4538TIP3    H135105   4.235   0.826  15.177 -0.0478 -0.0253  0.0400
 4538TIP3    H235106   4.182   0.716  15.087  0.0039 -0.1313  0.1389
 4539TIP3   OH235107   0.538   0.562   3.434 -0.2603  0.1877 -0.8563
 4539TIP3    H135108   0.599   0.505   3.387  1.4620 -0.9315  2.3818
 4539TIP3    H235109   0.591   0.636   3.463 -0.7895  0.0553  0.5655
 4540TIP3   OH235110   2.495   2.151  16.110  0.0473 -0.6744 -0.0551
 4540TIP3    H135111   2.533   2.123  16.193  1.1577 -0.1487 -0.3674
 4540TIP3    H235112   2.403   2.123  16.115 -0.0729 -0.1114  1.6022
 4541TIP3   OH235113   4.037   5.394   3.454 -0.2342 -0.1191  0.3522
 4541TIP3    H135114   4.076   5.454   3.518  0.3293 -0.6002  0.4695
 4541TIP3    H235115   4.034   5.443   3.373  2.1001 -0.5748 -0.0677
 4542TIP3   OH235116   5.201   5.925   1.498  0.1092 -0.4279 -0.3730
 4542TIP3    H135117   5.186   5.835   1.469  0.0543 -1.0963  1.5939
 4542TIP3    H235118   5.296   5.935   1.497  0.0947 -0.3348 -1.0670
 4543TIP3   OH235119   1.073   4.790   1.490  0.0850 -0.0006  0.2333
 4543TIP3    H135120   0.986   4.775   1.453 -0.2083  0.1283  0.8509
 4543TIP3    H235121   1.114   4.854   1.432  0.2685 -1.0208 -0.8043
 4544TIP3   OH235122   0.316   0.534   4.642  0.4556 -0.0366  0.2760
 4544TIP3    H135123   0.228   0.565   4.666  0.4867  1.1721 -1.0574
 4544TIP3    H235124   0.370   0.554   4.718 -0.4850 -1.2525  1.3192
 4545TIP3   OH235125   2.057   2.561   2.802  0.0669  0.4385  0.6803
 4545TIP3    H135126   2.081   2.500   2.871  0.1981 -0.7844 -0.3946
 4545TIP3    H235127   2.138   2.573   2.752  0.2442  2.1372  1.3280
 4546TIP3   OH235128   1.557   3.565  14.782 -0.7793 -0.0714  0.2911
 4546TIP3    H135129   1.582   3.482  14.821 -0.8160 -0.3917 -0.3483
 4546TIP3    H235130   1.464   3.575  14.803 -0.6489  0.0681  0.8157
 4547TIP3   OH235131   2.652   5.322   3.018 -0.2715 -0.1911 -0.5353
 4547TIP3    H135132   2.678   5.233   2.996  0.6186 -0.5403  1.7274
 4547TIP3    H235133   2.684   5.375   2.945  2.0231 -1.3229 -0.4216
 4548TIP3   OH235134   0.487   4.846   2.286 -0.3702  0.0089 -0.0826
 4548TIP3    H135135   0.528   4.821   2.204  1.8173 -0.2140  1.0072
 4548TIP3    H235136   0.522   4.785   2.351 -0.8059  1.1537  1.2999
 4549TIP3   OH235137   6.234   0.776  14.678  0.2425 -0.0943  0.1378
 4549TIP3    H135138   6.142   0.769  14.652  0.4318 -1.0740 -0.3372
 4549TIP3    H235139   6.258   0.867  14.659  0.1754 -0.5497 -2.6004
 4550TIP3   OH235140   3.824   5.057  14.903 -0.4131 -0.0816  0.1309
 4550TIP3    H135141   3.892   5.020  14.960 -0.1303  0.0415 -0.1188
 4550TIP3    H235142   3.763   4.985  14.887  0.0225 -0.3863 -0.1865
 4551TIP3   OH235143   4.675   2.668   3.582  0.4987 -0.3638 -0.7167
 4551TIP3    H135144   4.757   2.646   3.625  0.6894  0.4084 -0.6801
 4551TIP3    H235145   4.675   2.763   3.577 -0.6831 -0.3174 -0.1441
 4552TIP3   OH235146   5.706   0.494  11.825  0.8415 -0.1534  0.2338
 4552TIP3    H135147   5.762   0.571  11.837  2.0477 -0.8789 -0.4741
 4552TIP3    H235148   5.651   0.516  11.750 -1.2836  1.3389  2.1049
 4553TIP3   OH235149   1.140   2.571   4.410  0.4272 -0.2032  0.2466
 4553TIP3    H135150   1.108   2.575   4.319  0.5855  0.8633  0.2263
 4553TIP3    H235151   1.175   2.658   4.427  0.2084 -0.3288  1.4167
 4554TIP3   OH235152   6.739   4.201  15.887 -0.1394  0.3272 -0.4376
 4554TIP3    H135153   6.728   4.287  15.927 -0.6824  0.4783 -0.9013
 4554TIP3    H235154   6.742   4.140  15.961  1.6022  0.8596 -0.0303
 4555TIP3   OH235155   0.512   5.175  12.043  0.1529  0.4307  0.4639
 4555TIP3    H135156   0.559   5.227  12.108  0.6595  0.0558  0.3943
 4555TIP3    H235157   0.435   5.143  12.090  0.0690  0.8655  0.6347
 4556TIP3   OH235158   1.676   6.145   1.317 -0.0939 -0.5522 -0.3246
 4556TIP3    H135159   1.611   6.085   1.354 -0.4642 -0.1204 -0.2656
 4556TIP3    H235160   1.738   6.088   1.272 -0.8712 -0.9399 -0.9355
 4557TIP3   OH235161   6.887   4.315   5.867 -0.6120 -0.4410 -0.3042
 4557TIP3    H135162   6.915   4.325   5.776 -0.8433  1.2728 -0.2319
 4557TIP3    H235163   6.968   4.317   5.918 -0.5827  0.6087 -0.3611
 4558TIP3   OH235164   6.285   6.018   3.327 -0.3703 -0.0990 -0.0247
 4558TIP3    H135165   6.265   6.073   3.403 -1.1505  0.9518 -0.9588
 4558TIP3    H235166   6.323   5.939   3.364 -4.8017 -1.6466  1.8993
 4559TIP3   OH235167   6.648   5.783  16.232  0.3839  0.3764 -0.0721
 4559TIP3    H135168   6.691   5.727  16.167 -0.9785 -2.0428  0.9701
 4559TIP3    H235169   6.565   5.739  16.250  1.0305  0.4252  3.8567
 4560TIP3   OH235170   3.755   5.257   0.552  0.6612 -0.1493  0.1574
 4560TIP3    H135171   3.780   5.171   0.586 -0.8738 -0.6077  0.1969
 4560TIP3    H235172   3.752   5.245   0.457 -0.6082 -0.4599  0.2229
 4561TIP3   OH235173   6.564   1.351  13.734  0.6164 -0.2686  0.3557
 4561TIP3    H135174   6.633   1.394  13.786  0.1766  1.1520 -0.1921
 4561TIP3    H235175   6.581   1.379  13.644 -0.6199  0.0648  0.2056
 4562TIP3   OH235176   1.727   1.865  16.848  0.3235  0.0500  0.7611
 4562TIP3    H135177   1.760   1.777  16.830 -0.9652 -0.8982  2.6696
 4562TIP3    H235178   1.653   1.876  16.788 -0.3051 -0.7165  1.3697
 4563TIP3   OH235179   5.350   6.367   4.308 -0.5025 -0.1122 -0.2878
 4563TIP3    H135180   5.356   6.429   4.236 -5.1376 -0.8299 -1.6454
 4563TIP3    H235181   5.367   6.282   4.268 -0.0489 -0.2468  0.1857
 4564TIP3   OH235182   2.148   2.767   0.062  0.6930  0.1893  0.0758
 4564TIP3    H135183   2.106   2.782  -0.022  0.1097 -1.2804  0.0754
 4564TIP3    H235184   2.077   2.778   0.126  0.9050  0.3237  0.2865
 4565TIP3   OH235185   6.484   2.554  12.894 -0.2216 -0.3358  0.8361
 4565TIP3    H135186   6.528   2.562  12.979  0.8918 -0.3573  0.2740
 4565TIP3    H235187   6.472   2.460  12.882  1.0899 -0.4407  0.2473
 4566TIP3   OH235188   4.385   1.995   2.139 -0.1296 -0.3353 -0.0384
 4566TIP3    H135189   4.349   1.922   2.190 -1.1901 -0.2721 -0.6660
 4566TIP3    H235190   4.432   2.048   2.203  0.3748 -1.3812  0.4900
 4567TIP3   OH235191   1.096   2.782  14.844  0.1421  0.1904  0.3045
 4567TIP3    H135192   1.167   2.843  14.828 -1.1151  1.2993 -1.3809
 4567TIP3    H235193   1.037   2.828  14.904 -1.0202  0.9020 -1.2985
 4568TIP3   OH235194   3.513   2.876   1.101 -0.3671  0.3497 -0.0774
 4568TIP3    H135195   3.607   2.856   1.093 -0.8099 -1.5200 -1.0350
 4568TIP3    H235196   3.507   2.970   1.082  1.5797  1.1139  2.4725
 4569TIP3   OH235197   4.125   1.501  12.101  0.0584  0.4286  0.3117
 4569TIP3    H135198   4.110   1.417  12.058  0.7978  1.3418 -1.8427
 4569TIP3    H235199   4.064   1.562  12.060 -0.1987  1.0638  1.5676
 4570TIP3   OH235200   6.800   6.470   0.978 -0.0905  0.0616  0.6664
 4570TIP3    H135201   6.784   6.562   0.954 -0.7441 -0.7605 -2.5655
 4570TIP3    H235202   6.887   6.452   0.941 -0.5842 -0.9707 -0.0205
 4571TIP3   OH235203   1.550   0.428   3.110 -0.2418 -0.1663  0.2249
 4571TIP3    H135204   1.534   0.517   3.141 -2.6100 -0.4881  0.0378
 4571TIP3    H235205   1.561   0.438   3.015  1.1799  0.0853  0.3857
 4572TIP3   OH235206   2.514   0.077   0.357  0.2782  0.6819  0.1064
 4572TIP3    H135207   2.475  -0.010   0.349  1.7261  0.0859 -1.1033
 4572TIP3    H235208   2.504   0.116   0.270  0.5442  1.3105  0.3510
 4573TIP3   OH235209   1.220   4.077   5.513  0.5971  0.3227  0.3718
 4573TIP3    H135210   1.182   3.991   5.497  0.0187  0.4941  0.7938
 4573TIP3    H235211   1.243   4.109   5.426 -0.7609  0.4520  0.0308
 4574TIP3   OH235212   2.697   2.097  13.207 -0.1175 -0.2032  0.2281
 4574TIP3    H135213   2.767   2.162  13.215 -0.3654 -0.0974  1.7122
 4574TIP3    H235214   2.652   2.122  13.126  1.1482  0.1131 -0.4068
 4575TIP3   OH235215   4.840   2.345   4.394 -0.0737 -0.4593 -0.1945
 4575TIP3    H135216   4.747   2.321   4.399  0.3489 -1.9228  2.0946
 4575TIP3    H235217   4.842   2.438   4.418 -1.1746  0.4787 -3.3452
 4576TIP3   OH235218   2.249   4.043   4.023 -0.0127  0.4695  0.2497
 4576TIP3    H135219   2.286   4.006   4.104 -0.9164  0.6154  0.7441
 4576TIP3    H235220   2.175   4.096   4.053  0.0640  1.0984 -0.6203
 4577TIP3   OH235221   3.242   2.711   2.289  0.1539 -0.1726 -0.3633
 4577TIP3    H135222   3.321   2.737   2.334 -0.8370  1.4845  0.4932
 4577TIP3    H235223   3.180   2.689   2.359 -0.5114 -0.3358 -0.9886
 4578TIP3   OH235224   6.178   1.021   3.295 -0.5051  0.3149 -0.6275
 4578TIP3    H135225   6.113   1.000   3.228 -2.4470 -0.7007  1.4188
 4578TIP3    H235226   6.163   1.113   3.316 -0.0147  0.5847 -1.4247
 4579TIP3   OH235227   4.298   1.795   2.325  0.0235  0.4632  0.3291
 4579TIP3    H135228   4.255   1.713   2.300 -2.7894  1.7602  0.5154
 4579TIP3    H235229   4.379   1.768   2.368 -0.8038 -2.2000  0.3841
 4580TIP3   OH235230   3.038   3.609   1.314  0.0649 -0.4266 -0.6138
 4580TIP3    H135231   3.017   3.530   1.363 -1.8682  1.9314  2.7531
 4580TIP3    H235232   2.979   3.607   1.238 -1.8267 -1.0428  0.8041
 4581TIP3   OH235233   3.366   4.398   2.066  0.6715  0.1858  1.1119
 4581TIP3    H135234   3.378   4.303   2.064 -0.1938  0.0333 -2.2128
 4581TIP3    H235235   3.452   4.433   2.090  1.9117 -1.4017 -0.7622
 4582TIP3   OH235236   3.830   5.435   5.686  0.1216 -0.4231 -0.3250
 4582TIP3    H135237   3.843   5.342   5.707 -0.3256 -0.3443  0.3332
 4582TIP3    H235238   3.898   5.480   5.736 -0.2219 -0.3301  0.0675
 4583TIP3   OH235239   5.948   0.484   3.779 -0.3579 -0.2296  0.3107
 4583TIP3    H135240   5.955   0.531   3.696  1.4365 -0.8625  0.0680
 4583TIP3    H235241   5.884   0.415   3.763 -1.4825  0.8213  0.0676
 4584TIP3   OH235242   3.488   1.718   2.089 -0.0084 -0.2397  0.0561
 4584TIP3    H135243   3.428   1.663   2.140  1.3377 -2.8906 -1.0243
 4584TIP3    H235244   3.438   1.739   2.010 -0.1323 -0.9289 -0.0545
 4585TIP3   OH235245   1.408   5.307  15.951 -0.0112  0.1109  0.1559
 4585TIP3    H135246   1.326   5.309  15.998 -1.0563  0.4030 -1.5876
 4585TIP3    H235247   1.464   5.248  16.002 -1.4495 -0.4572  1.1306
 4586TIP3   OH235248   0.120   4.226  12.199  0.6178  0.3379 -0.2734
 4586TIP3    H135249   0.135   4.293  12.132  1.2873 -1.3566 -1.9283
 4586TIP3    H235250   0.037   4.186  12.174  0.2093  0.5430  0.7172
 4587TIP3   OH235251   0.122   4.299  15.526 -0.0026 -0.0013 -0.1252
 4587TIP3    H135252   0.104   4.393  15.526 -1.5191 -0.2611 -0.9708
 4587TIP3    H235253   0.213   4.292  15.553 -0.9013  1.4682  3.9871
 4588TIP3   OH235254   0.074   2.067   4.570 -0.3531 -0.1603  0.1893
 4588TIP3    H135255   0.132   1.997   4.538  3.0052  2.6254 -0.4380
 4588TIP3    H235256   0.042   2.108   4.490 -0.8548  0.1279  0.5382
 4589TIP3   OH235257   2.390   5.642   4.368  0.5610  0.2718 -0.0224
 4589TIP3    H135258   2.392   5.705   4.296 -0.5057  1.1007  0.6427
 4589TIP3    H235259   2.454   5.677   4.431  3.4462 -1.8046 -1.5669
 4590TIP3   OH235260   3.624   5.895   2.148 -0.2481 -0.1170  0.6552
 4590TIP3    H135261   3.635   5.926   2.058  1.8046 -0.3113  0.7927
 4590TIP3    H235262   3.529   5.898   2.163 -0.9030 -2.1413 -2.2171
 4591TIP3   OH235263   6.811   4.467  11.175  0.1028  0.1133  0.2773
 4591TIP3    H135264   6.755   4.413  11.120  1.4620 -0.2269 -0.8191
 4591TIP3    H235265   6.812   4.422  11.260 -1.4989  0.3054  0.4350
 4592TIP3   OH235266   0.280   0.880  15.507 -0.3436  0.3164  0.2656
 4592TIP3    H135267   0.255   0.958  15.557  0.1425 -0.0396  1.0841
 4592TIP3    H235268   0.373   0.869  15.525 -0.3446 -0.2868 -0.0754
 4593TIP3   OH235269   0.423   2.714  14.788 -0.1233 -0.1012 -0.7071
 4593TIP3    H135270   0.436   2.794  14.839 -2.2161 -0.5013  0.5922
 4593TIP3    H235271   0.486   2.720  14.716  0.2433  2.3781 -0.2589
 4594TIP3   OH235272   6.083   3.024  14.897 -0.2213  0.2407 -0.3387
 4594TIP3    H135273   6.103   3.115  14.920 -2.0909  0.2374  1.6010
 4594TIP3    H235274   6.139   2.972  14.955  0.3642  0.1462 -0.9814
 4595TIP3   OH235275   4.184   2.162   4.399 -0.1590 -0.4806  0.2142
 4595TIP3    H135276   4.104   2.168   4.347 -0.9501  0.1873  1.4702
 4595TIP3    H235277   4.159   2.193   4.486  1.4813 -0.2158  0.6254
 4596TIP3   OH235278   0.420   2.835   1.714 -0.4736  0.0928 -0.3374
 4596TIP3    H135279   0.402   2.757   1.661 -2.0426  1.0410 -1.2929
 4596TIP3    H235280   0.437   2.904   1.650 -3.7925  1.5995  0.1969
 4597TIP3   OH235281   4.975   1.048   2.117 -0.1765  0.1018 -0.2901
 4597TIP3    H135282   5.011   1.115   2.060 -1.5348 -0.0289 -1.3547
 4597TIP3    H235283   4.929   1.096   2.186 -0.8194  0.2667 -0.8325
 4598TIP3   OH235284   3.670   5.624   4.247  0.2370  0.3311  0.3196
 4598TIP3    H135285   3.686   5.676   4.169  1.2712  0.7695  0.8103
 4598TIP3    H235286   3.576   5.605   4.244  0.4615 -0.7036 -1.6373
 4599TIP3   OH235287   2.419   4.265  12.660 -0.1135  0.3578 -0.1978
 4599TIP3    H135288   2.441   4.200  12.594 -0.7569 -0.5537  0.4637
 4599TIP3    H235289   2.461   4.234  12.740  0.5154  1.3624 -0.1182
 4600TIP3   OH235290   3.351   5.426  13.174 -0.3716 -0.4652 -0.4829
 4600TIP3    H135291   3.362   5.498  13.113  0.1507  0.0881  0.2522
 4600TIP3    H235292   3.304   5.359  13.124 -0.7131  0.3136 -1.2172
 4601TIP3   OH235293   6.870   3.771   5.555  0.6754 -0.3461  0.3612
 4601TIP3    H135294   6.872   3.687   5.602 -0.5400 -0.1218  0.8388
 4601TIP3    H235295   6.809   3.757   5.483  1.1321 -0.1250 -0.0714
 4602TIP3   OH235296   1.367   5.052  10.026 -0.0887  0.9095 -0.1378
 4602TIP3    H135297   1.420   5.017   9.954 -0.2490  0.6313 -0.1240
 4602TIP3    H235298   1.284   5.076   9.984 -0.8134 -0.8246  0.2331
 4603TIP3   OH235299   5.787   2.840   3.789 -0.1709 -0.0284  0.1555
 4603TIP3    H135300   5.723   2.910   3.795  1.5088  1.5607  0.6083
 4603TIP3    H235301   5.736   2.761   3.774 -2.2227  1.1034  0.8628
 4604TIP3   OH235302   6.296   0.052   4.429  0.7131  0.4419 -0.2188
 4604TIP3    H135303   6.288   0.144   4.454  0.3872  1.1813 -2.7640
 4604TIP3    H235304   6.270   0.050   4.337  0.3776 -2.2785 -0.1343
 4605TIP3   OH235305   0.876   5.333  15.655 -0.0003 -0.2946 -0.3059
 4605TIP3    H135306   0.958   5.383  15.663  0.1081 -0.6439  0.9160
 4605TIP3    H235307   0.904   5.242  15.642 -0.2061 -0.1881 -1.7374
 4606TIP3   OH235308   2.192   4.471  10.489 -0.2121  0.0219 -0.0032
 4606TIP3    H135309   2.239   4.421  10.556 -0.8622  1.2384  1.4167
 4606TIP3    H235310   2.102   4.437  10.493 -0.0588 -0.5275 -0.9225
 4607TIP3   OH235311   0.277   1.430  14.311  0.1484 -0.0599  0.4147
 4607TIP3    H135312   0.339   1.486  14.358  0.6461 -0.6381  0.4593
 4607TIP3    H235313   0.225   1.388  14.379 -1.1433  1.3673  0.3379
 4608TIP3   OH235314   2.452   4.999   3.523 -0.0873  0.2155  0.0377
 4608TIP3    H135315   2.364   4.990   3.485 -0.4545 -3.0670  1.3361
 4608TIP3    H235316   2.509   5.014   3.447 -1.2733 -2.1173 -1.4437
 4609TIP3   OH235317   4.562   0.087  13.027  0.3086 -0.3577  0.1553
 4609TIP3    H135318   4.528   0.174  13.004 -0.5007 -1.4548 -3.4298
 4609TIP3    H235319   4.657   0.095  13.015  0.4537  0.4074  1.5477
 4610TIP3   OH235320   5.493   0.896   1.191 -0.0157  0.6769 -0.0236
 4610TIP3    H135321   5.526   0.959   1.255 -0.6322  1.7921 -0.7675
 4610TIP3    H235322   5.398   0.909   1.191 -0.3915 -1.5645  1.1333
 4611TIP3   OH235323   6.828   3.175  10.630  0.0980  0.4155  0.4764
 4611TIP3    H135324   6.848   3.242  10.564  0.7627 -0.8573 -0.6693
 4611TIP3    H235325   6.734   3.160  10.621  0.3488 -0.5134 -0.9998
 4612TIP3   OH235326   6.672   3.793  16.141  0.2603 -0.4383 -0.0094
 4612TIP3    H135327   6.656   3.794  16.047 -1.0486 -1.1479  0.1823
 4612TIP3    H235328   6.595   3.836  16.179  0.3974 -0.8756  0.7872
 4613TIP3   OH235329   4.484   3.073  13.801 -0.0491  0.5740 -0.1731
 4613TIP3    H135330   4.544   3.096  13.872 -0.1099 -1.3051  0.5486
 4613TIP3    H235331   4.520   3.116  13.724  1.6597  0.3164  0.4463
 4614TIP3   OH235332   4.162   4.821  11.444 -0.2984 -0.2838  0.1441
 4614TIP3    H135333   4.145   4.734  11.406 -1.6838  0.4098 -0.8855
 4614TIP3    H235334   4.078   4.866  11.440  1.1462  2.6826 -3.4522
 4615TIP3   OH235335   4.006   2.593   4.942 -0.0448 -0.1287 -0.0216
 4615TIP3    H135336   3.948   2.532   4.896  0.5880 -0.2823 -0.6332
 4615TIP3    H235337   4.048   2.644   4.872  0.0298  0.4634  0.4472
 4616TIP3   OH235338   3.384   3.384   0.796 -0.2320 -0.2570  0.6019
 4616TIP3    H135339   3.391   3.477   0.774 -0.8297  0.0618  1.7069
 4616TIP3    H235340   3.295   3.359   0.772 -0.2453 -0.4116  0.8062
 4617TIP3   OH235341   4.242   4.120   4.192  0.2238 -0.3275  0.0944
 4617TIP3    H135342   4.232   4.026   4.176  0.4925 -0.5854  1.3412
 4617TIP3    H235343   4.157   4.148   4.225  0.6271 -0.4974  1.3291
 4618TIP3   OH235344   2.181   5.227  16.532  0.1077 -0.5480 -0.0490
 4618TIP3    H135345   2.105   5.268  16.573 -0.0333 -1.4072  0.5844
 4618TIP3    H235346   2.194   5.146  16.582  1.6427 -0.2448  0.0902
 4619TIP3   OH235347   2.336   3.435   5.849  0.2938  0.6907  0.6364
 4619TIP3    H135348   2.310   3.490   5.924 -1.5971  0.0029  0.5415
 4619TIP3    H235349   2.320   3.490   5.773 -0.8475  0.3098  0.5855
 4620TIP3   OH235350   2.937   3.488   1.937  0.1397 -0.8213 -0.0160
 4620TIP3    H135351   2.915   3.566   1.989  0.7361 -1.1938  0.8287
 4620TIP3    H235352   2.863   3.429   1.950 -0.9248  0.0701 -1.6955
 4621TIP3   OH235353   3.095   5.497   3.855 -0.1948 -0.1888  0.2703
 4621TIP3    H135354   3.187   5.481   3.835 -0.0187  0.5840  0.4340
 4621TIP3    H235355   3.090   5.489   3.951  0.2259  2.1767  0.5546
 4622TIP3   OH235356   1.747   6.112  12.634  0.5299 -0.4352 -0.3045
 4622TIP3    H135357   1.834   6.086  12.664  0.1210 -1.4854  0.0347
 4622TIP3    H235358   1.710   6.033  12.594 -0.6731 -0.3311  0.5268
 4623TIP3   OH235359   2.356   4.407   9.714 -0.3025  0.3463  0.3373
 4623TIP3    H135360   2.324   4.494   9.737 -2.2685 -0.4618  0.8780
 4623TIP3    H235361   2.378   4.413   9.621 -1.5147  1.1402  0.0801
 4624TIP3   OH235362   4.442   5.883   0.508 -0.1890  0.8082 -0.0210
 4624TIP3    H135363   4.420   5.860   0.598 -2.6563  0.4875 -0.6263
 4624TIP3    H235364   4.535   5.860   0.499 -0.7273 -2.4680  1.4371
 4625TIP3   OH235365   5.308   6.241   2.362 -1.2521  0.7470 -0.6565
 4625TIP3    H135366   5.359   6.227   2.283 -2.6182  0.4108 -1.5265
 4625TIP3    H235367   5.315   6.158   2.410  0.3726  1.2773  0.1039
 4626TIP3   OH235368   3.217   4.646   1.581  0.0760  0.2838  0.1582
 4626TIP3    H135369   3.130   4.663   1.546  0.7073 -0.0024 -1.6512
 4626TIP3    H235370   3.249   4.571   1.530  1.8585  1.1669 -0.1008
 4627TIP3   OH235371   2.143   5.043  15.759 -0.4267 -0.1832 -0.4386
 4627TIP3    H135372   2.222   5.075  15.804 -1.4478  0.8780  0.6749
 4627TIP3    H235373   2.136   5.099  15.682 -0.6178  0.3781 -0.0198
 4628TIP3   OH235374   6.339   2.866  10.174 -0.4008 -0.3634 -0.1945
 4628TIP3    H135375   6.338   2.801  10.104  0.2106 -0.4664 -0.1130
 4628TIP3    H235376   6.249   2.867  10.207 -0.1569 -2.0325  0.6012
 4629TIP3   OH235377   2.110   6.255   2.185 -0.1009  0.3895  0.2246
 4629TIP3    H135378   2.071   6.318   2.245  2.6938  1.1761  1.3792
 4629TIP3    H235379   2.198   6.288   2.170 -0.2032 -0.5463 -3.2660
 4630TIP3   OH235380   5.787   4.944  12.260 -0.2548 -0.2249 -0.0654
 4630TIP3    H135381   5.757   4.982  12.177 -0.2148  1.1528  0.5171
 4630TIP3    H235382   5.730   4.868  12.273 -2.5114  1.3815  0.2064
 4631TIP3   OH235383   3.866   3.373   4.156 -0.5091  0.1410 -0.3110
 4631TIP3    H135384   3.789   3.390   4.210  0.0147 -1.7174  1.1200
 4631TIP3    H235385   3.832   3.334   4.076 -1.0566 -1.2296  0.5607
 4632TIP3   OH235386   3.359   5.374   6.459  0.4761  0.5223  0.4470
 4632TIP3    H135387   3.330   5.387   6.369 -0.3016  0.2950  0.6627
 4632TIP3    H235388   3.449   5.343   6.450  0.6495  1.1749 -0.2288
 4633TIP3   OH235389   4.540   2.516  15.844  0.2376 -0.0123  0.5412
 4633TIP3    H135390   4.619   2.566  15.867 -0.1803  1.1833 -0.5002
 4633TIP3    H235391   4.572   2.444  15.790  0.4641  2.0501 -2.3451
 4634TIP3   OH235392   3.340   1.068   0.823  0.2937 -0.3021 -1.1464
 4634TIP3    H135393   3.430   1.038   0.836  0.0764 -0.8099 -0.7792
 4634TIP3    H235394   3.305   1.082   0.911 -0.5973 -2.0048 -1.1742
 4635TIP3   OH235395   1.493   6.760  15.632 -0.3308  0.2715  0.2323
 4635TIP3    H135396   1.403   6.742  15.605 -0.0378 -0.3268 -0.3554
 4635TIP3    H235397   1.493   6.854  15.652 -0.8932  0.4481 -0.5497
 4636TIP3   OH235398   4.853   0.026  16.125 -0.1809  0.5533 -0.2238
 4636TIP3    H135399   4.769   0.005  16.166 -0.5833 -0.2337 -1.3998
 4636TIP3    H235400   4.904  -0.054  16.134 -0.6977 -0.0471 -2.2337
 4637TIP3   OH235401   2.193   1.100  10.758  0.0919 -0.2991  0.4073
 4637TIP3    H135402   2.277   1.089  10.802  0.9555 -0.1052 -1.1429
 4637TIP3    H235403   2.129   1.063  10.819  1.0803  0.9368  2.3158
 4638TIP3   OH235404   1.381   4.578   0.653 -0.1223 -0.5968 -0.0451
 4638TIP3    H135405   1.463   4.625   0.669 -0.3943  0.2261 -0.9944
 4638TIP3    H235406   1.375   4.573   0.558 -0.7064 -1.5089  0.0255
 4639TIP3   OH235407   2.793   1.115   1.931 -0.3929 -0.0838 -0.3958
 4639TIP3    H135408   2.728   1.176   1.965  0.4721  0.9066 -0.4617
 4639TIP3    H235409   2.797   1.045   1.996  0.8067  1.4860  1.3207
 4640TIP3   OH235410   5.114   3.651   6.047  0.1255  0.7112  0.0820
 4640TIP3    H135411   5.094   3.708   6.121 -1.3556  0.3242  0.0021
 4640TIP3    H235412   5.111   3.709   5.971  0.0590  0.7983  0.1511
 4641TIP3   OH235413   0.200   2.587   3.693 -0.3746  0.4379  0.0787
 4641TIP3    H135414   0.149   2.569   3.771  0.8203  0.7622  0.9645
 4641TIP3    H235415   0.200   2.683   3.686  0.0025  0.4344  0.0144
 4642TIP3   OH235416   5.046   6.409  13.063  0.0731 -0.1740 -0.3717
 4642TIP3    H135417   5.010   6.465  12.994  1.2639 -0.6004 -1.3827
 4642TIP3    H235418   5.019   6.451  13.145 -1.0560  0.5542 -1.0888
 4643TIP3   OH235419   5.277   6.150  13.667 -0.1941  0.5743  0.2902
 4643TIP3    H135420   5.277   6.118  13.757 -1.5516  1.1503  0.5238
 4643TIP3    H235421   5.276   6.245  13.676 -2.6136  0.6714 -0.2456
 4644TIP3   OH235422   6.159   0.568  14.318  0.2810 -0.0969 -0.0826
 4644TIP3    H135423   6.253   0.575  14.301  0.5896  0.5424  1.6794
 4644TIP3    H235424   6.129   0.658  14.326 -0.7682 -0.2468 -1.8536
 4645TIP3   OH235425   6.096   0.062  13.482  0.0004  0.5067 -0.1063
 4645TIP3    H135426   6.037   0.114  13.428 -3.3516 -0.3646  2.3666
 4645TIP3    H235427   6.148   0.126  13.530 -1.0114  1.4449 -0.2381
 4646TIP3   OH235428   2.377   2.909   1.255  0.4383  0.3598 -0.0739
 4646TIP3    H135429   2.339   2.825   1.281 -0.4147  0.5406 -0.6996
 4646TIP3    H235430   2.303   2.969   1.251  0.9600  1.0091 -0.1797
 4647TIP3   OH235431   0.605   4.917   3.356  0.2453  0.4833 -0.8568
 4647TIP3    H135432   0.692   4.882   3.374 -0.6491 -1.4786 -0.0919
 4647TIP3    H235433   0.602   4.929   3.261  0.6918 -1.3332 -1.1284
 4648TIP3   OH235434   4.907   4.757  13.191 -0.6121 -0.3857 -0.6886
 4648TIP3    H135435   4.967   4.684  13.199 -1.2333 -0.8541 -0.1659
 4648TIP3    H235436   4.955   4.832  13.228 -0.4806 -0.8283  0.0548
 4649TIP3   OH235437   2.798   3.844   1.038 -0.0518 -0.5595  0.6302
 4649TIP3    H135438   2.809   3.787   1.115 -0.8645 -2.3637 -0.5182
 4649TIP3    H235439   2.837   3.927   1.064  2.3070 -1.9910  1.9901
 4650TIP3   OH235440   0.053   4.668   5.960 -0.3446  0.1222 -0.2936
 4650TIP3    H135441  -0.025   4.614   5.975 -0.0094 -0.1754  0.4202
 4650TIP3    H235442   0.077   4.649   5.869 -0.7464 -0.2595 -0.3271
 4651TIP3   OH235443   2.594   3.041   3.332 -0.0933  0.3892  0.3468
 4651TIP3    H135444   2.670   3.021   3.386  0.4370  1.0800 -0.1108
 4651TIP3    H235445   2.630   3.091   3.258 -0.4151 -2.4826 -1.9361
 4652TIP3   OH235446   6.225   5.094   0.048  0.4949 -0.1851  0.0551
 4652TIP3    H135447   6.235   5.002   0.074  1.5820  0.2230  1.1918
 4652TIP3    H235448   6.178   5.134   0.121  1.2299  0.4355  0.2069
 4653TIP3   OH235449   6.291   6.130   5.759  0.0219 -0.4214  0.1074
 4653TIP3    H135450   6.234   6.182   5.701  0.8778 -0.2050 -0.5562
 4653TIP3    H235451   6.252   6.042   5.757  0.4862 -0.6231 -1.4631
 4654TIP3   OH235452   3.515   3.019  11.570 -0.0203  0.1360  0.1617
 4654TIP3    H135453   3.432   3.052  11.535  0.4480  0.5502 -0.5902
 4654TIP3    H235454   3.513   2.925  11.551  0.3348  0.3908 -1.2553
 4655TIP3   OH235455   2.019   4.558  14.823 -0.0603  0.6161  0.4008
 4655TIP3    H135456   2.060   4.637  14.788 -0.3581  0.0652 -1.3360
 4655TIP3    H235457   1.927   4.565  14.798 -0.1505 -0.1318  0.4850
 4656TIP3   OH235458   1.230   5.387  16.201  0.2794  0.3208  0.7534
 4656TIP3    H135459   1.282   5.458  16.163  0.1927 -0.6488 -1.3477
 4656TIP3    H235460   1.278   5.360  16.278  0.4447  2.4747  1.4763
 4657TIP3   OH235461   6.680   4.649  14.706  0.2432  0.2502 -0.0067
 4657TIP3    H135462   6.768   4.655  14.742  0.0043  0.9707  0.4925
 4657TIP3    H235463   6.654   4.558  14.720  0.0387  0.5762  1.9829
 4658TIP3   OH235464   0.184   5.435   1.263  0.0630 -0.3020  0.2846
 4658TIP3    H135465   0.098   5.393   1.252 -0.3910  0.6912 -0.0909
 4658TIP3    H235466   0.246   5.370   1.230 -0.6106 -0.7208 -0.2067
 4659TIP3   OH235467   4.193   0.817  16.817 -0.1153 -0.1795  0.4720
 4659TIP3    H135468   4.258   0.790  16.752 -0.9307  0.7584 -0.7931
 4659TIP3    H235469   4.118   0.758  16.801 -1.5470  2.0151 -1.6828
 4660TIP3   OH235470   4.407   0.953  11.085 -0.5139  0.2940  0.0232
 4660TIP3    H135471   4.466   1.012  11.038 -0.3998  0.4960  0.4161
 4660TIP3    H235472   4.321   0.969  11.046 -0.2098 -0.4409 -0.9664
 4661TIP3   OH235473   1.835   1.093  12.899  0.1306  0.4825  0.1693
 4661TIP3    H135474   1.806   1.107  12.809  0.1808 -2.3408 -0.3913
 4661TIP3    H235475   1.757   1.110  12.952  0.0827  2.0908 -0.3676
 4662TIP3   OH235476   6.852   3.694  14.790 -0.0214  0.4409 -0.3765
 4662TIP3    H135477   6.859   3.773  14.844  0.5147 -0.5527  1.0868
 4662TIP3    H235478   6.784   3.642  14.832  0.3139 -0.3056 -0.7328
 4663TIP3   OH235479   1.770   1.389  16.034 -0.8874  0.4867  0.6955
 4663TIP3    H135480   1.698   1.449  16.054 -0.4819  1.9744 -1.8966
 4663TIP3    H235481   1.758   1.367  15.942  0.8248 -0.9207  0.7608
 4664TIP3   OH235482   4.406   4.970   2.277  0.0163  0.3742 -0.0819
 4664TIP3    H135483   4.460   5.008   2.207  1.2949 -0.5504  0.3748
 4664TIP3    H235484   4.402   4.877   2.256  0.3818  0.0971  1.0428
 4665TIP3   OH235485   5.004   2.630  15.212  0.4220  0.4115  0.1003
 4665TIP3    H135486   5.052   2.551  15.235 -0.4855  0.3388  1.8442
 4665TIP3    H235487   5.059   2.702  15.244 -0.9380  0.3079  2.9707
 4666TIP3   OH235488   2.657   2.820   4.052  0.1180  0.0956 -0.4373
 4666TIP3    H135489   2.687   2.857   3.969 -0.6107 -0.9320 -1.1813
 4666TIP3    H235490   2.633   2.896   4.105 -2.9842  0.7607 -2.5389
 4667TIP3   OH235491   1.521   6.881  11.199  0.0491  0.0105 -0.3102
 4667TIP3    H135492   1.503   6.806  11.143  0.4258 -0.5564  0.3096
 4667TIP3    H235493   1.582   6.935  11.148 -0.6091  0.1594 -0.9595
 4668TIP3   OH235494   5.926   1.243  14.482  0.4337 -0.5102 -0.2855
 4668TIP3    H135495   5.870   1.316  14.453  2.0240  1.3031  0.9337
 4668TIP3    H235496   5.872   1.165  14.471 -1.7223  0.9576 -0.7142
 4669TIP3   OH235497   5.113   0.689  14.623 -0.4929  0.2585  0.3841
 4669TIP3    H135498   5.152   0.614  14.577  1.2387  1.9778 -1.1258
 4669TIP3    H235499   5.167   0.764  14.597 -2.5064  2.1612  1.3533
 4670TIP3   OH235500   5.082   2.220  16.470 -0.1662 -0.6231 -0.6266
 4670TIP3    H135501   5.144   2.180  16.531 -0.2230 -2.2840 -1.5821
 4670TIP3    H235502   5.015   2.259  16.525  0.8475 -0.2711  0.3902
 4671TIP3   OH235503   0.599   5.935  15.304  0.3562  0.1978 -0.5471
 4671TIP3    H135504   0.629   5.910  15.391 -1.2257 -0.7643 -0.2423
 4671TIP3    H235505   0.660   5.890  15.244 -1.0419 -2.6850  0.0378
 4672TIP3   OH235506   0.363   0.603  14.784  0.1274 -0.0629  0.1046
 4672TIP3    H135507   0.455   0.631  14.788 -0.0411  0.4461  0.4264
 4672TIP3    H235508   0.350   0.579  14.692  0.4147  0.4378 -0.0691
 4673TIP3   OH235509   6.264   1.326   0.617  0.0518 -0.1124  0.0169
 4673TIP3    H135510   6.184   1.290   0.578 -0.1569  1.4287 -1.0804
 4673TIP3    H235511   6.295   1.257   0.676 -1.6762 -1.0455 -0.0817
 4674TIP3   OH235512   5.047   5.905   5.652  0.1261 -0.0164  0.3275
 4674TIP3    H135513   5.041   5.983   5.597  1.8151  0.0174  0.1648
 4674TIP3    H235514   5.128   5.915   5.701  0.2826 -1.5862  0.4480
 4675TIP3   OH235515   4.047   2.377  15.864  0.0040 -0.9202  0.0033
 4675TIP3    H135516   3.990   2.381  15.941  0.4273 -1.9069  0.3841
 4675TIP3    H235517   4.130   2.414  15.892  1.2466 -4.1463  1.0813
 4676TIP3   OH235518   0.413   4.124   0.768  0.2952 -0.0964 -0.2684
 4676TIP3    H135519   0.457   4.041   0.747 -0.7209 -0.2380 -2.0056
 4676TIP3    H235520   0.423   4.177   0.690 -2.1757  0.0314 -0.5819
 4677TIP3   OH235521   2.458   0.461   4.208 -0.2341 -0.5755 -0.2376
 4677TIP3    H135522   2.379   0.515   4.214 -0.5564 -1.1015  0.2730
 4677TIP3    H235523   2.501   0.472   4.293  0.4850  0.0627 -0.6655
 4678TIP3   OH235524   4.341   2.189  13.709  0.3908  0.7627 -0.2307
 4678TIP3    H135525   4.416   2.198  13.767  1.8887 -0.4784 -1.8290
 4678TIP3    H235526   4.356   2.106  13.664 -1.1275  1.2480 -1.7564
 4679TIP3   OH235527   2.964   4.208  13.485 -0.3434 -0.2983 -0.5767
 4679TIP3    H135528   2.995   4.159  13.561 -0.8034 -0.5089 -0.5226
 4679TIP3    H235529   2.933   4.291  13.522  0.8332  0.2277 -0.7176
 4680TIP3   OH235530   0.553   4.821  15.565 -0.1862  0.2228  0.2477
 4680TIP3    H135531   0.479   4.849  15.512 -0.5717 -0.1425  0.5885
 4680TIP3    H235532   0.528   4.735  15.598 -0.3095  0.7849  1.6777
 4681TIP3   OH235533   0.546   4.675  14.993 -0.2056  0.4633  0.0512
 4681TIP3    H135534   0.552   4.680  14.898  1.2260  0.3680  0.1248
 4681TIP3    H235535   0.545   4.766  15.022 -0.0969  0.4867 -0.0197
 4682TIP3   OH235536   3.652   1.749  12.582 -0.3606 -0.2069 -0.2092
 4682TIP3    H135537   3.746   1.747  12.598 -0.2987  0.5095 -0.4098
 4682TIP3    H235538   3.622   1.827  12.629 -0.6715  0.1790 -1.0234
 4683TIP3   OH235539   1.917   1.627   3.047  0.4083 -0.0242 -0.0819
 4683TIP3    H135540   1.958   1.588   3.125  0.8522  0.0750 -0.2647
 4683TIP3    H235541   1.977   1.606   2.975  0.2379  0.2963 -0.3178
 4684TIP3   OH235542   2.732   4.651  16.488 -0.5216 -0.4455  0.0619
 4684TIP3    H135543   2.774   4.728  16.527 -3.3520  1.8652 -1.0858
 4684TIP3    H235544   2.666   4.624  16.552 -1.6140  0.0603 -0.8235
 4685TIP3   OH235545   4.151   0.476   4.909  0.4251 -0.3104 -0.0593
 4685TIP3    H135546   4.166   0.528   4.988 -0.3143 -1.6641  1.0425
 4685TIP3    H235547   4.073   0.515   4.869 -0.3114 -0.7266  0.9245
 4686TIP3   OH235548   3.793   5.177   5.867  0.0283 -0.0061 -0.0156
 4686TIP3    H135549   3.801   5.105   5.929 -0.1439  0.9137  1.1141
 4686TIP3    H235550   3.757   5.137   5.788 -2.7565 -0.7425  1.4918
 4687TIP3   OH235551   3.104   6.577   2.423 -0.4195  0.4704 -0.1069
 4687TIP3    H135552   3.110   6.620   2.338  2.1573  1.1404  0.3228
 4687TIP3    H235553   3.030   6.620   2.467 -0.4074  1.6618 -1.1920
 4688TIP3   OH235554   3.896   5.824   5.563 -0.0889  0.0814  0.1693
 4688TIP3    H135555   3.882   5.886   5.635  1.6850  0.0120  0.6313
 4688TIP3    H235556   3.915   5.741   5.607  0.4681 -0.0919 -0.3820
 4689TIP3   OH235557   6.553   5.540  12.883  0.0087  0.0253 -0.1701
 4689TIP3    H135558   6.535   5.630  12.912  0.1877  0.7105 -2.0437
 4689TIP3    H235559   6.646   5.540  12.861  0.1739 -0.8372  0.4905
 4690TIP3   OH235560   1.058   1.213  14.561 -0.3549 -0.0233  0.8149
 4690TIP3    H135561   1.105   1.276  14.507 -0.6557  1.1335  1.8477
 4690TIP3    H235562   0.966   1.238  14.554 -0.6656 -1.3450 -0.0109
 4691TIP3   OH235563   2.116   3.201   5.303  0.1481 -0.3046 -0.2531
 4691TIP3    H135564   2.095   3.120   5.256 -0.0965  0.2681 -1.1543
 4691TIP3    H235565   2.064   3.268   5.259  1.5576  0.6267 -0.5465
 4692TIP3   OH235566   3.906   3.695   3.442  0.2367  0.1988 -0.7082
 4692TIP3    H135567   3.815   3.722   3.450  0.1436  0.0549 -1.2191
 4692TIP3    H235568   3.950   3.771   3.403  0.1333 -0.0743 -1.3838
 4693TIP3   OH235569   4.594   5.549  12.568  0.5701  0.1027 -0.6263
 4693TIP3    H135570   4.527   5.561  12.636  2.2527 -0.7812  1.3159
 4693TIP3    H235571   4.552   5.576  12.487 -1.1184  2.6181  0.9498
 4694TIP3   OH235572   3.656   5.081   3.882 -0.1933  0.2558  0.7470
 4694TIP3    H135573   3.609   4.999   3.897  0.4910 -0.3054 -0.1217
 4694TIP3    H235574   3.722   5.060   3.816  1.2064  1.0716  1.8383
 4695TIP3   OH235575   6.141   1.539  15.796 -0.6501 -0.2648  0.0425
 4695TIP3    H135576   6.120   1.453  15.831 -2.2842  0.5548  1.2370
 4695TIP3    H235577   6.103   1.539  15.708 -0.4653 -0.8296 -0.0382
 4696TIP3   OH235578   0.942   6.501  15.755 -0.1362 -0.1496 -0.2602
 4696TIP3    H135579   0.904   6.442  15.820 -0.0546 -0.4606 -0.4936
 4696TIP3    H235580   0.919   6.589  15.785 -1.0470 -0.3345 -0.4098
 4697TIP3   OH235581   1.346   5.272  12.170 -0.2233 -0.0963  0.0745
 4697TIP3    H135582   1.388   5.186  12.172  0.4060  0.1774 -0.8408
 4697TIP3    H235583   1.292   5.271  12.092 -1.8869 -0.4021  1.1741
 4698TIP3   OH235584   5.551   2.049  16.398 -0.0227 -0.7333  0.2745
 4698TIP3    H135585   5.576   1.972  16.448 -5.0091 -1.6228  1.9877
 4698TIP3    H235586   5.488   2.017  16.333 -0.0974  1.5715 -0.9075
 4699TIP3   OH235587   0.873   1.681  15.282  0.2021  0.8317 -0.1587
 4699TIP3    H135588   0.846   1.727  15.203 -0.6843  0.2220 -0.2226
 4699TIP3    H235589   0.924   1.606  15.250  0.4942  1.0161 -0.1211
 4700TIP3   OH235590   2.058   5.592  11.609 -0.8356 -0.0338 -0.2907
 4700TIP3    H135591   2.069   5.517  11.551 -0.7604 -2.3088  2.4912
 4700TIP3    H235592   2.115   5.574  11.683 -0.2009  3.2110  0.1602
 4701TIP3   OH235593   0.998   3.850   5.288 -0.2534  0.0362 -0.3621
 4701TIP3    H135594   1.026   3.814   5.372 -1.7885  0.8850  0.5735
 4701TIP3    H235595   1.076   3.893   5.253  1.2861 -3.0142 -0.9437
 4702TIP3   OH235596   0.802   4.370   2.533 -0.1124 -0.5860  0.3366
 4702TIP3    H135597   0.845   4.337   2.454  0.5754  1.3061 -0.1378
 4702TIP3    H235598   0.709   4.361   2.515  0.0327 -0.0381 -0.7983
 4703TIP3   OH235599   1.543   5.239  10.460  0.2144 -0.6025  0.0773
 4703TIP3    H135600   1.631   5.208  10.440 -0.1845 -1.2886 -0.6426
 4703TIP3    H235601   1.515   5.285  10.381  0.2034  0.2755  0.5765
 4704TIP3   OH235602   1.228   1.581   5.025  0.0319  0.1362 -0.3372
 4704TIP3    H135603   1.251   1.653   5.085  0.0963 -0.2069  0.0534
 4704TIP3    H235604   1.208   1.625   4.943 -1.7571  0.7642  0.3923
 4705TIP3   OH235605   1.291   0.854   4.053  0.3970 -0.0761  0.2751
 4705TIP3    H135606   1.363   0.844   4.114  0.8716 -0.1185 -0.2847
 4705TIP3    H235607   1.316   0.929   3.998 -0.1447  0.1324  0.3017
 4706TIP3   OH235608   2.056   4.663   4.854 -0.1468 -0.3890  0.0543
 4706TIP3    H135609   2.044   4.731   4.921  1.2015  1.0017 -1.0576
 4706TIP3    H235610   2.072   4.583   4.905 -1.2955  0.1835  1.3900
 4707TIP3   OH235611   5.087   0.134  13.384  0.6198 -0.1338 -0.5378
 4707TIP3    H135612   5.135   0.062  13.425 -0.2461 -0.0911  0.5985
 4707TIP3    H235613   5.092   0.116  13.290  1.1361 -1.2033 -0.3201
 4708TIP3   OH235614   0.617   1.956   4.098  0.0153  0.3497 -0.2842
 4708TIP3    H135615   0.597   2.021   4.030  0.0538 -0.9705 -1.5886
 4708TIP3    H235616   0.538   1.955   4.153 -0.8321  0.0115 -1.4705
 4709TIP3   OH235617   4.684   6.864  14.038 -0.3350  0.1383  0.2328
 4709TIP3    H135618   4.755   6.821  13.990  1.2903  0.4180  2.2615
 4709TIP3    H235619   4.667   6.944  13.988  1.5190  0.5710  0.2185
 4710TIP3   OH235620   2.287   0.539  15.894  0.2262  0.4755 -0.1176
 4710TIP3    H135621   2.350   0.611  15.894  0.0507  0.6288 -0.1312
 4710TIP3    H235622   2.268   0.524  15.801  0.7712 -0.0333 -0.1512
 4711TIP3   OH235623   5.769   6.740  16.285 -0.4716  0.0685 -0.0937
 4711TIP3    H135624   5.774   6.736  16.189 -0.2976 -0.5524 -0.0594
 4711TIP3    H235625   5.708   6.670  16.309 -0.0876 -0.1381  0.2874
 4712TIP3   OH235626   5.048   6.528   9.758 -0.2497  0.3173 -0.2009
 4712TIP3    H135627   5.085   6.548   9.844  0.8468 -1.2937 -0.2563
 4712TIP3    H235628   5.022   6.436   9.764  0.2234  0.0554 -1.7093
 4713TIP3   OH235629   6.126   6.291   0.067  0.1017  0.2001 -0.3654
 4713TIP3    H135630   6.045   6.341   0.070  0.7531  1.3166  2.9782
 4713TIP3    H235631   6.110   6.217   0.126  1.0803 -0.2998 -0.7065
 4714TIP3   OH235632   3.657   3.819   3.554  0.2614 -0.3367 -0.2726
 4714TIP3    H135633   3.581   3.859   3.512 -0.0656  0.0274  0.6426
 4714TIP3    H235634   3.688   3.885   3.616  0.7094 -0.8672  0.0768
 4715TIP3   OH235635   3.987   4.167   4.290  0.2897 -0.2521  0.1218
 4715TIP3    H135636   3.934   4.105   4.240 -0.5315 -1.1903  2.0490
 4715TIP3    H235637   3.999   4.124   4.375  0.4689  1.8551  1.2119
 4716TIP3   OH235638   0.660   1.509  15.026  0.2408 -0.2989 -0.0254
 4716TIP3    H135639   0.605   1.432  15.042  0.2653 -0.6123 -1.3104
 4716TIP3    H235640   0.696   1.494  14.939  1.3798  0.5034  0.2894
 4717TIP3   OH235641   5.968   0.057   5.560  0.3039  0.0285  0.0181
 4717TIP3    H135642   5.940   0.080   5.648 -0.4752 -0.1547 -0.1784
 4717TIP3    H235643   6.056   0.021   5.571  0.3404  0.3184  0.6757
 4718TIP3   OH235644   3.230   3.247  11.670  0.4783  0.2219 -0.4862
 4718TIP3    H135645   3.286   3.203  11.606  0.5035  0.9063 -0.9400
 4718TIP3    H235646   3.157   3.281  11.618 -0.4250 -0.7329  0.1086
 4719TIP3   OH235647   3.158   4.764  10.963 -0.0849 -0.2400  0.7213
 4719TIP3    H135648   3.065   4.757  10.986 -0.1333 -2.2727  0.0830
 4719TIP3    H235649   3.193   4.676  10.979  1.6030  0.3444  0.3963
 4720TIP3   OH235650   6.278   6.093   1.880  0.8395  0.3559  0.2017
 4720TIP3    H135651   6.276   5.999   1.861 -2.1675  0.5606 -1.0792
 4720TIP3    H235652   6.223   6.103   1.958  0.5789  1.1262 -0.0714
 4721TIP3   OH235653   1.679   4.335  12.178  0.3197  0.2121 -0.0299
 4721TIP3    H135654   1.663   4.247  12.212 -0.5517  0.1220 -0.6458
 4721TIP3    H235655   1.761   4.327  12.129 -0.5612 -0.6662 -1.4324
 4722TIP3   OH235656   1.315   2.879   1.026 -0.1582 -0.2644  0.6225
 4722TIP3    H135657   1.228   2.877   0.987 -0.4974 -0.5637  1.3730
 4722TIP3    H235658   1.309   2.946   1.094  1.5277  3.2044 -2.2986
 4723TIP3   OH235659   2.240   3.791  12.159 -0.2270 -0.7381 -0.0837
 4723TIP3    H135660   2.176   3.753  12.220  0.4725 -1.7576  0.0355
 4723TIP3    H235661   2.290   3.716  12.127  1.5846  0.1220  0.5902
 4724TIP3   OH235662   5.105   1.298   4.207 -0.2967 -0.6610 -0.2579
 4724TIP3    H135663   5.013   1.309   4.186 -0.2353  0.2702 -0.0639
 4724TIP3    H235664   5.112   1.321   4.299  0.1836 -0.4344 -0.3483
 4725TIP3   OH235665   1.205   1.332   0.036 -0.0085 -0.1535  0.1992
 4725TIP3    H135666   1.243   1.376   0.112  0.2549 -0.3791  0.2004
 4725TIP3    H235667   1.281   1.307  -0.017 -0.2129  0.9053 -0.6515
 4726TIP3   OH235668   3.456   2.903  15.232 -0.4560  0.3105 -0.5304
 4726TIP3    H135669   3.521   2.907  15.302 -0.9035 -0.4893 -0.0591
 4726TIP3    H235670   3.508   2.904  15.151  0.0445  1.7733 -0.2281
 4727TIP3   OH235671   4.910   1.758  16.748  0.0285 -0.0187  0.0729
 4727TIP3    H135672   4.884   1.830  16.807  0.2759 -1.1756  1.6506
 4727TIP3    H235673   4.829   1.735  16.702  0.0715  1.6521 -0.9325
 4728TIP3   OH235674   4.738   6.521   1.099 -0.0338 -0.4294 -0.4395
 4728TIP3    H135675   4.680   6.461   1.052  0.0679 -0.2463 -0.8057
 4728TIP3    H235676   4.826   6.498   1.069  0.2422 -1.6790  1.1921
 4729TIP3   OH235677   5.562   2.585  14.934 -0.3848  0.3442 -0.1298
 4729TIP3    H135678   5.472   2.619  14.935 -0.6600 -0.3587 -0.0509
 4729TIP3    H235679   5.601   2.619  15.014 -0.8524 -0.0292  0.2670
 4730TIP3   OH235680   4.253   5.027  14.094  0.0119  0.3631  0.1271
 4730TIP3    H135681   4.214   4.958  14.039  2.5349  0.8422 -2.5183
 4730TIP3    H235682   4.293   4.980  14.167  3.3502 -1.4745 -2.5846
 4731TIP3   OH235683   2.608   0.074   5.744 -0.6584 -0.1803  0.8293
 4731TIP3    H135684   2.644   0.000   5.694 -0.0708  0.7641 -0.1748
 4731TIP3    H235685   2.685   0.117   5.781 -0.9330  0.4596  0.6571
 4732TIP3   OH235686   3.131   6.655  13.435 -0.4799  0.2824  0.0278
 4732TIP3    H135687   3.123   6.568  13.474  1.1144 -0.0918 -0.4235
 4732TIP3    H235688   3.181   6.706  13.499  2.5758 -0.4690 -1.5693
 4733TIP3   OH235689   3.343   4.883  11.134 -0.6025  0.3887  0.0946
 4733TIP3    H135690   3.289   4.849  11.063  1.1975  0.0935 -1.2236
 4733TIP3    H235691   3.413   4.931  11.090  1.2259 -0.7410  1.5823
 4734TIP3   OH235692   2.653   6.676   5.738  0.0936 -0.0472  0.0395
 4734TIP3    H135693   2.642   6.581   5.733  2.3145 -0.3868  0.5883
 4734TIP3    H235694   2.643   6.695   5.832  0.4640  0.1299  0.0429
 4735TIP3   OH235695   4.557   2.706   4.905 -0.5290  0.6041  0.1450
 4735TIP3    H135696   4.636   2.753   4.880  0.4904 -0.2386  1.6050
 4735TIP3    H235697   4.537   2.739   4.993 -0.3085 -1.0152  0.8243
 4736TIP3   OH235698   0.067   4.999  12.006  0.3078 -0.1096 -1.1057
 4736TIP3    H135699   0.076   5.094  12.010 -2.3645  0.2821 -2.1536
 4736TIP3    H235700   0.064   4.971  12.097 -1.8783  1.2581 -0.6682
 4737TIP3   OH235701   6.053   5.013  15.573 -0.2092 -0.1640 -0.2532
 4737TIP3    H135702   6.089   4.925  15.559 -1.2651 -0.4401 -1.4279
 4737TIP3    H235703   6.113   5.071  15.527  0.5307 -0.2389  0.5817
 4738TIP3   OH235704   0.887   1.919   2.688  0.1556  0.3355 -0.1822
 4738TIP3    H135705   0.827   1.927   2.613  0.5900  2.0044 -0.4116
 4738TIP3    H235706   0.966   1.880   2.651 -1.0024 -2.7516  0.3045
 4739TIP3   OH235707   1.637   2.843  15.986  0.0494  0.2348 -0.2154
 4739TIP3    H135708   1.589   2.871  15.909 -0.4587  0.2789  0.1097
 4739TIP3    H235709   1.698   2.777  15.954 -0.1421  0.2730 -0.6587
 4740TIP3   OH235710   3.247   6.767  12.457  0.6007  0.3162  0.2206
 4740TIP3    H135711   3.184   6.836  12.435 -0.2184  0.0524  1.6469
 4740TIP3    H235712   3.227   6.696  12.395 -0.4318  0.2852  0.5719
 4741TIP3   OH235713   2.213   0.252   2.509  0.4366 -0.0813 -0.1950
 4741TIP3    H135714   2.226   0.347   2.516  0.1532 -0.0696  0.2043
 4741TIP3    H235715   2.300   0.217   2.491  0.4883  0.2840 -0.6786
 4742TIP3   OH235716   4.617   1.460  15.500  0.3947  0.4110 -0.0304
 4742TIP3    H135717   4.638   1.476  15.408  0.4692 -0.3322 -0.1493
 4742TIP3    H235718   4.691   1.408  15.533  1.3766  2.3308  0.9979
 4743TIP3   OH235719   2.876   6.603  14.619 -1.0710  0.0562 -0.0021
 4743TIP3    H135720   2.959   6.651  14.612  0.0389 -1.8552 -0.6773
 4743TIP3    H235721   2.825   6.654  14.682  1.1637  0.5469  1.5416
 4744TIP3   OH235722   4.194   0.287  15.580  0.1111  0.3982 -0.0281
 4744TIP3    H135723   4.188   0.366  15.526  0.2941  0.5459  0.1679
 4744TIP3    H235724   4.260   0.307  15.645 -0.7383  0.5493  0.8018
 4745TIP3   OH235725   3.737   3.711   4.881 -0.0040 -1.0194  0.4675
 4745TIP3    H135726   3.678   3.750   4.945  1.4235  1.5113  0.3534
 4745TIP3    H235727   3.789   3.649   4.932  1.4340  1.2785  1.9996
 4746TIP3   OH235728   1.490   2.014  12.335 -0.3311  0.1603  0.7600
 4746TIP3    H135729   1.496   2.030  12.429 -3.4608 -0.7161  1.2268
 4746TIP3    H235730   1.540   1.933  12.322 -0.2320  0.0500  1.7379
 4747TIP3   OH235731   4.359   1.776   1.432 -0.7006  0.3035  0.6282
 4747TIP3    H135732   4.298   1.702   1.428 -2.0884  1.2274  2.8624
 4747TIP3    H235733   4.318   1.838   1.493  1.0675  2.3219 -0.1006
 4748TIP3   OH235734   3.162   2.756   2.015  0.6347 -0.5432  0.1112
 4748TIP3    H135735   3.160   2.743   2.110  2.4514  0.9297  0.4046
 4748TIP3    H235736   3.245   2.799   1.998 -1.0430  2.2900 -1.7280
 4749TIP3   OH235737   6.318   4.212  10.883 -0.0118 -0.0951  0.1148
 4749TIP3    H135738   6.239   4.172  10.845 -0.2997  1.6569 -1.2447
 4749TIP3    H235739   6.354   4.266  10.813  1.7144  0.1393  1.1195
 4750TIP3   OH235740   2.352   0.869   3.979  0.2403 -0.1722  0.7231
 4750TIP3    H135741   2.292   0.830   3.915  1.1704 -0.4921  0.0165
 4750TIP3    H235742   2.299   0.881   4.058 -0.5699 -1.0626  0.3332
 4751TIP3   OH235743   0.202   0.262  13.826 -0.1700  0.0417  0.2660
 4751TIP3    H135744   0.236   0.198  13.762 -1.9278  1.1146 -1.8936
 4751TIP3    H235745   0.125   0.220  13.863  0.2939 -0.1864  0.9936
 4752TIP3   OH235746   6.500   6.073   5.155  0.3322  0.3602 -0.4733
 4752TIP3    H135747   6.514   5.990   5.199  0.9990  0.4441 -0.5182
 4752TIP3    H235748   6.526   6.057   5.064  2.0678  1.0483 -0.1328
 4753TIP3   OH235749   1.303   2.108  13.874  0.0483  0.5901  0.0115
 4753TIP3    H135750   1.249   2.178  13.837 -0.0616  0.4463 -0.1025
 4753TIP3    H235751   1.330   2.056  13.798  2.0067  1.8009 -0.1694
 4754TIP3   OH235752   0.263   3.607   1.440  0.0753  0.1059  0.0247
 4754TIP3    H135753   0.282   3.701   1.443  1.9985 -0.2539  1.8025
 4754TIP3    H235754   0.291   3.575   1.526 -2.9339 -1.7146  0.4698
 4755TIP3   OH235755   2.957   0.676  11.865 -0.4867  0.1115 -0.3985
 4755TIP3    H135756   3.032   0.631  11.824 -2.2184 -0.7769 -2.7950
 4755TIP3    H235757   2.897   0.605  11.888 -0.9958  0.8814  0.6928
 4756TIP3   OH235758   6.857   3.404  11.486 -0.0792 -0.0393  0.4479
 4756TIP3    H135759   6.877   3.426  11.395 -1.1478 -1.3326 -0.1430
 4756TIP3    H235760   6.805   3.478  11.518 -1.0872 -0.2968 -0.5285
 4757TIP3   OH235761   0.538   6.735   4.331  0.0604  0.1373 -0.3691
 4757TIP3    H135762   0.483   6.688   4.269  0.2623 -0.7302  0.0955
 4757TIP3    H235763   0.624   6.738   4.289 -0.2898  1.4520 -1.0737
 4758TIP3   OH235764   0.756   4.543  15.800  0.3003  0.1534 -0.0055
 4758TIP3    H135765   0.756   4.591  15.883 -0.7167  0.7888 -0.3517
 4758TIP3    H235766   0.827   4.479  15.809  1.6443  1.6440  0.5150
 4759TIP3   OH235767   5.165   2.784  11.036 -0.7171 -0.6503  0.6471
 4759TIP3    H135768   5.159   2.700  10.990 -2.7262  0.0461 -0.4971
 4759TIP3    H235769   5.088   2.786  11.092 -1.1209  0.7125  0.0950
 4760TIP3   OH235770   4.610   4.731   5.239 -0.3020 -0.2214 -0.1550
 4760TIP3    H135771   4.605   4.670   5.313 -0.3811  0.1956  0.1885
 4760TIP3    H235772   4.537   4.705   5.182 -2.2207  1.3805  1.4192
 4761TIP3   OH235773   1.434   5.261  11.533 -0.0610  0.2155 -0.3326
 4761TIP3    H135774   1.345   5.287  11.512 -0.3857  1.7350  2.4803
 4761TIP3    H235775   1.483   5.343  11.535  0.9926 -0.4034 -0.0685
 4762TIP3   OH235776   2.099   4.644   5.334 -0.4724  0.3841  0.5468
 4762TIP3    H135777   2.040   4.652   5.409 -0.0472 -0.6864  1.0082
 4762TIP3    H235778   2.138   4.557   5.343 -0.7312  0.0602 -1.1438
 4763TIP3   OH235779   0.422   1.524  10.212  0.3273 -0.7615 -0.2104
 4763TIP3    H135780   0.468   1.602  10.182 -0.1885 -0.5590 -0.4891
 4763TIP3    H235781   0.333   1.534  10.178  0.3757 -1.6800 -0.6239
 4764TIP3   OH235782   2.252   2.526   2.375  0.4018 -0.5912 -0.4218
 4764TIP3    H135783   2.326   2.544   2.317 -0.5964  2.5553 -0.9092
 4764TIP3    H235784   2.241   2.606   2.425 -1.2541 -1.8307  1.3232
 4765TIP3   OH235785   0.563   0.231  15.001 -0.3213 -0.0674  0.1896
 4765TIP3    H135786   0.518   0.315  15.006  0.3904  0.3703 -0.4234
 4765TIP3    H235787   0.497   0.166  15.026 -0.9473  0.6510  0.4318
 4766TIP3   OH235788   4.048   5.076  14.575  0.0782 -1.0884 -0.0586
 4766TIP3    H135789   3.973   5.098  14.630 -0.0454 -1.6466  0.0015
 4766TIP3    H235790   4.082   5.161  14.546 -1.4655 -0.8437 -1.2963
 4767TIP3   OH235791   5.334   0.889   2.322 -0.3291  0.0553 -0.1926
 4767TIP3    H135792   5.315   0.853   2.408 -0.8415  0.2572 -0.2166
 4767TIP3    H235793   5.327   0.984   2.333  1.1356  0.1675 -0.0998
 4768TIP3   OH235794   5.931   4.029  12.005  0.2224 -0.3108 -0.1925
 4768TIP3    H135795   5.964   4.119  12.018  1.5740 -0.7985 -0.0145
 4768TIP3    H235796   5.893   4.005  12.089  1.1405 -0.3838  0.2188
 4769TIP3   OH235797   3.245   5.700  14.236  0.6413  0.0845 -0.1133
 4769TIP3    H135798   3.335   5.689  14.266  0.6773  0.2370 -0.1600
 4769TIP3    H235799   3.201   5.618  14.258  0.7154  0.1258  0.1823
 4770TIP3   OH235800   1.638   3.958  14.188 -0.2717 -0.5686 -0.4882
 4770TIP3    H135801   1.625   3.867  14.163 -2.0143 -0.8338  1.1815
 4770TIP3    H235802   1.657   4.003  14.106 -3.7686 -1.6681 -2.0917
 4771TIP3   OH235803   2.025   2.367  15.917 -0.7718 -0.0222  0.0840
 4771TIP3    H135804   2.106   2.353  15.967 -0.5902  0.4695 -0.0599
 4771TIP3    H235805   2.027   2.300  15.849  0.1899  0.8155 -0.7381
 4772TIP3   OH235806   1.100   0.934  14.549 -0.7681  0.4925  0.4280
 4772TIP3    H135807   1.043   1.006  14.576  0.0949  1.3047  0.1506
 4772TIP3    H235808   1.168   0.976  14.496 -0.5036 -0.5969 -0.1202
 4773TIP3   OH235809   1.560   2.997  13.620 -0.2794 -0.0541  0.4224
 4773TIP3    H135810   1.525   2.911  13.597 -0.9613  0.5895 -1.0820
 4773TIP3    H235811   1.599   3.030  13.539  0.8979  0.6342  1.2352
 4774TIP3   OH235812   5.042   6.841   5.806 -0.0249  0.3940 -0.3137
 4774TIP3    H135813   4.989   6.779   5.856  0.4592  1.0619  1.0759
 4774TIP3    H235814   5.116   6.789   5.775  0.9755  0.4604  1.8038
 4775TIP3   OH235815   2.645   5.052  14.234 -0.3191 -0.3278  0.6697
 4775TIP3    H135816   2.618   4.974  14.283 -0.8897 -1.6376 -1.5929
 4775TIP3    H235817   2.733   5.070  14.267  0.0232 -2.2302  0.9368
 4776TIP3   OH235818   4.881   3.016   4.574 -0.3674  0.5652  0.1353
 4776TIP3    H135819   4.874   3.103   4.533  1.6508  0.9290  0.4798
 4776TIP3    H235820   4.870   2.955   4.501 -2.6657  1.0309  0.0119
 4777TIP3   OH235821   0.314   1.968  16.365 -0.5438  0.7451  0.1102
 4777TIP3    H135822   0.368   1.920  16.428 -1.2122 -1.5333 -0.9532
 4777TIP3    H235823   0.344   2.059  16.372  2.5493 -0.1870  0.4867
 4778TIP3   OH235824   2.746   3.382  11.481 -0.3608  0.3174 -0.2992
 4778TIP3    H135825   2.715   3.312  11.423 -0.1088 -0.5988  0.6446
 4778TIP3    H235826   2.713   3.358  11.567  0.7671  0.7053  0.2631
 4779TIP3   OH235827   6.642   0.938   0.522  0.0547 -0.1108 -0.1171
 4779TIP3    H135828   6.650   0.998   0.596 -0.6086  0.7343 -0.7234
 4779TIP3    H235829   6.571   0.973   0.469 -0.7678 -1.7695 -0.1795
 4780TIP3   OH235830   2.026   3.427   5.540  0.1137 -0.3370  0.1934
 4780TIP3    H135831   2.014   3.388   5.453  1.7761 -1.5233  0.4592
 4780TIP3    H235832   2.114   3.463   5.538  0.4604 -1.0318  1.6238
 4781TIP3   OH235833   3.355   1.784  13.618 -0.5230 -0.1440 -0.0224
 4781TIP3    H135834   3.426   1.843  13.644 -2.0714  1.0660  1.6728
 4781TIP3    H235835   3.357   1.786  13.522  0.6499  1.1805 -0.0046
 4782TIP3   OH235836   2.526   1.468   6.421 -0.3103  0.1805  0.4499
 4782TIP3    H135837   2.445   1.451   6.470 -1.0249  0.8190 -0.4683
 4782TIP3    H235838   2.523   1.405   6.349 -0.4596  0.8114 -0.1061
 4783TIP3   OH235839   5.948   3.691   4.099  0.0609 -0.2928  0.0627
 4783TIP3    H135840   6.018   3.745   4.137  0.2277  1.1759 -2.1341
 4783TIP3    H235841   5.994   3.629   4.042 -0.3676  0.1549 -0.7833
 4784TIP3   OH235842   4.718   5.598   1.263  0.6221 -0.4893 -0.1994
 4784TIP3    H135843   4.727   5.582   1.357 -1.2237 -1.3475 -0.1210
 4784TIP3    H235844   4.779   5.670   1.244 -1.4251  2.1808  2.3706
 4785TIP3   OH235845   3.530   4.188   3.582  0.5093 -0.2596 -0.1832
 4785TIP3    H135846   3.545   4.268   3.632 -0.0626  0.0463 -0.4919
 4785TIP3    H235847   3.478   4.133   3.639  1.7567 -0.8388  0.4278
 4786TIP3   OH235848   0.323   2.333   3.666  0.2548  0.7951  0.2070
 4786TIP3    H135849   0.263   2.408   3.662 -1.2517 -0.3900 -0.8007
 4786TIP3    H235850   0.275   2.267   3.716  0.5025 -0.3544 -1.0221
 4787TIP3   OH235851   4.129   5.669   0.230  0.4141  0.3637 -0.3094
 4787TIP3    H135852   4.037   5.662   0.203 -0.2012  0.4710  1.5635
 4787TIP3    H235853   4.177   5.616   0.167 -0.8143  0.9318 -1.8039
 4788TIP3   OH235854   5.400   2.171   5.817  0.1551 -0.1012 -0.4886
 4788TIP3    H135855   5.377   2.130   5.900 -0.5734  1.6099  0.2001
 4788TIP3    H235856   5.495   2.183   5.821  0.1430 -0.1748  0.0286
 4789TIP3   OH235857   4.645   0.490   4.511 -0.4423  0.2423  0.1705
 4789TIP3    H135858   4.732   0.451   4.522 -0.7987 -0.5114  0.3985
 4789TIP3    H235859   4.594   0.453   4.583 -2.1043 -2.6318 -2.2494
 4790TIP3   OH235860   0.833   4.466   3.566 -0.2617 -0.1734  0.2713
 4790TIP3    H135861   0.867   4.383   3.600  3.0363  0.9691  0.1837
 4790TIP3    H235862   0.841   4.527   3.641 -1.2341  0.3986 -0.0781
 4791TIP3   OH235863   0.665   6.159   2.112 -0.0341  0.0644  0.0718
 4791TIP3    H135864   0.671   6.218   2.037  1.5071  1.5461  1.2763
 4791TIP3    H235865   0.718   6.084   2.089  0.0849  0.3171 -0.4847
 4792TIP3   OH235866   4.634   0.275  15.222 -0.4816 -0.0095  0.8289
 4792TIP3    H135867   4.636   0.198  15.279 -2.2275 -1.2908 -0.6887
 4792TIP3    H235868   4.699   0.256  15.154 -0.7744 -0.0716  0.5623
 4793TIP3   OH235869   0.432   4.346  10.729  0.1110  0.4005 -0.1260
 4793TIP3    H135870   0.493   4.350  10.655 -0.8047  0.1332 -0.9238
 4793TIP3    H235871   0.395   4.258  10.725 -0.7881  0.7679 -0.0512
 4794TIP3   OH235872   3.837   1.094  15.515  0.2266 -0.3574  0.0565
 4794TIP3    H135873   3.784   1.102  15.594  0.4150  1.8534  0.0051
 4794TIP3    H235874   3.774   1.069  15.447 -0.3216 -0.1505  0.4764
 4795TIP3   OH235875   1.261   0.295  14.086  0.3379 -0.3091 -0.2526
 4795TIP3    H135876   1.306   0.251  14.158  0.2179  0.8232  0.5315
 4795TIP3    H235877   1.168   0.288  14.108  0.2262 -0.9086 -0.8662
 4796TIP3   OH235878   0.874   6.064  13.743 -0.1477  0.2932 -0.0015
 4796TIP3    H135879   0.861   6.116  13.663  0.9358  0.4319 -0.1010
 4796TIP3    H235880   0.968   6.062  13.755 -0.0908 -2.0441 -0.2536
 4797TIP3   OH235881   3.961   0.521   5.405  0.1693  0.6389  0.8070
 4797TIP3    H135882   4.044   0.524   5.452  1.0057 -0.7894 -0.5123
 4797TIP3    H235883   3.917   0.442   5.438  0.1076  0.4412  0.2598
 4798TIP3   OH235884   5.081   1.136   4.564 -0.4609  0.0706 -0.0777
 4798TIP3    H135885   5.021   1.153   4.636  0.2001  0.9206  0.3004
 4798TIP3    H235886   5.029   1.149   4.485 -0.5389  1.8890  0.2264
 4799TIP3   OH235887   5.514   2.705   3.275 -0.9107  0.2099 -0.1090
 4799TIP3    H135888   5.567   2.749   3.342 -0.0758 -0.7702 -0.1110
 4799TIP3    H235889   5.570   2.703   3.198 -0.7243 -1.3285  0.0486
 4800TIP3   OH235890   5.144   5.886   5.091  0.5598 -0.0102 -0.8112
 4800TIP3    H135891   5.213   5.826   5.122  0.4811  1.1041  1.7021
 4800TIP3    H235892   5.156   5.965   5.143 -1.5031  0.9021 -1.6435
 4801TIP3   OH235893   3.312   1.047   4.795 -0.0844  0.2872 -0.0656
 4801TIP3    H135894   3.328   1.141   4.792  0.1197  0.3622  1.8392
 4801TIP3    H235895   3.386   1.008   4.748 -0.1585  1.0713 -0.8441
 4802TIP3   OH235896   4.775   1.236   2.558 -0.2835  0.5528 -0.2031
 4802TIP3    H135897   4.862   1.197   2.547  0.3572  2.2401 -1.5635
 4802TIP3    H235898   4.717   1.176   2.510  0.5390  0.7096 -1.4581
 4803TIP3   OH235899   0.886   5.283   2.902 -0.0375  0.6612 -0.1317
 4803TIP3    H135900   0.808   5.298   2.956  0.4648  2.0179  0.2734
 4803TIP3    H235901   0.946   5.236   2.960 -0.7468 -0.9768 -0.6490
 4804TIP3   OH235902   0.969   1.364   3.928 -0.2862  0.3924  0.6668
 4804TIP3    H135903   0.908   1.371   3.854 -0.9969  0.8129  1.2720
 4804TIP3    H235904   0.988   1.271   3.935  1.8371  0.5436 -1.6346
 4805TIP3   OH235905   5.846   1.549   6.262  0.2819 -0.4442  0.3245
 4805TIP3    H135906   5.831   1.643   6.248 -0.7791 -0.7608 -0.8800
 4805TIP3    H235907   5.922   1.545   6.319  0.7399  1.1527 -0.1237
 4806TIP3   OH235908   1.963   0.354   4.895 -0.3502 -0.2080  0.4398
 4806TIP3    H135909   1.956   0.413   4.970  0.5828  0.7000 -0.1711
 4806TIP3    H235910   2.018   0.400   4.832 -2.4767 -0.2102 -1.5536
 4807TIP3   OH235911   5.308   3.566  15.205 -0.0405 -0.0761  0.4367
 4807TIP3    H135912   5.261   3.649  15.213  0.9202  0.2491  4.2578
 4807TIP3    H235913   5.239   3.500  15.202 -0.8063  0.6733 -2.4267
 4808TIP3   OH235914   6.094   2.655   1.492 -0.0148  0.0046 -0.0147
 4808TIP3    H135915   6.116   2.623   1.580  0.4468  0.8024  0.1665
 4808TIP3    H235916   6.000   2.641   1.485  0.3061 -2.4855 -0.4013
 4809TIP3   OH235917   5.633   6.048  12.818 -0.3160 -0.0254  0.1545
 4809TIP3    H135918   5.670   6.121  12.769 -2.1269  0.4749 -0.5793
 4809TIP3    H235919   5.573   6.090  12.880 -0.9904 -0.8528  0.0773
 4810TIP3   OH235920   5.116   2.416  11.178 -0.3593 -0.6515 -0.1554
 4810TIP3    H135921   5.102   2.471  11.255  1.2348 -2.0087  1.1775
 4810TIP3    H235922   5.102   2.475  11.104  0.0669  1.2229  1.1719
 4811TIP3   OH235923   1.309   4.310   3.395 -0.3160 -0.5388  0.0251
 4811TIP3    H135924   1.276   4.369   3.463  0.3050  0.2302 -0.3185
 4811TIP3    H235925   1.334   4.368   3.323 -0.9373 -1.3364 -0.8602
 4812TIP3   OH235926   4.814   4.125   1.909  0.0107  0.5398  0.2165
 4812TIP3    H135927   4.736   4.070   1.913  0.0897  0.3900 -0.2214
 4812TIP3    H235928   4.787   4.208   1.949 -0.8894  1.0866 -1.4149
 4813TIP3   OH235929   2.144   6.048   3.549  0.0986  0.2557  0.0523
 4813TIP3    H135930   2.085   6.122   3.536 -1.0359  0.0022  3.0384
 4813TIP3    H235931   2.093   5.972   3.521 -0.0206  0.2777  0.2109
 4814TIP3   OH235932   0.917   0.403   4.065  0.0101 -0.4840 -0.2210
 4814TIP3    H135933   0.889   0.485   4.025 -0.3056  0.1124  1.1718
 4814TIP3    H235934   0.892   0.336   4.002 -2.0271  0.2639 -0.2771
 4815TIP3   OH235935   0.274   5.681   1.032  0.1890  0.7761 -0.0436
 4815TIP3    H135936   0.224   5.612   0.987 -1.6091  0.1274  2.7072
 4815TIP3    H235937   0.211   5.753   1.042  0.1175  0.4826  2.2415
 4816TIP3   OH235938   6.162   0.111  16.081 -0.3956 -0.0458  0.2582
 4816TIP3    H135939   6.135   0.071  15.998 -0.1143  1.0859 -0.4084
 4816TIP3    H235940   6.213   0.188  16.055 -1.8287  1.3716  1.4654
 4817TIP3   OH235941   4.527   3.153  16.110  0.0642 -0.4063  0.2638
 4817TIP3    H135942   4.593   3.139  16.177  1.9954  2.4263 -0.8179
 4817TIP3    H235943   4.511   3.248  16.111 -2.1783 -0.6754 -1.1817
 4818TIP3   OH235944   6.184   2.949   2.306 -0.9715  0.5234 -0.4243
 4818TIP3    H135945   6.122   2.923   2.375 -0.7236 -0.1751 -0.4626
 4818TIP3    H235946   6.162   2.893   2.232  0.6128 -0.7141  0.0106
 4819TIP3   OH235947   5.420   4.848   0.477 -0.4026  0.1277  0.0532
 4819TIP3    H135948   5.486   4.779   0.468 -0.7353 -0.3500  1.0537
 4819TIP3    H235949   5.340   4.800   0.499 -0.3002  0.8931  2.3625
 4820TIP3   OH235950   1.031   4.487  14.412 -0.1216  0.3215 -0.1345
 4820TIP3    H135951   1.014   4.484  14.318  1.2548  0.9324 -0.4347
 4820TIP3    H235952   1.105   4.428  14.425 -1.2848 -0.9895  0.8443
 4821TIP3   OH235953   6.437   5.056  10.972  0.8802  0.1125  0.4013
 4821TIP3    H135954   6.469   5.013  10.892  2.8693 -0.9625  1.7012
 4821TIP3    H235955   6.363   5.109  10.942 -0.4889 -2.7028 -1.6071
 4822TIP3   OH235956   1.082   6.419  12.075 -0.0121 -0.0214 -0.3711
 4822TIP3    H135957   0.999   6.399  12.031  1.1138 -0.7881 -2.2781
 4822TIP3    H235958   1.056   6.454  12.160 -2.2785 -0.7419 -0.6890
 4823TIP3   OH235959   6.889   4.593   3.639 -0.1372  0.1430  0.0542
 4823TIP3    H135960   6.961   4.534   3.619  0.1626  0.2470  0.8094
 4823TIP3    H235961   6.810   4.542   3.619  0.1279  0.1295 -1.0603
 4824TIP3   OH235962   2.700   6.596   9.831 -0.6745 -0.1514  0.5549
 4824TIP3    H135963   2.780   6.597   9.779  0.7277  0.6182  2.5970
 4824TIP3    H235964   2.700   6.511   9.874 -0.9218 -0.1240  0.6100
 4825TIP3   OH235965   2.078   2.856  13.520 -0.4707  0.1451 -0.4127
 4825TIP3    H135966   2.161   2.894  13.492  0.8701 -2.0325  0.3279
 4825TIP3    H235967   2.049   2.911  13.593 -0.3357  1.6370 -1.4605
 4826TIP3   OH235968   3.323   0.411   3.710  0.4653 -0.4152  0.2300
 4826TIP3    H135969   3.307   0.498   3.674 -0.7158 -0.9493 -0.5864
 4826TIP3    H235970   3.242   0.363   3.694  2.4603 -3.0317 -3.3215
 4827TIP3   OH235971   6.547   0.998  12.604 -0.7362  0.3438 -0.1638
 4827TIP3    H135972   6.580   1.034  12.686  0.0821  0.8331 -0.6964
 4827TIP3    H235973   6.625   0.962  12.560 -1.5171 -2.3680  0.4642
 4828TIP3   OH235974   1.331   5.897   1.605  0.2748  0.2248 -0.3789
 4828TIP3    H135975   1.289   5.983   1.606 -1.3638 -0.5210 -1.5214
 4828TIP3    H235976   1.335   5.872   1.697 -2.1286  0.2116 -0.2189
 4829TIP3   OH235977   1.555   6.665  12.220  0.8146  1.3052  0.5066
 4829TIP3    H135978   1.642   6.635  12.193 -0.9630 -1.3523 -3.0957
 4829TIP3    H235979   1.543   6.747  12.172  0.7923  0.8279 -0.3370
 4830TIP3   OH235980   4.875   0.465   4.944  0.4871 -0.9772  0.5589
 4830TIP3    H135981   4.798   0.439   4.996 -0.1859  1.0043  0.6392
 4830TIP3    H235982   4.950   0.439   4.998 -0.1837  0.4659  2.2983
 4831TIP3   OH235983   2.596   6.757  16.747 -0.6637  0.0371  0.1785
 4831TIP3    H135984   2.663   6.809  16.703 -2.2690  1.6523 -0.5118
 4831TIP3    H235985   2.522   6.817  16.756 -1.3159 -1.0408  2.7720
 4832TIP3   OH235986   5.347   6.712  12.513 -0.0254 -0.1616  0.6533
 4832TIP3    H135987   5.340   6.653  12.438  1.4279 -1.0777  1.1869
 4832TIP3    H235988   5.286   6.677  12.577 -1.6152  0.8903 -0.2261
 4833TIP3   OH235989   2.406   0.274  13.365 -1.0903  0.2647  0.3655
 4833TIP3    H135990   2.381   0.182  13.369  0.3467 -0.2204 -1.0511
 4833TIP3    H235991   2.492   0.274  13.322 -0.4568  2.1656  1.5245
 4834TIP3   OH235992   4.380   5.044   1.405  0.3033 -0.5780  0.7018
 4834TIP3    H135993   4.461   4.993   1.398  1.2843  0.7368  1.7141
 4834TIP3    H235994   4.340   5.015   1.487 -0.3595 -1.3463  0.1186
 4835TIP3   OH235995   5.336   0.668  12.164  0.0438 -0.1316  0.3700
 4835TIP3    H135996   5.354   0.633  12.252 -1.1494 -1.0396  0.2791
 4835TIP3    H235997   5.334   0.591  12.108  1.8881  0.5339 -0.6963
 4836TIP3   OH235998   4.680   1.287  11.973 -0.0869  0.4716  0.0295
 4836TIP3    H135999   4.693   1.193  11.957 -2.1008  0.3129 -0.9998
 4836TIP3    H236000   4.675   1.326  11.886  0.2557  1.4675  0.4414
 4837TIP3   OH236001   0.139   0.566  12.059 -0.1363 -0.6944  0.2541
 4837TIP3    H136002   0.106   0.504  11.994 -1.3587  0.5690 -0.3993
 4837TIP3    H236003   0.227   0.589  12.028  0.1249 -1.6914  0.2284
 4838TIP3   OH236004   3.955   2.970  13.572 -0.7360  0.4690  0.1741
 4838TIP3    H136005   3.969   2.921  13.652 -0.2658  0.4910  0.1106
 4838TIP3    H236006   4.000   2.919  13.504  1.6080  2.0254  0.4566
 4839TIP3   OH236007   1.203   6.285  16.871 -1.1967  0.1184  0.6248
 4839TIP3    H136008   1.234   6.329  16.950 -3.6782  0.4359  1.5230
 4839TIP3    H236009   1.167   6.202  16.903 -0.1655 -0.7903 -0.5144
 4840TIP3   OH236010   3.686   6.158  12.397 -0.3726  0.0725  0.4691
 4840TIP3    H136011   3.715   6.083  12.346 -1.1351 -0.6853  1.1215
 4840TIP3    H236012   3.609   6.127  12.445 -0.9750  1.3944  0.4197
 4841TIP3   OH236013   0.912   5.596  13.209 -0.3342  0.2714  0.6787
 4841TIP3    H136014   0.957   5.512  13.202 -1.4398 -0.1914 -2.8858
 4841TIP3    H236015   0.828   5.576  13.250 -0.3876 -0.3050  0.3006
 4842TIP3   OH236016   5.368   0.238  16.339  0.0160 -0.3905 -0.3454
 4842TIP3    H136017   5.287   0.285  16.360  0.0094 -1.5374  2.7737
 4842TIP3    H236018   5.426   0.305  16.303 -0.5867  1.7320  2.2597
 4843TIP3   OH236019   4.099   5.751  12.067  0.2327 -0.0919 -0.0543
 4843TIP3    H136020   4.115   5.806  12.144  0.7953  0.4545 -0.5488
 4843TIP3    H236021   4.076   5.813  11.998  0.0241 -0.5503 -0.4026
 4844TIP3   OH236022   5.453   0.628  16.440 -0.2667 -0.1139 -0.3546
 4844TIP3    H136023   5.441   0.696  16.507 -1.0693 -1.4894  0.9720
 4844TIP3    H236024   5.517   0.664  16.379 -0.4398  1.6896  0.4791
 4845TIP3   OH236025   3.683   5.029  11.576  0.0769  0.2584 -0.1741
 4845TIP3    H136026   3.663   5.104  11.633 -1.0900  0.3934 -0.7404
 4845TIP3    H236027   3.655   4.952  11.627 -1.0218  0.3830 -0.5757
 4846TIP3   OH236028   4.478   3.743   0.163 -0.2058 -0.4218  1.0947
 4846TIP3    H136029   4.485   3.752   0.258  0.2934  1.7397  0.9155
 4846TIP3    H236030   4.416   3.812   0.138  1.9244  1.0693 -0.3901
 4847TIP3   OH236031   4.020   4.863  14.816 -0.1926  0.1384 -0.1038
 4847TIP3    H136032   4.064   4.794  14.767  0.2539 -0.3059  0.9004
 4847TIP3    H236033   4.060   4.944  14.785  1.2122 -0.2409  0.6272
 4848TIP3   OH236034   4.221   4.091   3.164  0.2516  0.3025 -1.0658
 4848TIP3    H136035   4.235   4.184   3.181 -1.0594  0.4507 -0.6787
 4848TIP3    H236036   4.153   4.090   3.096 -0.4241 -0.3658 -0.4004
 4849TIP3   OH236037   0.820   6.322   3.618  0.2672 -0.1594 -0.2719
 4849TIP3    H136038   0.775   6.244   3.587  1.3939 -0.5158 -1.0494
 4849TIP3    H236039   0.757   6.363   3.678 -0.9552 -0.8159 -1.0554
 4850TIP3   OH236040   0.819   3.660  12.189 -0.2752 -0.2871  0.0975
 4850TIP3    H136041   0.786   3.683  12.275 -2.4737 -1.9829 -0.1990
 4850TIP3    H236042   0.877   3.732  12.165 -1.2496  1.2463  2.0976
 4851TIP3   OH236043   0.837   4.473  13.310 -0.0055  0.5582  0.1257
 4851TIP3    H136044   0.818   4.523  13.230  0.1394 -0.7226 -0.7344
 4851TIP3    H236045   0.929   4.493  13.328  0.6764 -0.9467 -1.3996
 4852TIP3   OH236046   3.241   5.677   0.122  0.0659  0.0006 -0.5804
 4852TIP3    H136047   3.281   5.751   0.166  0.0264 -0.2777 -0.0712
 4852TIP3    H236048   3.179   5.641   0.186  0.9224 -1.1758 -0.3924
 4853TIP3   OH236049   2.398   6.863   4.687 -0.2035 -0.1484  0.1853
 4853TIP3    H136050   2.457   6.809   4.738 -0.3322  0.1322  0.6358
 4853TIP3    H236051   2.394   6.947   4.734 -0.7724 -0.0840  0.0388
 4854TIP3   OH236052   0.133   0.745   2.102 -0.3980 -0.2717 -0.0647
 4854TIP3    H136053   0.191   0.783   2.035 -0.8238  0.3093 -0.1188
 4854TIP3    H236054   0.188   0.686   2.151  0.1222 -0.1010 -0.4325
 4855TIP3   OH236055   2.802   4.397  14.857  0.5333  0.2320  0.9202
 4855TIP3    H136056   2.807   4.321  14.916  3.6855 -1.2475 -0.9786
 4855TIP3    H236057   2.782   4.359  14.772 -0.3446  1.8865  0.3628
 4856TIP3   OH236058   1.400   0.102  10.237  0.2090  0.4845  0.1041
 4856TIP3    H136059   1.384   0.044  10.162  0.4604 -1.9186  1.8017
 4856TIP3    H236060   1.492   0.125  10.231  0.1830  0.4653 -0.4166
 4857TIP3   OH236061   5.523   4.824   2.109 -0.6675  0.6529  0.2151
 4857TIP3    H136062   5.432   4.800   2.091 -0.7759 -0.7375  2.2796
 4857TIP3    H236063   5.520   4.918   2.127 -2.0950  0.3062  2.1439
 4858TIP3   OH236064   4.838   2.811  15.424  0.1874  0.3742  0.0107
 4858TIP3    H136065   4.869   2.729  15.385  0.3853  0.0718  0.7767
 4858TIP3    H236066   4.744   2.812  15.407  0.2407  0.1564 -0.3025
 4859TIP3   OH236067   5.417   4.889  12.407  0.1651  0.2429  0.5201
 4859TIP3    H136068   5.345   4.949  12.423 -1.2262 -1.8696  3.0616
 4859TIP3    H236069   5.472   4.897  12.485  0.7063 -0.7413  0.2553
 4860TIP3   OH236070   4.794   3.410  13.529  0.4350  0.3446  0.5301
 4860TIP3    H136071   4.773   3.406  13.435 -0.2389  1.4218  0.6234
 4860TIP3    H236072   4.890   3.407  13.532  0.4523  0.0727 -0.1839
 4861TIP3   OH236073   6.883   5.387   4.025 -0.1883 -0.5176  0.3235
 4861TIP3    H136074   6.890   5.310   4.081 -0.0423 -0.3351  0.5602
 4861TIP3    H236075   6.946   5.372   3.955 -2.6659 -2.3053 -1.7064
 4862TIP3   OH236076   4.663   2.166   2.775 -0.0383 -0.4995 -0.3154
 4862TIP3    H136077   4.701   2.253   2.760  1.3790 -1.6319 -4.7471
 4862TIP3    H236078   4.720   2.126   2.841  0.2972  1.3115  0.5525
 4863TIP3   OH236079   5.372   3.379  14.225 -0.0362 -0.0352  0.3507
 4863TIP3    H136080   5.466   3.371  14.237 -0.2410 -2.0944  0.9505
 4863TIP3    H236081   5.333   3.337  14.302 -1.4241 -0.4448 -0.5192
 4864TIP3   OH236082   0.480   4.047   5.355  0.3055  0.1278 -0.0055
 4864TIP3    H136083   0.449   4.067   5.443  0.2455 -0.3619  0.0875
 4864TIP3    H236084   0.559   3.994   5.370 -0.0307 -0.4428 -0.2472
 4865TIP3   OH236085   5.756   3.170   5.350  0.2392 -0.5505  0.1908
 4865TIP3    H136086   5.742   3.255   5.392  0.2210 -0.3216 -0.2752
 4865TIP3    H236087   5.728   3.106   5.416  1.3154 -0.2410  0.9840
 4866TIP3   OH236088   4.332   2.027   4.818 -0.3677  0.7433 -0.3688
 4866TIP3    H136089   4.404   2.027   4.881 -0.2973 -2.0315 -0.3339
 4866TIP3    H236090   4.355   2.096   4.755  0.3306  2.5193  1.7333
 4867TIP3   OH236091   5.099   6.564  13.808  0.1722  0.7105  0.3496
 4867TIP3    H136092   5.007   6.571  13.834 -0.1785  0.3798 -0.7721
 4867TIP3    H236093   5.119   6.648  13.768  0.1673  0.5459 -0.0011
 4868TIP3   OH236094   3.252   4.695   5.077 -0.2106  0.0719 -0.1764
 4868TIP3    H136095   3.303   4.774   5.096 -0.3978 -0.2977  2.1413
 4868TIP3    H236096   3.283   4.631   5.142 -2.4264 -0.6828  0.2171
 4869TIP3   OH236097   0.938   3.061   1.170  0.4729  0.5095 -0.1360
 4869TIP3    H136098   0.977   2.975   1.179 -1.3425 -0.7521 -2.9049
 4869TIP3    H236099   0.877   3.068   1.243  2.1648  0.4302  1.3404
 4870TIP3   OH236100   4.509   3.886  13.674  0.4961  0.1671 -0.4340
 4870TIP3    H136101   4.599   3.855  13.664  0.4719  0.1626 -0.6399
 4870TIP3    H236102   4.457   3.805  13.680  0.4495  0.1668 -0.8231
 4871TIP3   OH236103   2.483   5.306  13.778 -0.6759 -0.2712  0.0100
 4871TIP3    H136104   2.499   5.384  13.830  0.8415 -0.1367 -0.6035
 4871TIP3    H236105   2.388   5.297  13.777 -0.8857  1.5390  0.1279
 4872TIP3   OH236106   4.830   4.851   3.226 -0.7778 -0.3819  0.5092
 4872TIP3    H136107   4.740   4.835   3.197 -0.5042  1.6273 -1.7971
 4872TIP3    H236108   4.830   4.942   3.255  1.0957  0.8125 -2.7067
 4873TIP3   OH236109   0.211   2.552   4.774 -0.1762 -0.4985 -0.1523
 4873TIP3    H136110   0.191   2.646   4.775 -0.6784 -0.5955  0.9096
 4873TIP3    H236111   0.130   2.511   4.746 -0.0882 -0.6384 -0.1990
 4874TIP3   OH236112   2.198   5.305   1.614 -0.1267  0.0961  0.0823
 4874TIP3    H136113   2.117   5.356   1.605  0.1688  0.5864  0.1689
 4874TIP3    H236114   2.237   5.336   1.695 -0.1610 -0.5863  0.3655
 4875TIP3   OH236115   4.084   3.584  12.588 -0.2957 -0.1363 -0.1110
 4875TIP3    H136116   3.991   3.578  12.613 -0.0902  1.6947  1.2875
 4875TIP3    H236117   4.116   3.662  12.633  2.3141 -1.5269  0.6243
 4876TIP3   OH236118   5.901   6.417   3.410  0.0181 -0.3667  0.5102
 4876TIP3    H136119   5.925   6.349   3.347  0.8005 -1.4589  1.9348
 4876TIP3    H236120   5.985   6.455   3.438 -0.3335  0.2801  0.7210
 4877TIP3   OH236121   6.520   3.653   5.631  0.3556 -0.1366 -0.0419
 4877TIP3    H136122   6.556   3.580   5.682  0.0139 -0.0646  0.3094
 4877TIP3    H236123   6.519   3.726   5.693  2.0473  0.5627 -0.8016
 4878TIP3   OH236124   0.238   3.028  15.431  0.3104 -0.0217 -0.1994
 4878TIP3    H136125   0.185   3.104  15.455  1.7757  0.9075  0.1909
 4878TIP3    H236126   0.300   3.017  15.503  0.7883 -0.9744 -0.7284
 4879TIP3   OH236127   6.888   2.594  14.329  0.0291  0.3566 -0.2562
 4879TIP3    H136128   6.866   2.522  14.389  0.2534 -0.1132 -0.7225
 4879TIP3    H236129   6.806   2.642  14.317 -0.0428  0.3807  0.3291
 4880TIP3   OH236130   2.849   2.488   4.610 -0.5458 -0.2941 -0.6258
 4880TIP3    H136131   2.875   2.400   4.637 -1.7420  0.2439  2.7755
 4880TIP3    H236132   2.885   2.545   4.678 -1.1129  1.6814 -1.9124
 4881TIP3   OH236133   2.525   0.225  10.847  0.2288 -0.5374 -0.2611
 4881TIP3    H136134   2.585   0.260  10.781  0.3659  0.6157  0.4397
 4881TIP3    H236135   2.478   0.155  10.802  1.8157 -1.2105 -0.9420
 4882TIP3   OH236136   3.573   1.729   0.284 -0.0252 -0.9809  0.0823
 4882TIP3    H136137   3.626   1.730   0.363  1.2699  0.1890 -0.7598
 4882TIP3    H236138   3.625   1.678   0.221 -0.1630 -0.3556 -0.5578
 4883TIP3   OH236139   0.161   1.410  15.859  0.4691 -0.1378 -0.0266
 4883TIP3    H136140   0.155   1.505  15.859  1.2675  0.0005 -2.9022
 4883TIP3    H236141   0.244   1.391  15.902  1.4681  0.6462 -1.5477
 4884TIP3   OH236142   1.538   6.404   1.279 -0.0933  0.1746 -0.1178
 4884TIP3    H136143   1.576   6.317   1.293  0.7548  0.4810 -0.4539
 4884TIP3    H236144   1.612   6.459   1.252 -0.1453  1.5788  2.2848
 4885TIP3   OH236145   6.205   3.498   4.743  0.0679  0.8656  0.6056
 4885TIP3    H136146   6.248   3.577   4.776 -0.3281  0.3485  2.4795
 4885TIP3    H236147   6.252   3.426   4.785 -0.7774  0.1920  0.4161
 4886TIP3   OH236148   3.083   5.567   0.315  0.3177 -0.3526 -0.2131
 4886TIP3    H136149   3.100   5.661   0.323  1.9058 -0.6513  0.1553
 4886TIP3    H236150   2.988   5.561   0.301  0.2545  1.3202 -0.6885
 4887TIP3   OH236151   1.720   3.384  10.583  0.1315 -0.0738  0.4074
 4887TIP3    H136152   1.709   3.467  10.538 -0.8784 -0.3894  0.0260
 4887TIP3    H236153   1.630   3.351  10.595  0.5268 -1.3595  0.0532
 4888TIP3   OH236154   1.205   1.641  14.942 -0.3458 -0.8521 -0.3482
 4888TIP3    H136155   1.142   1.701  14.901 -1.0990 -2.0448 -1.0065
 4888TIP3    H236156   1.152   1.585  14.999  0.3425 -0.9011  0.2573
 4889TIP3   OH236157   3.627   2.533   2.878 -0.3183  0.2475 -0.5405
 4889TIP3    H136158   3.580   2.457   2.846  0.0884  0.6507 -2.1968
 4889TIP3    H236159   3.716   2.522   2.845  1.0746 -0.8817  3.1601
 4890TIP3   OH236160   4.889   1.363   6.039  0.0974  0.2381 -0.2235
 4890TIP3    H136161   4.917   1.444   6.081  0.6159 -0.7436  1.4628
 4890TIP3    H236162   4.799   1.380   6.011 -0.9710  0.5156  2.9124
 4891TIP3   OH236163   5.996   5.071   5.797 -0.3281  0.4368 -0.5294
 4891TIP3    H136164   6.070   5.132   5.790 -2.3314  3.1640  0.4504
 4891TIP3    H236165   6.012   5.023   5.878 -0.7942  2.8491  1.0944
 4892TIP3   OH236166   2.973   2.785  13.142  0.0955 -0.0434  0.2581
 4892TIP3    H136167   2.881   2.763  13.133 -0.0766  0.8322 -0.2379
 4892TIP3    H236168   2.976   2.849  13.213  0.3539 -0.2001  0.3947
 4893TIP3   OH236169   1.173   6.682  10.706  0.5675 -0.1447 -0.1618
 4893TIP3    H136170   1.122   6.735  10.645 -2.3142 -0.2488  1.9695
 4893TIP3    H236171   1.181   6.736  10.785  1.4089 -1.1954  0.5113
 4894TIP3   OH236172   4.674   2.746  16.126 -0.1168  0.1931 -0.0851
 4894TIP3    H136173   4.654   2.669  16.180 -1.7005  0.2085 -0.5979
 4894TIP3    H236174   4.611   2.741  16.054 -0.6411  2.3009  0.1833
 4895TIP3   OH236175   1.878   4.489   4.187 -0.4610  0.2059 -0.6302
 4895TIP3    H136176   1.895   4.421   4.121  1.7447  0.6757 -0.6157
 4895TIP3    H236177   1.840   4.441   4.261 -0.0683 -0.8217 -1.0701
 4896TIP3   OH236178   2.496   1.480  12.597  0.6587 -0.1060 -0.0588
 4896TIP3    H136179   2.422   1.462  12.655 -0.4722  0.6875 -1.1951
 4896TIP3    H236180   2.563   1.418  12.624 -0.1425 -0.3577  1.5025
 4897TIP3   OH236181   4.304   5.391  11.930 -0.0097 -0.5901  0.0135
 4897TIP3    H136182   4.292   5.471  11.878 -0.0153 -0.4927  0.1624
 4897TIP3    H236183   4.250   5.405  12.008 -0.2315 -0.8596 -0.0914
 4898TIP3   OH236184   2.416   2.524   4.412 -0.0880  0.4070  0.6087
 4898TIP3    H136185   2.386   2.548   4.325  0.8368  0.6132  0.3329
 4898TIP3    H236186   2.479   2.592   4.435 -0.3219  0.3500  1.4321
 4899TIP3   OH236187   0.408   3.939  11.959 -0.1201 -0.9630  0.3151
 4899TIP3    H136188   0.315   3.920  11.946 -0.2815  0.3619 -0.7106
 4899TIP3    H236189   0.451   3.853  11.956 -1.3140 -1.6004  0.9357
 4900TIP3   OH236190   4.872   4.527   1.810  0.0780 -0.1083 -0.4014
 4900TIP3    H136191   4.856   4.610   1.856  5.2421 -0.2322  2.4012
 4900TIP3    H236192   4.911   4.554   1.727 -0.9460  0.1991 -0.7960
 4901TIP3   OH236193   5.313   5.028  14.774 -0.0336  0.2090  0.1760
 4901TIP3    H136194   5.324   5.060  14.864  1.5361 -0.6424  0.3269
 4901TIP3    H236195   5.259   5.094  14.732 -1.8102  0.0506  2.0479
 4902TIP3   OH236196   6.680   6.131   0.327  0.1578 -0.3722  0.0384
 4902TIP3    H136197   6.722   6.196   0.384  0.4830 -1.4174  1.0272
 4902TIP3    H236198   6.664   6.178   0.245  0.4075  0.9436  0.7127
 4903TIP3   OH236199   1.465   0.994  11.359 -0.1153 -0.0388 -0.1882
 4903TIP3    H136200   1.385   1.009  11.309 -0.5623  0.9048  0.7698
 4903TIP3    H236201   1.512   0.927  11.310 -0.3480  1.1220 -2.0883
 4904TIP3   OH236202   6.795   5.939  12.039  0.3352 -0.2342  0.5485
 4904TIP3    H136203   6.858   6.009  12.019 -1.1891  1.4848  1.5500
 4904TIP3    H236204   6.805   5.923  12.132  1.0932 -1.8472  0.2288
 4905TIP3   OH236205   6.353   1.741   4.916 -0.1259 -1.0037 -0.3093
 4905TIP3    H136206   6.361   1.646   4.903  0.0466 -1.4613  2.4656
 4905TIP3    H236207   6.396   1.758   5.000  0.5104  1.6908 -1.0800
 4906TIP3   OH236208   4.264   1.581  16.808  0.0583 -0.0057  0.1048
 4906TIP3    H136209   4.193   1.518  16.792  0.6285 -1.3101  2.3871
 4906TIP3    H236210   4.341   1.527  16.823  1.2231  1.3672 -0.7202
 4907TIP3   OH236211   1.787   5.564   2.282  0.2211  0.1313 -0.0231
 4907TIP3    H136212   1.723   5.550   2.352 -1.2521  1.7868 -0.9551
 4907TIP3    H236213   1.768   5.653   2.250  2.8134  0.5574 -0.5445
 4908TIP3   OH236214   0.192   5.852  15.974  0.0661  0.3862 -1.1205
 4908TIP3    H136215   0.267   5.876  15.920  2.0501 -0.2086  1.1731
 4908TIP3    H236216   0.190   5.920  16.042 -1.2758  0.1808 -0.9312
 4909TIP3   OH236217   5.328   5.732   1.020  0.4299 -0.1549  0.2001
 4909TIP3    H136218   5.370   5.753   0.936 -0.0052  0.1575  0.0590
 4909TIP3    H236219   5.398   5.739   1.084  0.8916 -0.9145 -0.2040
 4910TIP3   OH236220   4.612   1.183  15.380  0.5493  0.1485 -0.0341
 4910TIP3    H136221   4.656   1.236  15.448  0.9759  0.1141 -0.2798
 4910TIP3    H236222   4.623   1.234  15.300  0.2174  0.0925 -0.1141
 4911TIP3   OH236223   2.045   3.729  15.814 -0.0477  0.1126  0.2370
 4911TIP3    H136224   2.000   3.657  15.770 -0.0746  1.2366 -1.6987
 4911TIP3    H236225   1.979   3.765  15.874 -0.7868 -0.0486 -0.4622
 4912TIP3   OH236226   0.498   5.384  13.753 -0.0234 -0.2709 -0.0689
 4912TIP3    H136227   0.563   5.423  13.694 -0.4825  2.5403  1.1418
 4912TIP3    H236228   0.414   5.417  13.720 -0.8550 -3.0052 -0.9657
 4913TIP3   OH236229   3.768   0.202   3.970 -0.3705 -0.1414 -0.7213
 4913TIP3    H136230   3.777   0.236   3.881  0.8413  1.1499 -0.1538
 4913TIP3    H236231   3.682   0.160   3.972 -0.5596  0.1087 -2.3905
 4914TIP3   OH236232   4.820   0.335   4.647  0.1881  0.2196 -0.0039
 4914TIP3    H136233   4.857   0.414   4.688 -0.4156 -0.2434  1.4859
 4914TIP3    H236234   4.820   0.270   4.717 -1.3206 -0.4645 -0.6137
 4915TIP3   OH236235   3.984   4.844   2.189  0.1019 -0.8143 -0.3176
 4915TIP3    H136236   4.060   4.886   2.148  0.1718 -1.7689 -1.2044
 4915TIP3    H236237   3.916   4.847   2.122 -1.2616  1.5997  1.0563
 4916TIP3   OH236238   4.689   4.193   3.616  0.2224 -0.4056  0.1552
 4916TIP3    H136239   4.744   4.130   3.570  0.7868  0.6564 -0.6640
 4916TIP3    H236240   4.626   4.139   3.663 -0.3053 -1.5465 -1.7505
 4917TIP3   OH236241   2.289   0.993  15.482 -0.2026 -0.4991 -0.0572
 4917TIP3    H136242   2.345   1.007  15.406 -0.7469 -0.8985 -0.5374
 4917TIP3    H236243   2.239   1.074  15.491 -0.2784 -0.5270 -0.2378
 4918TIP3   OH236244   4.665   0.103  12.162  0.5728 -0.0437  0.2064
 4918TIP3    H136245   4.690   0.065  12.246 -1.8307  1.0870  1.5486
 4918TIP3    H236246   4.613   0.180  12.185  0.4213  0.7216 -2.3503
 4919TIP3   OH236247   5.119   4.649  14.632  0.8353 -0.5289  0.2099
 4919TIP3    H136248   5.172   4.623  14.557  1.0175  1.4566 -0.4052
 4919TIP3    H236249   5.165   4.614  14.708  2.5878  0.3850 -0.3684
 4920TIP3   OH236250   1.914   1.560  15.812  0.3163 -0.0447  0.0684
 4920TIP3    H136251   1.869   1.477  15.795 -2.4183  1.3401 -0.0540
 4920TIP3    H236252   1.958   1.547  15.895 -1.7716 -1.0511  1.1085
 4921TIP3   OH236253   5.482   5.993  15.003  0.0479 -0.1771  0.3235
 4921TIP3    H136254   5.404   6.048  15.005 -0.6683 -1.1232 -0.3206
 4921TIP3    H236255   5.522   6.005  15.089  0.4036  1.9838 -0.0976
 4922TIP3   OH236256   4.637   1.846   1.089 -0.4356 -0.6255  0.0291
 4922TIP3    H136257   4.716   1.897   1.068 -0.3071 -0.3886  1.0066
 4922TIP3    H236258   4.666   1.755   1.088 -0.6030 -0.6746 -1.4714
 4923TIP3   OH236259   5.756   4.594   1.373  0.3996  0.3869  0.5801
 4923TIP3    H136260   5.752   4.516   1.317  0.3129  0.2452  0.7820
 4923TIP3    H236261   5.811   4.656   1.325  0.4570  0.2053  0.4124
 4924TIP3   OH236262   3.260   4.208   0.468 -0.0024  0.1289  0.3225
 4924TIP3    H136263   3.211   4.289   0.465  0.3004  0.2942 -0.7607
 4924TIP3    H236264   3.293   4.197   0.379 -0.2468 -1.3086  0.3832
 4925TIP3   OH236265   4.239   3.323   4.454  0.0902 -0.0702 -0.4206
 4925TIP3    H136266   4.245   3.404   4.404  1.2595 -0.1846 -0.5088
 4925TIP3    H236267   4.147   3.315   4.478  0.0184  1.4466 -0.1288
 4926TIP3   OH236268   4.304   4.712   0.373  0.3851  0.4052 -0.6954
 4926TIP3    H136269   4.218   4.709   0.415  1.1291  2.4497  1.1823
 4926TIP3    H236270   4.337   4.623   0.378 -0.7102  0.0454  0.6385
 4927TIP3   OH236271   2.622   0.276   4.803  0.5457  1.0488 -0.1710
 4927TIP3    H136272   2.633   0.299   4.711 -0.3027  0.1546 -0.5164
 4927TIP3    H236273   2.668   0.345   4.851  3.5405  0.0158 -1.3175
 4928TIP3   OH236274   0.891   5.588   0.964  0.1862  0.2666  0.1669
 4928TIP3    H136275   0.921   5.677   0.943  2.1334 -0.1406  0.9366
 4928TIP3    H236276   0.800   5.598   0.989  0.0480  1.8808 -0.8293
 4929TIP3   OH236277   0.786   3.585  16.836  0.3500 -0.5506  0.6206
 4929TIP3    H136278   0.846   3.658  16.849  2.0488 -1.5307 -1.1645
 4929TIP3    H236279   0.738   3.578  16.919  2.0448  0.8736  1.7922
 4930TIP3   OH236280   6.274   3.048   1.913 -0.1512  0.2447  0.3020
 4930TIP3    H136281   6.273   2.971   1.856  0.5206  0.4704 -0.0316
 4930TIP3    H236282   6.359   3.089   1.896 -0.0725  0.4995  1.2343
 4931TIP3   OH236283   0.207   4.983  15.485  0.0191 -0.3879  0.1127
 4931TIP3    H136284   0.259   5.051  15.528 -0.0962  0.1276 -0.5476
 4931TIP3    H236285   0.122   5.024  15.469  0.8702  0.4116 -3.0529
 4932TIP3   OH236286   5.275   1.189   1.025 -0.0903 -0.1088 -0.4636
 4932TIP3    H136287   5.326   1.244   1.083 -1.4756  0.0145  0.6954
 4932TIP3    H236288   5.219   1.250   0.977  0.2676 -0.3020 -1.1356
 4933TIP3   OH236289   0.037   1.805   6.016  0.5473  0.7346  0.2359
 4933TIP3    H136290   0.069   1.717   5.997  2.1575  1.3954 -0.2764
 4933TIP3    H236291  -0.057   1.800   6.002  0.5877 -0.9379  0.3727
 4934TIP3   OH236292   0.567   0.392   0.901  0.0190  0.1420  0.0967
 4934TIP3    H136293   0.587   0.465   0.959 -2.4360  1.7639 -0.9235
 4934TIP3    H236294   0.498   0.425   0.844 -0.9058 -2.8689 -0.7210
 4935TIP3   OH236295   3.047   0.467  16.650  0.1369 -0.0604  0.1333
 4935TIP3    H136296   3.066   0.389  16.702 -0.8695 -0.5008 -0.1559
 4935TIP3    H236297   3.082   0.448  16.563  0.1347 -0.0714  0.1352
 4936TIP3   OH236298   4.265   6.310  11.881  0.3113 -0.1322  0.0486
 4936TIP3    H136299   4.281   6.340  11.971 -0.8273  0.3605  0.1036
 4936TIP3    H236300   4.247   6.389  11.831 -1.5150 -0.5762 -0.0648
 4937TIP3   OH236301   6.038   4.742  11.582  0.1666  0.7676 -0.0669
 4937TIP3    H136302   6.050   4.811  11.647 -0.7499  2.1332 -1.2671
 4937TIP3    H236303   6.023   4.789  11.500  1.4338 -0.8844 -1.3168
 4938TIP3   OH236304   6.886   3.907  14.199  0.0771  0.1346  0.5789
 4938TIP3    H136305   6.812   3.849  14.218 -0.0622 -0.7047 -2.0716
 4938TIP3    H236306   6.849   3.995  14.197 -1.0881 -0.3437 -1.4471
 4939TIP3   OH236307   3.589   4.863  15.834  0.5213  0.0735 -0.1557
 4939TIP3    H136308   3.569   4.952  15.805 -1.1389 -0.7992 -1.8880
 4939TIP3    H236309   3.683   4.862  15.847  0.3808  2.6000  1.8204
 4940TIP3   OH236310   6.656   5.748  10.720 -0.2660 -0.4135 -0.5597
 4940TIP3    H136311   6.739   5.737  10.766 -1.6065 -0.2468  2.1016
 4940TIP3    H236312   6.680   5.763  10.629  2.5743 -0.8922  0.0398
 4941TIP3   OH236313   5.187   1.275   5.602 -0.0149  0.0091 -0.1389
 4941TIP3    H136314   5.279   1.282   5.575  0.3967 -3.4839 -0.1616
 4941TIP3    H236315   5.192   1.253   5.696 -0.7286 -0.9651 -0.3096
 4942TIP3   OH236316   5.565   1.125   4.845 -0.1774 -0.1761  0.2990
 4942TIP3    H136317   5.485   1.082   4.814 -1.0097  1.3914  0.1470
 4942TIP3    H236318   5.591   1.183   4.774  0.1615  0.5296  0.9789
 4943TIP3   OH236319   6.111   4.939   2.985  0.5322  0.2814 -0.2157
 4943TIP3    H136320   6.111   4.928   3.080  0.5620  0.6077 -0.1787
 4943TIP3    H236321   6.202   4.961   2.963  1.7168 -4.1437 -0.8273
 4944TIP3   OH236322   0.622   3.426  12.989  0.0990  0.4446 -0.6590
 4944TIP3    H136323   0.532   3.393  12.980 -0.6081  2.2700 -0.7323
 4944TIP3    H236324   0.671   3.383  12.919 -0.5311 -1.0829 -0.2102
 4945TIP3   OH236325   2.353   1.261   3.577  0.6450 -0.4793 -0.2833
 4945TIP3    H136326   2.375   1.232   3.489 -3.0437 -0.0044 -1.5018
 4945TIP3    H236327   2.302   1.189   3.614 -0.2025  0.4642  0.4214
 4946TIP3   OH236328   2.627   1.574   5.246  0.4583  0.5119 -0.2640
 4946TIP3    H136329   2.638   1.660   5.205  0.1144 -0.3028 -2.1611
 4946TIP3    H236330   2.559   1.588   5.313 -1.8859  1.1298 -2.6122
 4947TIP3   OH236331   1.396   3.349  15.751  0.2548 -0.3966  0.5317
 4947TIP3    H136332   1.338   3.382  15.820 -0.8111 -0.9156 -0.0874
 4947TIP3    H236333   1.456   3.421  15.733 -3.4568  2.3582 -2.4498
 4948TIP3   OH236334   4.311   2.545   3.952 -0.4773 -1.0238  0.2425
 4948TIP3    H136335   4.380   2.549   3.886 -3.3666  0.1202 -3.0562
 4948TIP3    H236336   4.277   2.456   3.946  0.0312 -1.3005  1.1867
 4949TIP3   OH236337   1.334   3.876  14.754 -0.0164  1.0730 -0.0899
 4949TIP3    H136338   1.256   3.932  14.748  0.3159  1.5032 -0.5063
 4949TIP3    H236339   1.328   3.835  14.840 -1.3619  0.1167 -0.6002
 4950TIP3   OH236340   0.472   2.555   1.098  0.3947  0.0438 -0.6411
 4950TIP3    H136341   0.385   2.594   1.091  1.0285  1.4792 -0.8782
 4950TIP3    H236342   0.520   2.591   1.023  1.0916 -1.0311 -0.7356
 4951TIP3   OH236343   5.065   5.144   3.846 -0.4559  0.9082 -0.2364
 4951TIP3    H136344   5.065   5.231   3.886  1.5721  0.8810 -0.0651
 4951TIP3    H236345   5.119   5.090   3.905 -1.8249 -0.5366 -0.2327
 4952TIP3   OH236346   6.272   3.261   4.868 -0.5738 -0.0973  0.4091
 4952TIP3    H136347   6.334   3.210   4.920  0.3921  1.0981  0.4815
 4952TIP3    H236348   6.186   3.226   4.891  0.1196 -3.1762 -1.1881
 4953TIP3   OH236349   5.425   5.750   2.357  0.3970 -0.0898  0.0322
 4953TIP3    H136350   5.433   5.657   2.333 -1.9957 -0.1279 -0.9084
 4953TIP3    H236351   5.388   5.791   2.279 -2.8362  0.7763  1.8376
 4954TIP3   OH236352   4.939   5.015   4.503  0.1510  0.5399  1.4377
 4954TIP3    H136353   4.889   5.077   4.450  1.9515 -1.2376 -2.6924
 4954TIP3    H236354   4.881   4.940   4.514  1.0570 -0.7571 -1.7511
 4955TIP3   OH236355   4.644   2.291  15.695 -0.1177  0.1479  0.1481
 4955TIP3    H136356   4.666   2.204  15.663  0.2627  0.2874  0.0289
 4955TIP3    H236357   4.707   2.349  15.653 -0.3933  0.4873  0.1936
 4956TIP3   OH236358   3.691   5.450   6.160  0.1918  0.0917  0.0441
 4956TIP3    H136359   3.641   5.463   6.080 -0.1995 -0.4018  0.2007
 4956TIP3    H236360   3.675   5.358   6.184  0.7399  0.0794  0.3908
 4957TIP3   OH236361   0.283   3.921  15.504  0.3496  0.1711 -0.3570
 4957TIP3    H136362   0.279   3.834  15.465 -0.3304  0.6208 -1.3110
 4957TIP3    H236363   0.368   3.955  15.477  0.1538  0.2264 -0.9195
 4958TIP3   OH236364   4.650   5.763   4.202  0.1051 -0.2707 -0.0108
 4958TIP3    H136365   4.674   5.671   4.213  0.1860 -0.6758 -2.8442
 4958TIP3    H236366   4.732   5.811   4.208  0.0801 -0.3567  1.3349
 4959TIP3   OH236367   5.408   3.567   1.288  0.1642  0.1339 -0.3381
 4959TIP3    H136368   5.330   3.528   1.326  1.1093 -1.9041 -0.3470
 4959TIP3    H236369   5.449   3.614   1.361 -0.0261 -0.4930  0.1833
 4960TIP3   OH236370   1.453   4.273   1.913  0.1593  0.3171 -0.7062
 4960TIP3    H136371   1.444   4.349   1.971  1.3844 -0.2562  0.2948
 4960TIP3    H236372   1.396   4.292   1.839 -1.6902  0.9658  0.7968
 4961TIP3   OH236373   1.647   6.864   4.707 -0.0491 -0.5205  0.0597
 4961TIP3    H136374   1.660   6.851   4.613  0.6862  1.1882 -0.1287
 4961TIP3    H236375   1.726   6.912   4.735 -0.4315 -0.6692  1.4685
 4962TIP3   OH236376   5.919   5.671   4.138 -0.3257 -0.2769 -0.6308
 4962TIP3    H136377   5.869   5.653   4.058  0.8325 -3.0296 -0.8134
 4962TIP3    H236378   5.902   5.596   4.195  0.0402  0.9322  1.1548
 4963TIP3   OH236379   6.194   6.665  14.115 -0.9901  0.6538  0.2460
 4963TIP3    H136380   6.237   6.653  14.200  0.1057 -0.6538 -0.4447
 4963TIP3    H236381   6.197   6.760  14.100  1.5132  0.6837  0.3765
 4964TIP3   OH236382   3.138   4.865   0.321 -0.3472  0.3897  0.5011
 4964TIP3    H136383   3.154   4.856   0.415  0.6902  1.6386  0.4691
 4964TIP3    H236384   3.052   4.824   0.307 -0.6936  0.5348  2.0483
 4965TIP3   OH236385   6.689   5.312   5.692  0.3682 -0.2604  0.0644
 4965TIP3    H136386   6.601   5.275   5.687 -0.4775  1.3235  1.7519
 4965TIP3    H236387   6.717   5.295   5.782  1.7861 -0.6719 -0.4253
 4966TIP3   OH236388   5.018   0.090  13.121 -0.1912  0.1122  0.3641
 4966TIP3    H136389   5.074   0.165  13.100  0.1794 -0.4650 -0.8162
 4966TIP3    H236390   4.929   0.125  13.120  0.0144  0.6371  0.3174
 4967TIP3   OH236391   5.331   1.841   2.870 -0.5127 -0.2223  0.1234
 4967TIP3    H136392   5.310   1.749   2.888 -0.6089 -0.7849 -2.5294
 4967TIP3    H236393   5.413   1.838   2.821 -0.1980  1.1726  0.5193
 4968TIP3   OH236394   6.540   5.046  10.499 -0.2499 -0.6593  0.1088
 4968TIP3    H136395   6.506   5.006  10.418 -0.0555 -1.4200  0.3940
 4968TIP3    H236396   6.590   5.121  10.469  2.8401 -2.8847 -0.8404
 4969TIP3   OH236397   2.503   4.778   4.080  0.1546 -0.1052  0.0409
 4969TIP3    H136398   2.471   4.840   4.146  0.7501  1.6415 -1.2205
 4969TIP3    H236399   2.469   4.693   4.108 -1.6677  0.9458  1.2456
 4970TIP3   OH236400   2.579   4.926   3.092 -0.3672  0.0687 -0.0513
 4970TIP3    H136401   2.624   4.865   3.151 -0.8981 -1.9879 -1.6242
 4970TIP3    H236402   2.486   4.915   3.113 -0.8095 -2.4231 -2.5579
 4971TIP3   OH236403   1.388   1.139  12.552 -0.4944  0.0355 -0.1988
 4971TIP3    H136404   1.404   1.187  12.633  1.3251 -0.5455 -0.1816
 4971TIP3    H236405   1.363   1.051  12.580 -0.5232  0.0191 -0.2732
 4972TIP3   OH236406   5.403   3.713  13.897  0.1412 -0.6914  0.2010
 4972TIP3    H136407   5.348   3.724  13.820 -0.4114 -0.7075  0.5837
 4972TIP3    H236408   5.367   3.774  13.962 -0.7617 -2.1730  1.1550
 4973TIP3   OH236409   5.451   2.226  15.169 -0.2362 -0.2912  0.0154
 4973TIP3    H136410   5.518   2.257  15.109 -0.5839  0.9987  0.2630
 4973TIP3    H236411   5.410   2.152  15.123 -0.8924  1.0220 -1.6256
 4974TIP3   OH236412   4.212   1.887   5.716 -0.6240  0.1409 -0.2320
 4974TIP3    H136413   4.255   1.837   5.646 -0.1575  0.6115 -0.2934
 4974TIP3    H236414   4.138   1.833   5.742  0.3738 -1.0026  0.3164
 4975TIP3   OH236415   5.421   6.152   2.071 -0.2209 -0.4694 -0.5092
 4975TIP3    H136416   5.348   6.165   2.012 -3.4357  3.1163  3.5553
 4975TIP3    H236417   5.464   6.238   2.075  0.3885 -0.8087  1.5855
 4976TIP3   OH236418   5.160   6.607   5.065 -0.0799  0.2543 -0.2019
 4976TIP3    H136419   5.119   6.543   5.123 -0.0920  0.9399  0.5791
 4976TIP3    H236420   5.111   6.600   4.983 -1.2606  0.4906  0.4476
 4977TIP3   OH236421   2.751   4.149  13.735  0.0313  0.0536 -0.4584
 4977TIP3    H136422   2.772   4.229  13.782  1.0957 -0.1090 -0.6472
 4977TIP3    H236423   2.710   4.179  13.654 -1.9038  0.3360  0.5511
 4978TIP3   OH236424   5.399   6.548  16.690  0.0493  0.7994  0.5501
 4978TIP3    H136425   5.444   6.632  16.683 -0.4682  1.0120 -0.3779
 4978TIP3    H236426   5.419   6.517  16.779 -0.4181  2.2810  1.1999
 4979TIP3   OH236427   2.614   1.048   0.298  0.1279  0.5958  0.6033
 4979TIP3    H136428   2.536   1.036   0.244 -0.2105 -0.6909  1.3494
 4979TIP3    H236429   2.597   0.996   0.377  2.3748 -1.0557  0.0956
 4980TIP3   OH236430   2.060   3.258   3.316 -0.2433  0.0379  0.1387
 4980TIP3    H136431   2.113   3.242   3.394  1.5981 -0.6970 -1.1872
 4980TIP3    H236432   2.086   3.189   3.255 -1.4246  0.7505 -1.2397
 4981TIP3   OH236433   6.597   0.311  12.713  0.0025  0.0655  0.7124
 4981TIP3    H136434   6.570   0.403  12.717  1.9917  0.6550  3.2677
 4981TIP3    H236435   6.577   0.276  12.800  1.7227 -1.1359  0.6650
 4982TIP3   OH236436   5.335   3.106   2.649  0.7196 -0.1490 -0.1116
 4982TIP3    H136437   5.411   3.156   2.679  0.9332  0.4633 -1.6014
 4982TIP3    H236438   5.304   3.153   2.571 -1.7942  0.1995  0.9869
 4983TIP3   OH236439   0.959   3.958   1.996 -0.1481  0.0109 -0.3708
 4983TIP3    H136440   0.958   3.866   2.020  0.4776 -0.5868 -2.4428
 4983TIP3    H236441   0.992   3.960   1.906  0.7749  2.3355 -0.0712
 4984TIP3   OH236442   4.818   3.670  15.968  0.1647 -0.3471  0.1064
 4984TIP3    H136443   4.887   3.632  16.022 -0.3257 -0.5423  0.6000
 4984TIP3    H236444   4.860   3.744  15.924  0.7889 -0.7023  0.0997
 4985TIP3   OH236445   0.298   4.064  10.772 -0.4670 -0.0709  0.5119
 4985TIP3    H136446   0.261   3.988  10.817  0.8817 -0.9025  0.2500
 4985TIP3    H236447   0.309   4.036  10.681  1.5746 -0.1520  0.7522
 4986TIP3   OH236448   6.798   5.410  14.017  0.2381  0.9534  0.5447
 4986TIP3    H136449   6.792   5.315  14.020  2.1911  0.7377 -0.3989
 4986TIP3    H236450   6.741   5.441  14.087 -0.3128 -0.9057  0.9550
 4987TIP3   OH236451   3.940   0.764  13.504 -0.1431 -0.1047 -0.4206
 4987TIP3    H136452   3.883   0.723  13.570  1.3011 -0.6232  0.5675
 4987TIP3    H236453   3.956   0.852  13.538 -0.7822  0.2290 -0.9739
 4988TIP3   OH236454   1.283   3.174  14.275  0.3456  0.2413  0.4486
 4988TIP3    H136455   1.232   3.108  14.228  0.7781 -0.8097  1.3873
 4988TIP3    H236456   1.228   3.199  14.349 -0.1327  1.5217 -0.3219
 4989TIP3   OH236457   0.141   1.468  13.716 -0.0713 -0.0318 -0.2506
 4989TIP3    H136458   0.183   1.470  13.802 -1.1136 -0.3248  0.2945
 4989TIP3    H236459   0.158   1.380  13.683 -2.6797 -1.2343  1.2922
 4990TIP3   OH236460   4.726   5.377  13.731 -0.7200  0.3030  0.4402
 4990TIP3    H136461   4.765   5.440  13.792 -1.0755 -0.2197  1.2303
 4990TIP3    H236462   4.730   5.420  13.646  3.1396 -0.4018  0.0987
 4991TIP3   OH236463   0.815   4.586  11.722 -0.1260 -0.5172 -0.0633
 4991TIP3    H136464   0.883   4.633  11.674 -0.8072  0.2937 -0.2632
 4991TIP3    H236465   0.735   4.601  11.672 -0.3919 -1.7859 -0.0424
 4992TIP3   OH236466   1.880   6.900  12.167  0.2049 -0.0139  0.3184
 4992TIP3    H136467   1.848   6.870  12.252  1.9359 -2.4497  0.2052
 4992TIP3    H236468   1.841   6.841  12.103  0.5476  0.4770 -0.3726
 4993TIP3   OH236469   5.456   6.393  15.153  0.4864  0.1100 -0.2975
 4993TIP3    H136470   5.412   6.475  15.174  0.2591  0.3157 -1.5057
 4993TIP3    H236471   5.384   6.334  15.126  0.7392 -0.2032 -0.2951
 4994TIP3   OH236472   1.650   2.146   4.777  0.3234  0.5074  0.2111
 4994TIP3    H136473   1.583   2.211   4.756  0.1604  0.3769  0.3236
 4994TIP3    H236474   1.731   2.183   4.742  0.3643  1.1210  0.9192
 4995TIP3   OH236475   5.028   6.869  13.663 -0.6237  0.2191 -0.0653
 4995TIP3    H136476   5.116   6.907  13.672 -0.3509 -0.6207  0.8596
 4995TIP3    H236477   4.970   6.934  13.702  0.0193 -1.0296  3.2919
 4996TIP3   OH236478   4.998   2.224   5.421 -0.2943 -0.2200 -0.1654
 4996TIP3    H136479   4.927   2.199   5.481 -0.0039  0.5094  0.5041
 4996TIP3    H236480   4.994   2.320   5.418  1.2178 -0.1092  0.5931
 4997TIP3   OH236481   3.140   3.196   1.389  0.7701 -0.2063  0.4545
 4997TIP3    H136482   3.230   3.210   1.359  1.0440  0.4060  1.5330
 4997TIP3    H236483   3.101   3.284   1.390  0.2432 -0.4306  0.2988
 4998TIP3   OH236484   4.244   5.671   5.241 -0.3531  0.2957  0.0873
 4998TIP3    H136485   4.188   5.620   5.299  0.7302  0.1005  1.0091
 4998TIP3    H236486   4.185   5.733   5.199 -1.4080 -0.5357  0.2785
 4999TIP3   OH236487   5.135   0.734   0.944  0.0421  0.1787 -0.3738
 4999TIP3    H136488   5.228   0.757   0.941  0.1981 -0.3691 -0.0204
 4999TIP3    H236489   5.111   0.720   0.853 -0.2310  2.3153 -0.6774
 5000TIP3   OH236490   3.159   1.385   6.044 -0.2794 -0.1741 -0.8827
 5000TIP3    H136491   3.217   1.438   6.098  0.3337  0.4336 -2.0919
 5000TIP3    H236492   3.181   1.294   6.067  1.1952  0.0403 -1.3307
 5001TIP3   OH236493   2.102   1.607  16.791  0.1933 -0.1931 -0.2142
 5001TIP3    H136494   2.148   1.571  16.715 -0.3125  1.1538 -1.1946
 5001TIP3    H236495   2.043   1.537  16.818 -0.7000 -0.2013 -2.0113
 5002TIP3   OH236496   3.185   0.246   4.002  0.3141  0.0676  0.1586
 5002TIP3    H136497   3.218   0.312   4.063 -0.2252  1.7324 -1.2721
 5002TIP3    H236498   3.265   0.204   3.968  0.7229  0.6064  0.4289
 5003TIP3   OH236499   3.180   2.669  12.774 -0.1054  0.4789  0.2880
 5003TIP3    H136500   3.209   2.739  12.716 -1.0337  0.1493 -0.6155
 5003TIP3    H236501   3.159   2.713  12.856 -1.4399  1.4188 -0.5065
 5004TIP3   OH236502   3.251   6.507  15.456 -0.2238  0.2369  0.4255
 5004TIP3    H136503   3.324   6.492  15.515 -0.8788  1.4735  1.6093
 5004TIP3    H236504   3.258   6.600  15.433 -0.4502 -0.0306 -0.8324
 5005TIP3   OH236505   4.277   0.747   2.185 -0.3543  0.2881 -0.3836
 5005TIP3    H136506   4.311   0.720   2.100 -1.8670 -0.2048 -0.8602
 5005TIP3    H236507   4.311   0.835   2.198  2.3529 -0.6813 -0.1054
 5006TIP3   OH236508   6.837   1.419   1.714  0.1133 -0.2594 -0.6210
 5006TIP3    H136509   6.764   1.476   1.739  0.1889 -1.0055  1.5867
 5006TIP3    H236510   6.912   1.457   1.759  0.1850 -1.9474  0.8111
 5007TIP3   OH236511   2.750   3.613   3.810  0.1919 -0.3555  0.0681
 5007TIP3    H136512   2.845   3.600   3.806  0.4404  0.4539  2.2713
 5007TIP3    H236513   2.722   3.564   3.887 -1.2003 -0.5479 -0.5322
 5008TIP3   OH236514   6.216   5.399  16.863  0.2359  1.0052 -0.1256
 5008TIP3    H136515   6.123   5.420  16.864  0.1096  0.8905 -2.5627
 5008TIP3    H236516   6.219   5.308  16.833  1.1468  1.0467 -0.1787
 5009TIP3   OH236517   2.639   6.418  15.631  0.0367 -0.0947 -0.1120
 5009TIP3    H136518   2.696   6.351  15.595 -0.5580  0.2694 -1.8173
 5009TIP3    H236519   2.557   6.409  15.582 -0.9073  0.2898  1.3180
 5010TIP3   OH236520   2.049   2.481   3.105  0.0000 -0.0919  0.4380
 5010TIP3    H136521   1.973   2.513   3.056 -1.2275 -2.3307  0.7257
 5010TIP3    H236522   2.071   2.398   3.064  0.9171 -0.5253  1.7362
 5011TIP3   OH236523   2.514   2.037   1.077 -0.2056 -0.5358 -0.2803
 5011TIP3    H136524   2.535   2.023   0.985  0.6646  0.6785 -0.2856
 5011TIP3    H236525   2.599   2.045   1.121 -0.5460  2.2059  0.0579
 5012TIP3   OH236526   4.429   3.111   2.438  0.0311 -0.3726  0.1715
 5012TIP3    H136527   4.494   3.167   2.480  1.1411 -1.3062 -0.2440
 5012TIP3    H236528   4.480   3.046   2.391 -1.2124 -0.8303 -0.6039
 5013TIP3   OH236529   4.223   2.361   3.767  0.1303 -0.6855 -0.4371
 5013TIP3    H136530   4.275   2.397   3.696  1.0378 -0.2386  0.4267
 5013TIP3    H236531   4.134   2.358   3.733  0.5882 -0.7385 -1.6783
 5014TIP3   OH236532   2.353   0.165   4.857  0.1081  0.3873 -0.3253
 5014TIP3    H136533   2.431   0.211   4.827  0.0724  0.0826 -0.9006
 5014TIP3    H236534   2.373   0.139   4.947  0.7934  0.0237 -0.5769
 5015TIP3   OH236535   1.368   2.650   0.462 -0.0229  0.0038  0.0256
 5015TIP3    H136536   1.447   2.699   0.486  0.1914 -0.5567  0.5014
 5015TIP3    H236537   1.296   2.711   0.477  0.1493 -0.1487  1.6796
 5016TIP3   OH236538   1.565   0.529   1.041  0.4405 -0.0563  0.2605
 5016TIP3    H136539   1.561   0.616   1.081 -0.8574 -0.3212  0.7781
 5016TIP3    H236540   1.575   0.469   1.115  1.9353 -0.3330 -0.1368
 5017TIP3   OH236541   3.260   1.815   2.813  0.1352  0.2777  0.2874
 5017TIP3    H136542   3.224   1.866   2.885  0.2368  2.5842 -1.1975
 5017TIP3    H236543   3.215   1.847   2.735  1.6014 -0.5454 -0.9598
 5018TIP3   OH236544   6.643   5.506   3.981 -0.3833  0.1589 -0.8321
 5018TIP3    H136545   6.727   5.460   3.981 -0.0183  0.8013 -1.3165
 5018TIP3    H236546   6.620   5.514   4.073 -0.1686 -0.4731 -0.7184
 5019TIP3   OH236547   3.256   1.127  13.924  0.5839  0.7525  0.4167
 5019TIP3    H136548   3.325   1.071  13.960 -1.0315 -1.1983  0.6206
 5019TIP3    H236549   3.304   1.195  13.875  2.6717  0.4727  1.9248
 5020TIP3   OH236550   1.039   6.670   0.285 -0.0282  0.2718 -0.3228
 5020TIP3    H136551   1.129   6.701   0.282 -0.5359  1.8388 -0.3361
 5020TIP3    H236552   0.995   6.730   0.346 -0.6970 -1.4859  0.9933
 5021TIP3   OH236553   2.152   1.896  14.739  0.6427  0.0316 -0.2026
 5021TIP3    H136554   2.193   1.938  14.663 -0.1830  1.0885 -0.0837
 5021TIP3    H236555   2.180   1.948  14.814  0.2023 -0.0647  0.0339
 5022TIP3   OH236556   3.463   1.116   4.576 -0.2467 -0.2317  0.2151
 5022TIP3    H136557   3.440   1.207   4.555 -0.0943  0.1160  1.4699
 5022TIP3    H236558   3.534   1.095   4.516 -2.6084 -0.7779 -2.6311
 5023TIP3   OH236559   0.814   1.821   5.661 -0.0435 -0.1372 -0.2244
 5023TIP3    H136560   0.894   1.826   5.609 -0.9082 -1.0349 -1.7368
 5023TIP3    H236561   0.755   1.884   5.620 -0.3939 -0.1055  0.3212
 5024TIP3   OH236562   1.145   5.937   5.550  0.9793 -0.1694 -0.1704
 5024TIP3    H136563   1.127   6.028   5.526 -0.4137 -0.4336 -0.1896
 5024TIP3    H236564   1.063   5.891   5.535  1.8484 -1.5867 -0.8263
 5025TIP3   OH236565   1.710   0.088  16.777 -0.0343  0.0233  0.0104
 5025TIP3    H136566   1.767   0.153  16.736  0.6427 -0.6222 -0.1067
 5025TIP3    H236567   1.631   0.087  16.722  0.3979 -0.0257 -0.6306
 5026TIP3   OH236568   1.811   2.128  16.379 -0.1055  0.0418 -0.4138
 5026TIP3    H136569   1.752   2.123  16.304 -1.5311  0.1539  0.6507
 5026TIP3    H236570   1.870   2.200  16.359 -0.9840  0.5920 -1.0902
 5027TIP3   OH236571   4.978   4.744  13.519  0.4750 -0.4355  0.2200
 5027TIP3    H136572   5.030   4.699  13.453  0.1403  0.7265 -0.8788
 5027TIP3    H236573   5.001   4.701  13.601  2.6416 -0.4433 -0.3235
 5028TIP3   OH236574   4.930   1.349  14.531 -0.2177 -0.2576 -0.4838
 5028TIP3    H136575   4.966   1.416  14.590  1.6005 -1.8842  0.3489
 5028TIP3    H236576   4.903   1.399  14.454  0.0730  1.5699  0.5179
 5029TIP3   OH236577   2.842   2.037   0.738  0.5098  0.2359  0.5826
 5029TIP3    H136578   2.798   2.122   0.732 -0.4065 -0.3056 -0.5678
 5029TIP3    H236579   2.815   2.003   0.824 -0.5349  0.3443  0.3114
 5030TIP3   OH236580   3.974   0.700   0.152  0.3090  0.0428  0.0039
 5030TIP3    H136581   4.008   0.634   0.091 -1.3630 -0.4826 -0.4232
 5030TIP3    H236582   3.991   0.784   0.109  0.0523 -0.2723 -0.7349
 5031TIP3   OH236583   3.785   2.832   2.358 -0.4643 -0.3607  0.2525
 5031TIP3    H136584   3.720   2.813   2.290 -1.8038 -0.3121  1.4782
 5031TIP3    H236585   3.734   2.860   2.433  0.9279 -1.2501  1.5908
 5032TIP3   OH236586   1.866   0.392   1.244  0.3591  0.1618 -0.2461
 5032TIP3    H136587   1.859   0.309   1.291 -0.0355  1.2687  1.7441
 5032TIP3    H236588   1.776   0.425   1.239  0.6758  1.1480  0.3011
 5033TIP3   OH236589   4.235   3.828  15.786 -0.3242 -0.1852 -0.1333
 5033TIP3    H136590   4.169   3.822  15.716 -0.7164  0.4673  0.1746
 5033TIP3    H236591   4.211   3.906  15.835  0.0645 -0.5352  0.6266
 5034TIP3   OH236592   3.929   4.027  11.146 -0.0155  0.6233  0.4449
 5034TIP3    H136593   3.863   3.998  11.208  0.4786 -0.0206  0.6793
 5034TIP3    H236594   3.891   4.009  11.060  0.6056 -1.5554  0.5721
 5035TIP3   OH236595   0.372   3.078   5.346 -0.0350 -0.3202 -0.3318
 5035TIP3    H136596   0.353   3.043   5.259  0.5047 -0.3138 -0.4521
 5035TIP3    H236597   0.463   3.056   5.362  0.1168  0.4264 -0.1265
 5036TIP3   OH236598   0.647   1.414  10.651 -0.2260  0.5748 -0.3156
 5036TIP3    H136599   0.678   1.325  10.669 -1.1668  0.1073 -0.8971
 5036TIP3    H236600   0.575   1.402  10.588 -1.9944  1.5116  1.3943
 5037TIP3   OH236601   6.589   5.664   2.493  0.4053  0.1125  0.2567
 5037TIP3    H136602   6.620   5.741   2.540  0.8018  0.2422 -0.2154
 5037TIP3    H236603   6.586   5.691   2.402  0.2744 -0.3426  0.1253
 5038TIP3   OH236604   5.276   6.343   0.012  0.2582  0.1620 -0.2983
 5038TIP3    H136605   5.189   6.316   0.040 -0.4859  1.1156 -1.5417
 5038TIP3    H236606   5.274   6.439   0.017  1.5785  0.1600  0.5859
 5039TIP3   OH236607   4.014   2.499   0.151 -0.3378 -0.4077  0.0057
 5039TIP3    H136608   3.982   2.484   0.062 -1.5398 -0.7545  0.4699
 5039TIP3    H236609   3.934   2.503   0.204  0.4135 -1.4199  1.2511
 5040TIP3   OH236610   3.105   3.949   1.240 -0.4252 -0.4080  0.0402
 5040TIP3    H136611   3.062   4.028   1.209  0.0962  0.1377  0.6769
 5040TIP3    H236612   3.161   3.922   1.167 -3.4791 -2.4784 -1.7609
 5041TIP3   OH236613   4.192   2.726  12.619  0.4442  0.6458  0.1583
 5041TIP3    H136614   4.287   2.711  12.624  0.0886 -1.3956  2.5712
 5041TIP3    H236615   4.174   2.786  12.691  0.0710  2.5770 -1.4602
 5042TIP3   OH236616   2.449   0.280   6.090 -0.1796 -0.3763  0.0946
 5042TIP3    H136617   2.541   0.277   6.115 -0.3012 -1.2125  0.4819
 5042TIP3    H236618   2.430   0.373   6.079  0.7927 -0.2159 -0.3152
 5043TIP3   OH236619   2.888   1.369  14.020 -0.0929 -0.0359 -0.1718
 5043TIP3    H136620   2.897   1.427  14.096  0.5347 -1.9642  1.2883
 5043TIP3    H236621   2.925   1.286  14.049 -1.3160 -1.3041 -2.0829
 5044TIP3   OH236622   1.893   5.334  15.169 -0.1913  0.7613 -0.2428
 5044TIP3    H136623   1.877   5.268  15.237  0.6110  1.5706  0.7521
 5044TIP3    H236624   1.826   5.316  15.103 -1.3194  0.2649  0.9886
 5045TIP3   OH236625   2.212   6.513  12.664 -0.0022  0.1068  0.3346
 5045TIP3    H136626   2.283   6.511  12.600 -0.6554 -2.3593 -0.4145
 5045TIP3    H236627   2.151   6.579  12.629 -0.0713 -0.7859 -1.3210
 5046TIP3   OH236628   0.682   2.857  13.002 -0.0206  0.8672  0.2090
 5046TIP3    H136629   0.659   2.938  13.048  1.7389  1.3070  0.3646
 5046TIP3    H236630   0.672   2.879  12.909  0.6108  1.3317  0.2451
 5047TIP3   OH236631   0.487   6.771   1.920 -0.6831  0.3326 -0.3049
 5047TIP3    H136632   0.462   6.746   2.009  0.1244  0.8230  0.0779
 5047TIP3    H236633   0.565   6.718   1.902  1.2474  2.6523  0.6404
 5048TIP3   OH236634   6.236   3.343  15.963 -0.5010 -0.0544 -0.5265
 5048TIP3    H136635   6.232   3.283  16.037  1.5351  0.0607 -0.2766
 5048TIP3    H236636   6.259   3.289  15.888 -1.1562  0.0509 -0.8139
 5049TIP3   OH236637   6.475   2.675  13.774  0.3306 -0.3642 -0.2080
 5049TIP3    H136638   6.475   2.612  13.702 -0.8610 -0.5119 -0.0949
 5049TIP3    H236639   6.411   2.641  13.836 -0.2146  0.8656 -0.0595
 5050TIP3   OH236640   2.326   5.484  14.068 -0.1398  0.2401  0.1054
 5050TIP3    H136641   2.380   5.416  14.107 -0.2740  0.3074  0.4196
 5050TIP3    H236642   2.270   5.514  14.140 -0.1752  0.5871 -0.0612
 5051TIP3   OH236643   3.843   5.875  12.869  0.1837  0.0703 -0.4035
 5051TIP3    H136644   3.928   5.861  12.827  0.6091  1.2395  0.0388
 5051TIP3    H236645   3.849   5.961  12.909 -0.9357 -0.1627  0.3322
 5052TIP3   OH236646   1.290   6.494   0.857  0.1087 -0.0973 -0.4167
 5052TIP3    H136647   1.217   6.552   0.835  1.5919  2.2288  0.4858
 5052TIP3    H236648   1.340   6.487   0.776  1.2132  1.9339  0.0211
 5053TIP3   OH236649   3.642   3.840   5.106  0.3893  0.4010 -0.1347
 5053TIP3    H136650   3.616   3.787   5.182 -1.4693  0.7191 -0.4929
 5053TIP3    H236651   3.560   3.881   5.077  0.7229 -0.8540 -3.2082
 5054TIP3   OH236652   5.861   3.412  16.675 -0.0431  0.2665 -0.2209
 5054TIP3    H136653   5.845   3.462  16.755  0.3762  2.7349 -1.6114
 5054TIP3    H236654   5.877   3.323  16.706 -2.6633  0.4883  2.2349
 5055TIP3   OH236655   4.723   1.171  15.978 -0.5440 -0.3104  0.0345
 5055TIP3    H136656   4.796   1.115  15.953  0.7129  0.4669  1.8016
 5055TIP3    H236657   4.669   1.177  15.898  2.0875  0.3511 -1.8201
 5056TIP3   OH236658   3.235   2.000   5.828  0.2018  0.1515 -0.0303
 5056TIP3    H136659   3.203   2.089   5.841  0.6250  0.3416 -0.2621
 5056TIP3    H236660   3.181   1.966   5.757  1.0681  0.7744 -1.0264
 5057TIP3   OH236661   1.510   2.071   0.519 -0.3447  0.0694  0.0156
 5057TIP3    H136662   1.571   2.052   0.448 -2.0678 -0.7778 -1.3216
 5057TIP3    H236663   1.495   2.165   0.514 -0.8038 -0.0506 -1.0818
 5058TIP3   OH236664   1.036   1.793  15.465  0.3834  0.3130 -0.4224
 5058TIP3    H136665   0.964   1.787  15.402  0.4222 -0.3859 -0.4123
 5058TIP3    H236666   1.056   1.702  15.487 -1.2630  0.5355  2.4896
 5059TIP3   OH236667   1.520   6.862  14.359 -0.5222  0.2747  0.3676
 5059TIP3    H136668   1.510   6.773  14.325  1.4230  0.2955 -0.4071
 5059TIP3    H236669   1.517   6.918  14.281  1.9244  0.5037  0.3477
 5060TIP3   OH236670   6.601   2.423  11.885  0.6425  0.1254 -0.4611
 5060TIP3    H136671   6.624   2.331  11.873 -2.6386 -0.6953 -1.5169
 5060TIP3    H236672   6.512   2.421  11.920  0.3950  2.9191 -0.7082
 5061TIP3   OH236673   1.619   3.655   2.643  0.4221  0.1928 -0.4744
 5061TIP3    H136674   1.670   3.726   2.603 -1.0415  1.5706  0.0027
 5061TIP3    H236675   1.645   3.657   2.735  2.9377 -2.2316 -0.9954
 5062TIP3   OH236676   1.730   3.347   4.919  0.2506 -0.0950  0.1281
 5062TIP3    H136677   1.799   3.414   4.920  1.3009 -1.0543 -1.7839
 5062TIP3    H236678   1.661   3.384   4.865  0.9163 -0.5632 -1.0972
 5063TIP3   OH236679   4.889   2.894  11.371 -0.0255  0.5940  0.1829
 5063TIP3    H136680   4.812   2.904  11.427 -0.0547  1.0724  0.0590
 5063TIP3    H236681   4.860   2.924  11.285 -0.0006 -0.2047 -0.1115
 5064TIP3   OH236682   1.568   5.717   3.834 -0.5006 -0.4507 -0.0347
 5064TIP3    H136683   1.490   5.755   3.874 -1.0534 -0.7843 -0.7591
 5064TIP3    H236684   1.540   5.629   3.807  0.5555 -1.1436  1.0159
 5065TIP3   OH236685   0.375   6.815  16.332  0.0134  0.1415  0.6202
 5065TIP3    H136686   0.368   6.905  16.300 -1.2115 -0.3875 -0.7621
 5065TIP3    H236687   0.314   6.811  16.405 -0.3409  0.3083  0.3391
 5066TIP3   OH236688   2.127   6.596   1.522  0.7690 -0.1400 -0.2031
 5066TIP3    H136689   2.062   6.546   1.570  0.5407  1.1045  0.8356
 5066TIP3    H236690   2.189   6.531   1.490  0.7873 -1.0277  1.5661
 5067TIP3   OH236691   1.139   0.705   3.860 -0.2797  0.5168  0.1754
 5067TIP3    H136692   1.159   0.737   3.772  1.6837 -1.2852 -0.1234
 5067TIP3    H236693   1.171   0.774   3.918 -1.2899  1.5717 -0.4880
 5068TIP3   OH236694   0.741   0.727   2.335 -0.0605 -0.4728 -0.6232
 5068TIP3    H136695   0.726   0.655   2.274  0.0790 -1.5987  0.6254
 5068TIP3    H236696   0.806   0.694   2.396  0.6984  1.0600 -0.5420
 5069TIP3   OH236697   6.011   2.763  16.255  0.5467  0.5985 -0.1225
 5069TIP3    H136698   6.013   2.820  16.178  0.3639  0.6604 -0.0810
 5069TIP3    H236699   5.928   2.716  16.249  0.2205  1.0969  0.3925
 5070TIP3   OH236700   2.498   3.188  14.680 -0.3156  0.2755 -0.4879
 5070TIP3    H136701   2.588   3.170  14.652 -0.5776  1.3310 -2.2005
 5070TIP3    H236702   2.507   3.240  14.759  0.5455 -0.6231  0.0212
 5071TIP3   OH236703   2.802   4.894   4.669  0.1027 -0.7171  0.4451
 5071TIP3    H136704   2.892   4.912   4.697 -0.2047  0.3549  0.7584
 5071TIP3    H236705   2.755   4.975   4.684 -0.3920 -0.4876 -1.9915
 5072TIP3   OH236706   2.707   4.890   4.366  0.1552 -0.1794  0.3764
 5072TIP3    H136707   2.704   4.800   4.332 -2.8023 -0.3479  0.8390
 5072TIP3    H236708   2.705   4.880   4.461  1.6931  0.4145  0.5122
 5073TIP3   OH236709   5.556   4.074  15.445 -0.1329  0.5751  0.9218
 5073TIP3    H136710   5.510   4.064  15.362  0.7804  1.7557  0.2469
 5073TIP3    H236711   5.617   4.000  15.447 -0.8842 -0.0678  1.0736
 5074TIP3   OH236712   4.794   2.511   4.601  0.1759  0.7412 -0.5386
 5074TIP3    H136713   4.745   2.488   4.680 -0.4171 -0.0227 -1.1218
 5074TIP3    H236714   4.885   2.519   4.631 -0.2481  2.0099  0.5180
 5075TIP3   OH236715   4.334   4.659  14.370  0.4042 -0.6339  0.4215
 5075TIP3    H136716   4.380   4.689  14.291  0.4973 -0.2966  0.6020
 5075TIP3    H236717   4.398   4.602  14.414  1.0255  0.6066  1.1719
 5076TIP3   OH236718   2.442   5.459   3.149  0.6509 -0.4871  0.2492
 5076TIP3    H136719   2.497   5.386   3.121 -0.9621 -2.2018  1.2962
 5076TIP3    H236720   2.380   5.420   3.211 -1.1834  1.4989 -0.2131
 5077TIP3   OH236721   6.234   5.891  13.329 -1.2982 -0.3710 -0.1837
 5077TIP3    H136722   6.233   5.971  13.381  0.4460  1.4833 -2.7358
 5077TIP3    H236723   6.143   5.877  13.303 -1.6670  0.5880  0.5572
 5078TIP3   OH236724   3.290   2.928   2.861 -0.1677  0.0212  0.3843
 5078TIP3    H136725   3.216   2.874   2.832  0.1685  0.3627 -1.2333
 5078TIP3    H236726   3.361   2.906   2.800  0.7313  0.5098  1.2259
 5079TIP3   OH236727   1.932   4.546  15.631 -0.2536 -0.3487  0.2295
 5079TIP3    H136728   1.896   4.462  15.603 -1.7049 -0.0815  1.1956
 5079TIP3    H236729   1.871   4.611  15.596  0.8596  0.3288 -0.5170
 5080TIP3   OH236730   2.921   2.255  15.886  0.2659  0.1974  0.6398
 5080TIP3    H136731   2.925   2.187  15.953 -0.3205  0.5288  1.0161
 5080TIP3    H236732   2.846   2.230  15.832  1.6535 -0.9346 -0.8536
 5081TIP3   OH236733   3.547   3.863   0.471  0.4287  0.1042  0.2940
 5081TIP3    H136734   3.517   3.871   0.381  0.4166  1.4218  0.3912
 5081TIP3    H236735   3.480   3.908   0.522  0.3923 -0.6970  0.9835
 5082TIP3   OH236736   3.076   5.826  12.311 -0.2468 -0.1297 -0.6284
 5082TIP3    H136737   3.020   5.767  12.361 -0.8801  1.3670  0.5269
 5082TIP3    H236738   3.108   5.774  12.237 -1.3314 -1.6735 -0.0396
 5083TIP3   OH236739   4.445   4.620   1.501 -0.1408  0.5916  0.3107
 5083TIP3    H136740   4.482   4.559   1.565 -0.3090 -0.1673 -0.2940
 5083TIP3    H236741   4.398   4.563   1.439  0.9320  1.2014 -1.1127
 5084TIP3   OH236742   3.732   6.305  14.615 -0.5599 -0.1506  0.0989
 5084TIP3    H136743   3.719   6.398  14.594  0.0983 -0.4026 -1.5758
 5084TIP3    H236744   3.646   6.265  14.605 -0.8730  0.2774  0.9442
 5085TIP3   OH236745   2.371   5.382  10.082 -0.6251 -0.1780 -0.4040
 5085TIP3    H136746   2.323   5.348  10.007  0.3201  0.3803 -1.2896
 5085TIP3    H236747   2.411   5.463  10.051 -0.1942  0.0517  0.6895
 5086TIP3   OH236748   1.856   0.984   1.123  0.6115  0.1304 -0.2680
 5086TIP3    H136749   1.845   0.889   1.130  1.4754  0.0284 -0.0794
 5086TIP3    H236750   1.769   1.020   1.136  0.6268 -0.5177  2.2282
 5087TIP3   OH236751   4.871   4.162  16.861 -0.0293 -0.3655 -0.1471
 5087TIP3    H136752   4.890   4.212  16.782  0.7654  1.1418  0.9542
 5087TIP3    H236753   4.878   4.071  16.833 -2.6837 -0.0049 -2.5126
 5088TIP3   OH236754   5.002   6.714   4.255  0.3090 -0.0382  0.3219
 5088TIP3    H136755   5.002   6.622   4.280 -1.0896 -0.5159 -1.2431
 5088TIP3    H236756   5.094   6.738   4.250  0.6912 -1.3347  0.8324
 5089TIP3   OH236757   0.221   2.208   0.303  0.1337 -0.2089 -0.0441
 5089TIP3    H136758   0.285   2.280   0.298  1.7931 -1.2395  3.2263
 5089TIP3    H236759   0.261   2.138   0.253 -0.2418  0.2901 -1.0669
 5090TIP3   OH236760   2.946   2.568  12.281  0.1204  0.2969 -0.1475
 5090TIP3    H136761   2.990   2.628  12.342 -1.2724  1.0965  0.1358
 5090TIP3    H236762   2.963   2.604  12.194  0.3586  0.3626 -0.0731
 5091TIP3   OH236763   1.114   2.540  13.647 -0.2149 -0.2186  0.0937
 5091TIP3    H136764   1.075   2.600  13.582  0.8632  0.5540  0.1324
 5091TIP3    H236765   1.205   2.530  13.618  0.1539 -0.2373  1.2239
 5092TIP3   OH236766   6.709   2.620   5.618 -0.5241  0.8727  0.2027
 5092TIP3    H136767   6.692   2.592   5.707  0.5382  1.2965  0.5583
 5092TIP3    H236768   6.805   2.627   5.612 -0.6156  1.7852 -0.6645
 5093TIP3   OH236769   1.221   1.689   1.418  0.2379  0.0206  0.5635
 5093TIP3    H136770   1.272   1.666   1.341 -0.0097 -2.6950  1.1010
 5093TIP3    H236771   1.131   1.700   1.386  0.2797 -0.3136  0.3232
 5094TIP3   OH236772   0.183   1.313  11.870 -0.0859  0.2304  0.8300
 5094TIP3    H136773   0.233   1.361  11.803 -0.8990  0.4883  0.3976
 5094TIP3    H236774   0.143   1.382  11.923  0.0373  0.0251  1.1908
 5095TIP3   OH236775   1.637   1.660   1.057  0.2839  0.0016  0.2467
 5095TIP3    H136776   1.591   1.601   0.996 -0.4451  0.0254  0.7547
 5095TIP3    H236777   1.618   1.624   1.144  2.4082 -0.8048  0.4267
 5096TIP3   OH236778   1.107   4.644   1.091 -0.1894 -0.1505 -0.1620
 5096TIP3    H136779   1.021   4.606   1.110 -0.5051  0.8402  0.4695
 5096TIP3    H236780   1.099   4.681   1.004 -0.4857  0.1548 -0.0066
 5097TIP3   OH236781   3.173   3.809  12.996 -0.9887  0.1646 -0.3434
 5097TIP3    H136782   3.109   3.785  13.063 -1.9376  1.4056 -0.7607
 5097TIP3    H236783   3.138   3.890  12.958  2.0282  2.3678  1.1128
 5098TIP3   OH236784   0.933   3.482   3.192 -0.1650 -0.8194 -0.5407
 5098TIP3    H136785   0.877   3.427   3.138 -2.9704  1.0077  0.2821
 5098TIP3    H236786   0.929   3.443   3.280  0.3768 -1.0113 -0.5951
 5099TIP3   OH236787   0.460   5.988   1.696  0.5514  0.1748  0.0584
 5099TIP3    H136788   0.393   5.922   1.710  0.6658 -0.0172 -0.2877
 5099TIP3    H236789   0.538   5.954   1.741  0.1737  0.8208  1.2358
 5100TIP3   OH236790   4.791   6.000   0.758  0.0287 -0.3271 -0.0267
 5100TIP3    H136791   4.867   6.056   0.741  0.5540 -0.7706  0.7526
 5100TIP3    H236792   4.716   6.051   0.727  0.2977  1.5534  2.0857
 5101TIP3   OH236793   3.912   2.569  13.282 -0.5974  0.0240  0.4532
 5101TIP3    H136794   3.912   2.664  13.298  1.2406 -0.2214  2.2562
 5101TIP3    H236795   3.986   2.536  13.332 -1.4877 -2.4684  0.2616
 5102TIP3   OH236796   0.777   3.235  10.557  0.0453  0.2746  0.0543
 5102TIP3    H136797   0.751   3.304  10.617  1.2400  1.6529 -0.9656
 5102TIP3    H236798   0.697   3.184  10.543 -1.3413  2.5004 -0.5538
 5103TIP3   OH236799   3.744   4.589  13.446 -0.0621 -0.3995 -0.0297
 5103TIP3    H136800   3.834   4.567  13.422  0.7154 -0.5947  2.7309
 5103TIP3    H236801   3.717   4.518  13.505 -1.3470  0.5923  0.6256
 5104TIP3   OH236802   5.313   6.248  16.061  0.2916 -0.8660 -0.1838
 5104TIP3    H136803   5.375   6.310  16.100 -0.5949  0.0676 -0.2133
 5104TIP3    H236804   5.330   6.254  15.967 -1.1040  0.8800 -0.3947
 5105TIP3   OH236805   4.756   5.307   5.203  0.5466 -0.9899  0.2693
 5105TIP3    H136806   4.670   5.313   5.162  0.7372  0.7190  0.0745
 5105TIP3    H236807   4.747   5.352   5.286  0.5144 -3.3215  1.6201
 5106TIP3   OH236808   2.533   5.270   3.745  0.0498  0.2900  0.4933
 5106TIP3    H136809   2.552   5.338   3.681 -1.1002  0.3686  0.2111
 5106TIP3    H236810   2.527   5.317   3.829  0.8333  0.2956  0.5479
 5107TIP3   OH236811   1.203   4.210  11.059  0.1305  0.5662  0.4638
 5107TIP3    H136812   1.111   4.183  11.064  0.5964 -1.4316 -0.5468
 5107TIP3    H236813   1.252   4.131  11.082  1.6212  0.4688 -2.6098
 5108TIP3   OH236814   0.370   2.546   5.405  0.5893  0.9338 -0.0074
 5108TIP3    H136815   0.301   2.488   5.436  1.7731  1.0360  3.2062
 5108TIP3    H236816   0.345   2.633   5.436  1.7673  1.0707  0.6599
 5109TIP3   OH236817   0.631   1.129   2.602 -0.3951 -0.6715  0.4246
 5109TIP3    H136818   0.594   1.067   2.664  0.4036 -1.3734  0.2186
 5109TIP3    H236819   0.724   1.106   2.598 -0.4802 -0.8606 -1.2503
 5110TIP3   OH236820   6.516   6.458  15.549  0.7920  0.1231 -0.1455
 5110TIP3    H136821   6.563   6.399  15.491  1.6986  0.4291  0.2548
 5110TIP3    H236822   6.424   6.434  15.539  0.8959  0.3288 -1.8885
 5111TIP3   OH236823   2.676   3.891   2.827  0.3557 -0.1006  0.2951
 5111TIP3    H136824   2.640   3.970   2.869 -1.2870 -0.7328  0.1344
 5111TIP3    H236825   2.626   3.882   2.747  1.7681 -0.3328 -0.6033
 5112TIP3   OH236826   3.929   0.281  11.405  0.7024  0.3659 -0.1195
 5112TIP3    H136827   4.004   0.258  11.350  0.4450  0.9235 -0.7177
 5112TIP3    H236828   3.858   0.297  11.343  0.2698  0.5062  0.4057
 5113TIP3   OH236829   5.461   1.313  11.873 -0.5147  0.3691  0.3365
 5113TIP3    H136830   5.484   1.224  11.901  2.3584  1.0134  0.3432
 5113TIP3    H236831   5.398   1.300  11.803 -0.9183 -1.6250  0.9816
 5114TIP3   OH236832   1.647   1.201   4.918 -0.3212  0.0539 -0.9489
 5114TIP3    H136833   1.656   1.294   4.896 -0.1927  0.1581 -0.4728
 5114TIP3    H236834   1.649   1.156   4.833  0.3227  0.4325 -1.1443
 5115TIP3   OH236835   4.372   1.296  14.939 -0.1476  0.3095 -0.3530
 5115TIP3    H136836   4.385   1.332  14.851  1.4968  0.0535 -0.2388
 5115TIP3    H236837   4.399   1.204  14.932  0.2401  0.3500  0.4736
 5116TIP3   OH236838   5.561   1.903  13.080 -0.1348 -0.0718 -0.2599
 5116TIP3    H136839   5.640   1.932  13.035  0.3956 -1.7672 -0.5007
 5116TIP3    H236840   5.553   1.961  13.155  2.1012 -0.6615  0.5150
 5117TIP3   OH236841   0.435   5.196  13.530 -0.4616  0.4858 -0.0720
 5117TIP3    H136842   0.510   5.250  13.554 -0.1108  0.3992 -0.9502
 5117TIP3    H236843   0.368   5.258  13.502 -0.5159  0.5329  0.1622
 5118TIP3   OH236844   0.362   4.702  14.644  0.3611  0.2351  0.0116
 5118TIP3    H136845   0.355   4.707  14.549  0.0121 -1.2272 -0.0673
 5118TIP3    H236846   0.450   4.736  14.663  0.9929 -0.7778 -0.9826
 5119TIP3   OH236847   0.967   4.500  10.887 -0.5307  0.1509  0.0925
 5119TIP3    H136848   0.873   4.512  10.873 -1.0938 -0.9600  2.2992
 5119TIP3    H236849   1.003   4.588  10.883 -1.6598  0.5968 -0.8469
 5120TIP3   OH236850   1.964   3.160  12.278  0.0164  0.2194  0.1586
 5120TIP3    H136851   2.045   3.122  12.313 -0.6554 -0.4743  1.0295
 5120TIP3    H236852   1.914   3.184  12.356 -0.3918  1.1472 -0.3788
 5121TIP3   OH236853   3.162   5.592   3.388 -0.0856  0.5707  0.0118
 5121TIP3    H136854   3.244   5.628   3.422  0.4560 -1.3418  0.8617
 5121TIP3    H236855   3.154   5.507   3.431 -3.0704  1.1486  0.7776
 5122TIP3   OH236856   6.671   1.538  11.461  0.1173  0.2146 -0.2390
 5122TIP3    H136857   6.748   1.524  11.516 -0.5271  1.2201  0.9456
 5122TIP3    H236858   6.598   1.500  11.510 -0.2121 -0.4473 -1.2091
 5123TIP3   OH236859   5.737   5.583   3.948 -0.7052 -0.1231 -0.0924
 5123TIP3    H136860   5.666   5.572   4.011 -0.1812  2.1660  1.0317
 5123TIP3    H236861   5.706   5.541   3.868 -1.8914 -2.0884  1.3261
 5124TIP3   OH236862   1.044   2.500   4.821 -0.4311  0.0131 -0.0646
 5124TIP3    H136863   1.082   2.458   4.744 -0.7203  0.1206 -0.2688
 5124TIP3    H236864   0.958   2.531   4.792 -1.1998 -1.3019  0.7112
 5125TIP3   OH236865   2.862   3.921  10.356 -0.8266  0.3931  0.2314
 5125TIP3    H136866   2.894   3.930  10.267 -1.5569 -2.0084 -0.3429
 5125TIP3    H236867   2.776   3.965  10.355 -1.6223 -1.1085 -0.7729
 5126TIP3   OH236868   1.883   6.469   3.394  0.0173  0.6719 -0.7942
 5126TIP3    H136869   1.913   6.512   3.313  1.6680  1.3837  0.1416
 5126TIP3    H236870   1.945   6.499   3.461 -1.5512  0.4221  0.8298
 5127TIP3   OH236871   4.006   3.043  11.646  0.2297  0.2891  0.2315
 5127TIP3    H136872   3.982   3.110  11.582  0.2700 -0.3860 -0.5027
 5127TIP3    H236873   4.048   3.092  11.717 -1.1900  1.2358  0.4762
 5128TIP3   OH236874   6.627   4.358   1.617 -0.2548  0.6544  0.1886
 5128TIP3    H136875   6.649   4.449   1.597  0.0034  0.2076 -1.8066
 5128TIP3    H236876   6.690   4.307   1.567 -0.0323 -0.6432  1.7376
 5129TIP3   OH236877   3.387   6.492   3.094 -0.5626 -0.2373  0.1248
 5129TIP3    H136878   3.316   6.476   3.157  0.1003  0.9065  1.2064
 5129TIP3    H236879   3.404   6.406   3.055 -0.3571 -1.1994  2.2176
 5130TIP3   OH236880   1.839   6.210  12.076 -0.2464  0.4194  0.7162
 5130TIP3    H136881   1.830   6.228  12.169  0.3010  1.1807  0.6303
 5130TIP3    H236882   1.873   6.291  12.039  0.1147 -0.0720 -0.0527
 5131TIP3   OH236883   1.713   4.352   4.425 -0.6371  0.1323  0.2330
 5131TIP3    H136884   1.773   4.392   4.488  0.5939  1.7405 -1.8717
 5131TIP3    H236885   1.703   4.262   4.457  1.6131  0.2669  1.5553
 5132TIP3   OH236886   0.745   2.983   1.349 -0.0445  0.2455 -0.4138
 5132TIP3    H136887   0.663   3.014   1.388 -2.2220 -5.1761  0.3228
 5132TIP3    H236888   0.799   2.958   1.425  1.8446  2.4859 -0.9253
 5133TIP3   OH236889   4.964   0.213  16.551 -0.4482  0.1819  0.5314
 5133TIP3    H136890   4.939   0.176  16.635  2.6474  0.6908  1.8193
 5133TIP3    H236891   4.927   0.152  16.486 -1.4943 -1.1507  2.2975
 5134TIP3   OH236892   5.197   1.471  15.959 -0.1311  0.1683 -0.4563
 5134TIP3    H136893   5.186   1.547  16.016  1.1204  0.3215 -0.3943
 5134TIP3    H236894   5.284   1.438  15.979 -0.4096 -0.9129 -0.9385
 5135TIP3   OH236895   4.297   5.716  10.721 -0.1247  0.0443  0.1846
 5135TIP3    H136896   4.268   5.753  10.805 -0.5411  1.1649 -0.4404
 5135TIP3    H236897   4.383   5.755  10.706  0.7137 -1.4224  0.8532
 5136TIP3   OH236898   3.889   1.896  16.287 -0.6792 -0.4042  0.2104
 5136TIP3    H136899   3.875   1.991  16.291  2.5693  0.2426 -0.8860
 5136TIP3    H236900   3.934   1.875  16.368 -0.5971 -0.8561  0.0502
 5137TIP3   OH236901   1.029   0.111  10.249 -0.2769  0.1940  0.2558
 5137TIP3    H136902   0.947   0.128  10.203  0.0275  1.2885  0.0692
 5137TIP3    H236903   1.088   0.179  10.217  0.9807 -1.0917 -0.2690
 5138TIP3   OH236904   3.204   3.654  12.775  0.4498  0.1654 -0.2526
 5138TIP3    H136905   3.121   3.606  12.773  0.3853  0.2974 -1.0741
 5138TIP3    H236906   3.194   3.717  12.846 -0.3503  0.5272 -0.6829
 5139TIP3   OH236907   3.599   5.333  10.864 -0.1903 -0.5590  0.2181
 5139TIP3    H136908   3.667   5.302  10.805  0.8508  0.2319  0.9616
 5139TIP3    H236909   3.577   5.421  10.831 -0.2269 -0.4635  0.4912
 5140TIP3   OH236910   5.926   4.034  11.374 -0.0735 -1.0866 -0.4340
 5140TIP3    H136911   5.953   3.943  11.383  2.1766 -0.4947 -0.4134
 5140TIP3    H236912   5.864   4.049  11.446  0.4933 -2.2696  0.3306
 5141TIP3   OH236913   5.727   0.964   5.627  0.4059 -0.2210  0.0932
 5141TIP3    H136914   5.686   1.029   5.683 -0.4995 -0.0270 -0.7663
 5141TIP3    H236915   5.688   0.881   5.654  1.0589 -0.3340  0.7277
 5142TIP3   OH236916   4.656   1.496  12.161  0.2080 -0.0277 -0.7347
 5142TIP3    H136917   4.683   1.427  12.101 -1.6346 -1.8969  0.4618
 5142TIP3    H236918   4.571   1.525  12.129 -0.3779 -0.4076  0.4250
 5143TIP3   OH236919   4.622   4.266  10.859  0.0988  0.2116 -0.0608
 5143TIP3    H136920   4.648   4.297  10.772 -0.3741  1.8203  0.3401
 5143TIP3    H236921   4.587   4.178  10.843  0.6855  0.1899 -1.3807
 5144TIP3   OH236922   6.042   4.315   5.098 -0.1519 -0.1405  0.2385
 5144TIP3    H136923   6.060   4.271   5.015 -1.0759  1.0611 -0.6176
 5144TIP3    H236924   5.947   4.326   5.100 -0.3717 -1.7445  2.3045
 5145TIP3   OH236925   6.115   0.359   4.898 -0.1063 -0.2484 -0.0063
 5145TIP3    H136926   6.146   0.268   4.894  0.2477 -0.0967 -0.9058
 5145TIP3    H236927   6.127   0.392   4.810  1.2424  1.1701  0.6716
 5146TIP3   OH236928   2.758   3.399  14.156  0.4712  0.0933  0.2844
 5146TIP3    H136929   2.674   3.355  14.142  0.3038  0.3112  0.5911
 5146TIP3    H236930   2.793   3.412  14.068  0.9553 -1.4532  0.2129
 5147TIP3   OH236931   6.335   1.747   3.797  0.6368 -0.5777  0.6411
 5147TIP3    H136932   6.384   1.738   3.715  2.5110  0.3303  1.6154
 5147TIP3    H236933   6.320   1.657   3.825 -0.5784 -0.9350 -0.9529
 5148TIP3   OH236934   1.574   4.586   1.868  0.3428  0.2340 -0.1037
 5148TIP3    H136935   1.511   4.649   1.833 -0.3795 -0.1215  0.5417
 5148TIP3    H236936   1.542   4.501   1.838  1.4476  0.1688 -1.1780
 5149TIP3   OH236937   0.650   0.455   4.409 -0.1054  0.4941  0.2617
 5149TIP3    H136938   0.662   0.414   4.323  0.7999  2.6493 -0.7185
 5149TIP3    H236939   0.647   0.382   4.471  0.3265 -1.0650 -1.4861
 5150TIP3   OH236940   3.868   0.440   4.765  0.0165  0.3737  0.5071
 5150TIP3    H136941   3.935   0.455   4.699 -0.6057  0.1290 -0.1900
 5150TIP3    H236942   3.823   0.361   4.736  0.8347 -0.7540  2.1313
 5151TIP3   OH236943   1.587   5.263   5.543  0.6795  0.3643  0.5835
 5151TIP3    H136944   1.649   5.283   5.613  1.2188 -1.0071  0.5325
 5151TIP3    H236945   1.505   5.303   5.572  0.9327 -0.0247  1.9348
 5152TIP3   OH236946   0.114   0.615   1.778 -0.0390  0.0013 -0.0477
 5152TIP3    H136947   0.092   0.548   1.843 -0.6275  0.0163 -0.2309
 5152TIP3    H236948   0.184   0.666   1.819 -1.3616  0.8988  1.1585
 5153TIP3   OH236949   2.271   0.677  14.523  0.0057 -0.2468  0.3589
 5153TIP3    H136950   2.184   0.644  14.503 -0.3701  0.1189  1.3728
 5153TIP3    H236951   2.316   0.603  14.564 -0.3675  0.0439  1.3162
 5154TIP3   OH236952   5.623   6.172  11.930  0.4653 -0.4300  0.4841
 5154TIP3    H136953   5.708   6.144  11.963  1.0182  0.7081  0.0651
 5154TIP3    H236954   5.588   6.230  11.998 -0.0795 -1.0551  0.7483
 5155TIP3   OH236955   3.375   2.127  15.345  0.0552  0.3968 -0.0691
 5155TIP3    H136956   3.388   2.129  15.440  0.1603  1.2518 -0.0851
 5155TIP3    H236957   3.455   2.166  15.309  0.2817 -0.4834 -0.5494
 5156TIP3   OH236958   2.300   1.926  12.230 -0.1193  1.1672  0.5707
 5156TIP3    H136959   2.378   1.872  12.241 -1.5254 -0.8157  1.2892
 5156TIP3    H236960   2.317   1.978  12.152  1.2096 -0.4760 -0.2844
 5157TIP3   OH236961   1.957   5.428   1.611  0.0445  0.4040 -0.2442
 5157TIP3    H136962   1.936   5.383   1.693  1.1439  0.6163  0.1724
 5157TIP3    H236963   1.896   5.503   1.609 -0.2002  0.2256  0.2217
 5158TIP3   OH236964   1.215   3.189  12.153 -0.1213  0.1416  0.1688
 5158TIP3    H136965   1.250   3.100  12.161 -0.5185 -0.0634 -0.3177
 5158TIP3    H236966   1.288   3.246  12.175  0.0818 -0.3097  0.6801
 5159TIP3   OH236967   5.406   3.427  13.024  0.5634 -0.2105  0.4874
 5159TIP3    H136968   5.456   3.472  12.956 -0.0503  0.6698  0.6054
 5159TIP3    H236969   5.461   3.432  13.102  1.2441 -1.1703  0.0967
 5160TIP3   OH236970   6.104   3.297  14.927  0.1988  0.0152 -0.0926
 5160TIP3    H136971   6.183   3.336  14.889 -1.0969  1.8342 -1.0823
 5160TIP3    H236972   6.101   3.332  15.016  0.1903  0.4786 -0.2686
 5161TIP3   OH236973   4.899   6.264   3.898  0.0931  0.3186 -0.2335
 5161TIP3    H136974   4.967   6.197   3.902 -2.0245 -1.9396  1.2605
 5161TIP3    H236975   4.888   6.291   3.989 -3.6390 -2.4412  0.3863
 5162TIP3   OH236976   0.271   6.423   3.408  0.3236 -0.2619  0.2032
 5162TIP3    H136977   0.281   6.425   3.313  0.1849  1.2837  0.1850
 5162TIP3    H236978   0.182   6.454   3.423  1.2387  2.3397  0.8739
 5163TIP3   OH236979   1.222   5.126   4.488 -0.1838 -0.9745 -0.0801
 5163TIP3    H136980   1.245   5.048   4.437 -0.6735 -0.9462 -0.3535
 5163TIP3    H236981   1.231   5.099   4.579  1.3202 -0.8393 -0.1665
 5164TIP3   OH236982   5.302   0.613  13.107 -0.5439 -0.6108 -0.5940
 5164TIP3    H136983   5.289   0.676  13.036 -0.9770 -0.4943 -0.4111
 5164TIP3    H236984   5.394   0.587  13.099  0.5865  2.3362  1.2103
 5165TIP3   OH236985   5.482   2.052   3.778  0.0747  0.2953  0.4354
 5165TIP3    H136986   5.558   2.108   3.762  1.2663 -1.4522 -0.3060
 5165TIP3    H236987   5.477   1.995   3.702 -0.5864 -1.1587  1.5070
 5166TIP3   OH236988   5.630   2.709   4.658  0.0517  0.3949 -0.0232
 5166TIP3    H136989   5.548   2.748   4.628  0.6028  1.1880 -0.5594
 5166TIP3    H236990   5.615   2.615   4.655 -0.8156  0.5311 -0.1611
 5167TIP3   OH236991   3.079   6.064  11.803 -0.0771  0.1505 -0.3257
 5167TIP3    H136992   3.079   6.133  11.736 -0.8790 -0.4167 -0.9350
 5167TIP3    H236993   2.999   6.014  11.786 -0.3716  0.0744  1.1643
 5168TIP3   OH236994   4.773   4.819  12.833  0.0751  0.2542 -0.0149
 5168TIP3    H136995   4.731   4.809  12.918 -0.0631 -1.4785 -0.2380
 5168TIP3    H236996   4.726   4.757  12.776  1.4167 -0.0345 -0.8459
 5169TIP3   OH236997   2.794   2.181  13.731 -0.0430 -0.3576 -0.0540
 5169TIP3    H136998   2.856   2.176  13.804 -0.7617  0.5303  0.6397
 5169TIP3    H236999   2.728   2.115  13.751 -1.1040  0.9589  0.9658
 5170TIP3   OH237000   3.411   4.738  15.075  0.9678  0.0064  0.4697
 5170TIP3    H137001   3.506   4.749  15.078  1.0779 -0.8437  0.5508
 5170TIP3    H237002   3.389   4.695  15.158  0.6023 -0.3616  0.1902
 5171TIP3   OH237003   5.021   5.381   1.126  0.1021  0.7375 -0.4114
 5171TIP3    H137004   4.995   5.365   1.217 -1.5777  0.6720 -0.8625
 5171TIP3    H237005   5.037   5.475   1.121  0.8115  0.6442  0.0970
 5172TIP3   OH237006   1.002   6.217   1.382 -0.1965  0.1190  0.0533
 5172TIP3    H137007   1.019   6.125   1.403 -0.3876  0.5369  2.2788
 5172TIP3    H237008   1.089   6.257   1.380 -0.1591  0.0261 -0.2457
 5173TIP3   OH237009   4.753   3.876  15.756  0.5100  0.4700 -0.1936
 5173TIP3    H137010   4.808   3.944  15.797 -0.8774  1.6863 -0.2815
 5173TIP3    H237011   4.712   3.920  15.682  1.1890 -1.0753 -1.5567
 5174TIP3   OH237012   2.510   3.233   2.404  0.2803  0.1797  0.0097
 5174TIP3    H137013   2.568   3.185   2.344 -0.3146 -0.1652 -0.3001
 5174TIP3    H237014   2.468   3.165   2.456 -0.3902  0.3806 -0.2652
 5175TIP3   OH237015   1.666   1.359  10.480 -0.1510  0.2373  0.9981
 5175TIP3    H137016   1.725   1.303  10.429 -0.1439  0.8944  0.2487
 5175TIP3    H237017   1.581   1.315  10.475  0.6899 -2.0852  4.2282
 5176TIP3   OH237018   5.697   3.840  15.376  0.5624 -0.1065  0.3704
 5176TIP3    H137019   5.792   3.843  15.387  0.6815  2.7369 -0.5814
 5176TIP3    H237020   5.683   3.767  15.316  2.2801  0.1314 -0.3923
 5177TIP3   OH237021   5.605   4.423  14.398  0.3993  0.2982  0.0141
 5177TIP3    H137022   5.602   4.327  14.401 -2.0758  0.2860 -0.3353
 5177TIP3    H237023   5.576   4.450  14.485  0.0926  0.7050 -0.2111
 5178TIP3   OH237024   3.137   4.886  10.327 -0.1788 -0.1792 -0.2186
 5178TIP3    H137025   3.043   4.904  10.324 -0.3324 -0.0766  2.5593
 5178TIP3    H237026   3.176   4.949  10.267 -1.8401 -0.0430 -1.2187
 5179TIP3   OH237027   1.611   5.223  14.558 -0.0092  0.1827  0.5524
 5179TIP3    H137028   1.625   5.297  14.616 -3.0283 -0.1547  1.8502
 5179TIP3    H237029   1.608   5.147  14.616 -0.6310 -0.4806 -0.3249
 5180TIP3   OH237030   3.021   6.553  14.170  0.0416  0.0709 -0.2536
 5180TIP3    H137031   3.050   6.557  14.079 -0.6747  0.3211 -0.4750
 5180TIP3    H237032   3.073   6.482  14.209  1.1686  0.7102 -0.5529
 5181TIP3   OH237033   5.041   1.602   4.745  0.3917 -0.1358 -0.1183
 5181TIP3    H137034   5.050   1.591   4.839 -0.1192  0.7250  0.0374
 5181TIP3    H237035   4.975   1.671   4.734 -0.8203 -1.3852 -1.1236
 5182TIP3   OH237036   2.733   4.288  14.610  0.2630 -0.4237 -0.2242
 5182TIP3    H137037   2.759   4.231  14.537  1.1157  1.2440 -1.2973
 5182TIP3    H237038   2.689   4.362  14.568 -0.3558 -0.0268  1.0844
 5183TIP3   OH237039   5.043   6.385   6.126  0.6490 -0.0732  0.4971
 5183TIP3    H137040   5.125   6.373   6.175  0.4529  1.5522  1.3147
 5183TIP3    H237041   4.975   6.350   6.184  0.5001  1.1034  1.0516
 5184TIP3   OH237042   0.678   0.754   3.497 -0.7130  0.3764 -0.2658
 5184TIP3    H137043   0.730   0.759   3.578 -0.9937  1.3051 -0.1306
 5184TIP3    H237044   0.690   0.840   3.456  0.7282 -0.6075 -2.0462
 5185TIP3   OH237045   0.927   5.917   0.025 -0.5981  0.9425 -0.9794
 5185TIP3    H137046   0.871   5.918  -0.052  1.2150  1.3833 -2.3740
 5185TIP3    H237047   1.009   5.958  -0.004  0.7821 -0.4509  0.6800
 5186TIP3   OH237048   3.003   4.067  16.203  0.3906 -0.2485 -0.2697
 5186TIP3    H137049   3.000   4.039  16.295 -0.1764 -2.1496 -0.8156
 5186TIP3    H237050   2.915   4.047  16.169  0.0640  1.9144 -0.8613
 5187TIP3   OH237051   2.317   5.999   4.037 -0.1239  0.2396  0.0587
 5187TIP3    H137052   2.258   5.997   3.962 -0.9775  0.8041  0.6870
 5187TIP3    H237053   2.405   6.005   3.999 -0.5458  0.6585 -0.8856
 5188TIP3   OH237054   4.673   3.909  16.097 -0.8528 -0.1509 -0.3455
 5188TIP3    H137055   4.644   3.839  16.040 -1.1171  1.2133 -1.9559
 5188TIP3    H237056   4.599   3.969  16.103  0.3829  1.6494 -1.7407
 5189TIP3   OH237057   5.958   2.685  13.674  0.1579  0.1293 -0.2119
 5189TIP3    H137058   6.002   2.670  13.758 -0.6817 -1.5815 -0.0339
 5189TIP3    H237059   5.914   2.770  13.685  1.5810  0.8165  0.3802
 5190TIP3   OH237060   3.416   0.965  13.444  0.4207  0.2320 -0.3213
 5190TIP3    H137061   3.417   0.877  13.407 -0.4763  0.3708 -0.7046
 5190TIP3    H237062   3.331   1.001  13.418  1.1403  1.5411 -0.9656
 5191TIP3   OH237063   5.552   5.634   5.574 -0.0069 -0.0803 -0.3100
 5191TIP3    H137064   5.619   5.595   5.630 -1.3886 -2.2941 -0.0677
 5191TIP3    H237065   5.503   5.560   5.539 -0.6522  1.3456 -2.6560
 5192TIP3   OH237066   3.713   5.074  15.288 -0.4330  0.0933  0.0618
 5192TIP3    H137067   3.756   5.146  15.241 -1.4448  0.8931  0.3292
 5192TIP3    H237068   3.624   5.072  15.253 -1.1622  0.6049  1.8076
 5193TIP3   OH237069   4.995   2.043  14.703 -0.0555 -0.9569 -0.5088
 5193TIP3    H137070   4.974   2.110  14.768 -1.9055 -1.7229 -0.2570
 5193TIP3    H237071   4.931   2.055  14.634 -0.7394 -2.7318 -0.2309
 5194TIP3   OH237072   6.366   3.292   1.529 -0.1697  0.2565 -0.0253
 5194TIP3    H137073   6.398   3.327   1.612 -1.7524  0.8970  0.3451
 5194TIP3    H237074   6.421   3.334   1.463  1.0498 -0.1932  0.6733
 5195TIP3   OH237075   0.025   4.658   0.856  0.4070 -0.3914 -0.2703
 5195TIP3    H137076  -0.055   4.701   0.885  0.6631  0.0223 -0.1667
 5195TIP3    H237077   0.050   4.705   0.776 -0.0342 -1.2136 -0.9085
 5196TIP3   OH237078   2.376   1.771   2.854 -0.3456  0.0576  0.8111
 5196TIP3    H137079   2.440   1.827   2.898  0.6939  0.4592 -1.1286
 5196TIP3    H237080   2.403   1.770   2.763 -0.4639 -3.4121  0.6742
 5197TIP3   OH237081   1.233   2.038   5.157 -0.1712 -0.2241 -0.5680
 5197TIP3    H137082   1.187   2.108   5.203  0.9017  0.2776 -0.2401
 5197TIP3    H237083   1.326   2.055   5.173  0.1438 -1.1504 -1.3161
 5198TIP3   OH237084   5.868   0.915  13.962 -0.5085 -1.1013 -0.1593
 5198TIP3    H137085   5.885   0.869  14.044 -0.6935  0.1020  0.5824
 5198TIP3    H237086   5.773   0.919  13.956 -0.5138  0.2710  0.4512
 5199TIP3   OH237087   3.469   3.812  14.836 -0.3663 -0.1258 -0.5428
 5199TIP3    H137088   3.472   3.806  14.932 -0.0585 -0.4447 -0.5717
 5199TIP3    H237089   3.538   3.752  14.806 -0.0654  0.4080 -0.9430
 5200TIP3   OH237090   0.802   2.208  12.959  0.4711  0.3014  0.1728
 5200TIP3    H137091   0.773   2.222  13.049 -0.2473 -2.9807  0.5559
 5200TIP3    H237092   0.732   2.246  12.905 -0.6403 -0.4774  1.0452
 5201TIP3   OH237093   2.209   2.172   4.864  0.0347  0.1774  0.1637
 5201TIP3    H137094   2.216   2.128   4.780  2.1580  1.4695 -0.4113
 5201TIP3    H237095   2.288   2.147   4.912  1.2614  3.0411 -0.1279
 5202TIP3   OH237096   1.472   3.517   2.971 -0.1943 -0.1221  0.5968
 5202TIP3    H137097   1.440   3.449   3.031 -1.4193 -0.3941 -0.3234
 5202TIP3    H237098   1.400   3.531   2.910  1.0247  0.1148 -0.8588
 5203TIP3   OH237099   4.193   2.384   3.057 -0.4381 -0.1441  0.8472
 5203TIP3    H137100   4.269   2.328   3.074 -1.4327 -1.4744  1.0732
 5203TIP3    H237101   4.229   2.461   3.013  1.1481 -0.3419  1.7352
 5204TIP3   OH237102   3.626   2.421  11.752 -0.5789 -0.0021  0.0948
 5204TIP3    H137103   3.530   2.422  11.758 -0.5616 -0.9640  0.7050
 5204TIP3    H237104   3.651   2.334  11.784  0.5080  0.2772  0.0286
 5205TIP3   OH237105   0.765   3.311   3.050  0.0078  0.3415 -0.0361
 5205TIP3    H137106   0.685   3.273   3.013 -0.0291 -0.7034  1.0466
 5205TIP3    H237107   0.816   3.339   2.974 -0.9356  0.0948 -0.7826
 5206TIP3   OH237108   1.855   4.734  11.452 -0.4891 -0.4545  0.6272
 5206TIP3    H137109   1.864   4.805  11.388 -2.3870 -0.1155  0.6855
 5206TIP3    H237110   1.944   4.700  11.462  0.5211  1.9386  0.6305
 5207TIP3   OH237111   5.751   2.926   1.029 -0.0477  0.1756 -0.0886
 5207TIP3    H137112   5.840   2.960   1.040 -0.2328  1.1394 -1.2966
 5207TIP3    H237113   5.723   2.961   0.945 -1.4826 -0.3425  0.1518
 5208TIP3   OH237114   4.239   1.137   0.595  0.3185  0.2603 -0.1934
 5208TIP3    H137115   4.159   1.146   0.542 -0.4680  0.9143  1.0539
 5208TIP3    H237116   4.207   1.111   0.682  1.5261 -0.1095  0.1529
 5209TIP3   OH237117   0.824   4.118   0.568 -0.0431  0.2348  0.8357
 5209TIP3    H137118   0.763   4.114   0.495 -0.3560 -0.3595  1.1270
 5209TIP3    H237119   0.878   4.195   0.549  0.2922 -0.2655 -0.3418
 5210TIP3   OH237120   5.963   4.719   1.260  0.7219  0.0118  0.2361
 5210TIP3    H137121   5.938   4.765   1.180 -0.5089  0.3996  0.8130
 5210TIP3    H237122   6.017   4.646   1.230 -0.8611 -0.6918 -1.1088
 5211TIP3   OH237123   2.187   3.607   8.083  0.2374  0.1430  0.6206
 5211TIP3    H137124   2.125   3.669   8.044  1.0263  0.6581  0.1715
 5211TIP3    H237125   2.170   3.613   8.177 -0.6187  0.0319  0.4861
 5212TIP3   OH237126   5.408   1.793   5.064  0.5446 -0.3386  0.4230
 5212TIP3    H137127   5.448   1.844   4.993  1.4649  1.1139  1.9167
 5212TIP3    H237128   5.458   1.711   5.065  1.5002  0.2239  0.3153
 5213TIP3   OH237129   6.403   0.762   0.623 -0.2914 -0.4811  0.3406
 5213TIP3    H137130   6.370   0.672   0.620  0.1851 -0.6651  0.4928
 5213TIP3    H237131   6.465   0.767   0.551 -1.1595  0.0743 -0.3856
 5214TIP3   OH237132   5.504   4.051  16.552 -0.4111 -0.1862 -0.4313
 5214TIP3    H137133   5.578   3.991  16.542  0.0211  0.4820 -1.3226
 5214TIP3    H237134   5.441   4.023  16.486 -0.8006 -0.5207  0.0776
 5215TIP3   OH237135   3.628   0.022   2.557  0.6064  0.1501  0.0929
 5215TIP3    H137136   3.665  -0.056   2.599 -0.5145  0.7224  2.2413
 5215TIP3    H237137   3.581  -0.013   2.481  2.0628 -0.9943 -0.3326
 5216TIP3   OH237138   2.265   2.656  16.110  0.2014  0.0744  0.2782
 5216TIP3    H137139   2.358   2.635  16.115  0.4271  1.2156  1.3965
 5216TIP3    H237140   2.222   2.571  16.102  1.3267 -0.4721 -0.2099
 5217TIP3   OH237141   2.137   0.562  16.132 -0.1412 -0.5190 -0.2708
 5217TIP3    H137142   2.211   0.582  16.191 -1.3607 -2.2103  1.9960
 5217TIP3    H237143   2.174   0.571  16.044  1.8990  1.7682  0.6915
 5218TIP3   OH237144   0.858   1.482  12.964 -0.1515  0.1476 -0.0829
 5218TIP3    H137145   0.778   1.455  13.008 -0.1597  0.0090 -0.1828
 5218TIP3    H237146   0.912   1.403  12.963 -1.3418 -0.7538 -3.0562
 5219TIP3   OH237147   0.433   2.443   2.753  0.2256  0.2605 -0.1760
 5219TIP3    H137148   0.373   2.428   2.826  1.4524 -0.2938  0.7387
 5219TIP3    H237149   0.520   2.445   2.792  1.0727 -1.6465 -1.7994
 5220TIP3   OH237150   1.167   3.151  15.789 -0.2773  0.5550  0.1235
 5220TIP3    H137151   1.226   3.216  15.751 -0.6463  0.0981 -1.2973
 5220TIP3    H237152   1.211   3.123  15.870  0.3496  1.8424  0.2582
 5221TIP3   OH237153   0.002   6.638   4.571 -0.3627  0.1409 -0.1508
 5221TIP3    H137154  -0.065   6.669   4.510 -2.3359 -0.3365  1.6363
 5221TIP3    H237155   0.081   6.686   4.547 -1.3873  0.9067 -2.2078
 5222TIP3   OH237156   4.843   1.142   4.191 -0.3381  0.2656  0.0575
 5222TIP3    H137157   4.873   1.131   4.101  1.1835 -1.0184  0.6671
 5222TIP3    H237158   4.761   1.192   4.183 -1.1767 -1.2932 -2.1486
 5223TIP3   OH237159   3.941   6.225   2.422  0.5444 -0.5482  0.0684
 5223TIP3    H137160   3.863   6.193   2.378 -0.1995  1.2102  0.0276
 5223TIP3    H237161   3.909   6.291   2.483  1.8199 -1.1061  1.4120
 5224TIP3   OH237162   3.448   2.243   6.124 -0.3500 -0.0388  0.2343
 5224TIP3    H137163   3.467   2.337   6.119 -0.8702  0.0435 -0.3038
 5224TIP3    H237164   3.534   2.201   6.117  0.0622  0.4258  2.1088
 5225TIP3   OH237165   2.080   4.612   1.753  0.5910 -0.0172 -0.2594
 5225TIP3    H137166   2.166   4.575   1.771  0.8337  0.6844  0.0738
 5225TIP3    H237167   2.097   4.680   1.688  0.0926 -0.7501 -1.1868
 5226TIP3   OH237168   3.974   4.779   1.385 -0.5292 -0.4017  0.7865
 5226TIP3    H137169   3.988   4.739   1.300  1.1259  0.8512  0.4110
 5226TIP3    H237170   3.880   4.800   1.387 -0.5597 -0.2913 -0.8121
 5227TIP3   OH237171   5.084   6.384   1.765  0.5865  0.0040 -0.3247
 5227TIP3    H137172   5.176   6.376   1.790  0.1455 -2.7788  0.7832
 5227TIP3    H237173   5.037   6.388   1.848 -0.3978 -0.7068 -0.8265
 5228TIP3   OH237174   5.651   2.082  13.841 -0.2838  0.1495  0.2212
 5228TIP3    H137175   5.589   2.014  13.816 -0.6858  0.8005 -0.6428
 5228TIP3    H237176   5.596   2.152  13.878 -0.1615  0.9544 -1.0394
 5229TIP3   OH237177   4.260   0.188   3.956 -0.4330 -0.1142  0.5777
 5229TIP3    H137178   4.179   0.192   4.007 -0.6815  2.3881  0.1464
 5229TIP3    H237179   4.308   0.114   3.992 -1.7353 -0.0177  2.6964
 5230TIP3   OH237180   0.640   6.062   3.024 -0.4439  0.0686 -0.8622
 5230TIP3    H137181   0.621   5.973   2.994 -0.4814 -0.6082  1.0073
 5230TIP3    H237182   0.701   6.050   3.097  0.4985  1.6712 -1.3459
 5231TIP3   OH237183   4.011   0.765   3.557  0.2275 -0.4413  0.0381
 5231TIP3    H137184   4.071   0.799   3.491 -1.0408 -0.3508 -1.1124
 5231TIP3    H237185   4.033   0.813   3.637  0.4568  0.9198 -0.8209
 5232TIP3   OH237186   0.289   1.109  15.692 -0.5849 -0.2425 -0.2560
 5232TIP3    H137187   0.290   1.073  15.780 -0.2292  1.5408  0.5038
 5232TIP3    H237188   0.207   1.158  15.686  1.0926  2.9753  0.5806
 5233TIP3   OH237189   1.139   3.266  11.134  0.6186  0.2415  0.5955
 5233TIP3    H137190   1.122   3.186  11.085  2.5540 -0.1345  0.4470
 5233TIP3    H237191   1.071   3.327  11.105 -0.3152 -1.0367  0.0052
 5234TIP3   OH237192   3.586   6.001   9.984  0.3947 -0.2887 -0.1479
 5234TIP3    H137193   3.520   5.943   9.946  0.9839 -2.4127  1.8042
 5234TIP3    H237194   3.536   6.078  10.014 -0.6111 -0.2976 -1.7107
 5235TIP3   OH237195   2.805   6.049   3.713  0.8626 -0.0109  0.1197
 5235TIP3    H137196   2.857   5.971   3.694 -1.0078 -1.2247 -0.2546
 5235TIP3    H237197   2.744   6.021   3.781  0.5506  1.3147  0.4112
 5236TIP3   OH237198   4.310   2.331   6.472 -0.3589 -0.0352  0.6663
 5236TIP3    H137199   4.292   2.246   6.433  1.6201 -0.0301 -0.3574
 5236TIP3    H237200   4.330   2.311   6.564 -0.6671 -0.5711  0.6223
 5237TIP3   OH237201   4.551   5.120  12.912 -0.1403 -0.0314 -0.0593
 5237TIP3    H137202   4.627   5.124  12.855  0.3333 -0.7706  0.5039
 5237TIP3    H237203   4.563   5.039  12.963 -0.3763  0.7686  1.3102
 5238TIP3   OH237204   3.910   4.065   0.165  0.1553 -0.3416  0.2623
 5238TIP3    H137205   3.846   4.115   0.115 -1.3738 -0.0265  2.3736
 5238TIP3    H237206   3.914   3.980   0.121  1.2579  0.8602 -2.1629
 5239TIP3   OH237207   5.509   4.145   1.881  0.0583  0.4707 -0.0862
 5239TIP3    H137208   5.425   4.167   1.922 -1.0720 -2.2579 -0.7432
 5239TIP3    H237209   5.567   4.126   1.954 -0.7785 -0.4806  0.3469
 5240TIP3   OH237210   2.992   1.614  11.771 -0.0649  0.1158 -0.1510
 5240TIP3    H137211   2.990   1.710  11.766 -2.5464  0.0948 -1.0000
 5240TIP3    H237212   2.964   1.585  11.684 -2.0088 -1.2863  0.8496
 5241TIP3   OH237213   3.105   3.232  10.467 -0.2031 -0.6411 -0.7100
 5241TIP3    H137214   3.016   3.240  10.500 -0.2224  1.0109 -1.0624
 5241TIP3    H237215   3.137   3.149  10.502 -1.0438 -0.1174  1.4116
 5242TIP3   OH237216   2.718   3.632  13.139 -0.0766  0.0962 -0.0636
 5242TIP3    H137217   2.761   3.707  13.098 -1.2283  0.7457 -0.1426
 5242TIP3    H237218   2.668   3.592  13.068  0.1654 -0.4778  0.0834
 5243TIP3   OH237219   3.086   2.337  13.503 -0.0327 -0.0394 -0.0588
 5243TIP3    H137220   2.993   2.328  13.483  0.2421  0.6158 -1.7989
 5243TIP3    H237221   3.099   2.431  13.515 -0.0431 -0.3371  2.7755
 5244TIP3   OH237222   6.136   5.046  14.444 -0.1573  0.1659 -1.0660
 5244TIP3    H137223   6.139   4.978  14.377 -0.7320  1.1537 -2.1455
 5244TIP3    H237224   6.049   5.035  14.484 -0.4913  0.6050 -1.6439
 5245TIP3   OH237225   3.379   6.368  14.027  0.9046 -0.9812  0.2460
 5245TIP3    H137226   3.412   6.311  13.958  2.7103 -2.0624  1.9112
 5245TIP3    H237227   3.418   6.453  14.008 -1.7050 -0.1787 -2.1808
 5246TIP3   OH237228   1.607   2.122  10.921 -0.0566  0.2671  0.1822
 5246TIP3    H137229   1.569   2.209  10.905  0.5249  0.4625 -0.1638
 5246TIP3    H237230   1.701   2.137  10.920  0.0406 -0.3208  0.4375
 5247TIP3   OH237231   5.377   4.014   0.291  0.4503 -0.4593  0.1491
 5247TIP3    H137232   5.350   4.088   0.238  1.0804  0.1330  0.6414
 5247TIP3    H237233   5.472   4.010   0.281  0.5635 -0.4365  1.0993
 5248TIP3   OH237234   1.527   6.668   4.361 -0.0797 -1.1102  0.2795
 5248TIP3    H137235   1.619   6.687   4.378 -0.4150  1.9562 -0.6063
 5248TIP3    H237236   1.492   6.638   4.444  1.2263  0.1326  1.3218
 5249TIP3   OH237237   1.423   0.842  14.071 -0.9445 -0.0321 -0.1685
 5249TIP3    H137238   1.372   0.915  14.107 -2.0163 -1.0986  0.5308
 5249TIP3    H237239   1.462   0.800  14.148  0.8737  0.6403 -0.6725
 5250TIP3   OH237240   0.532   1.570  13.660 -0.0769  0.6667  0.0168
 5250TIP3    H137241   0.614   1.520  13.653  0.0073  0.9703 -1.5388
 5250TIP3    H237242   0.507   1.562  13.752  0.6525 -1.0850  0.1019
 5251TIP3   OH237243   3.708   3.045   3.249  0.4950 -0.4559  0.2272
 5251TIP3    H137244   3.705   3.050   3.153 -0.3473 -2.5472  0.1079
 5251TIP3    H237245   3.768   2.974   3.268  2.3312  1.2807  1.3832
 5252TIP3   OH237246   5.972   0.144   4.502  0.2337  0.1815  0.9748
 5252TIP3    H137247   6.056   0.171   4.465  0.4531  0.7515  1.8619
 5252TIP3    H237248   5.948   0.215   4.561 -0.6288 -0.2165  1.1171
 5253TIP3   OH237249   1.480   6.340  13.440 -0.1482 -0.9394 -0.5659
 5253TIP3    H137250   1.430   6.402  13.388  1.3070 -0.3623 -1.3271
 5253TIP3    H237251   1.544   6.394  13.487 -0.3807 -1.6272  0.5721
 5254TIP3   OH237252   4.086   4.361   1.525 -0.2538  0.1432 -0.1986
 5254TIP3    H137253   4.046   4.403   1.601 -1.3362 -0.8931 -0.1587
 5254TIP3    H237254   4.148   4.298   1.563 -0.4827 -0.0748 -0.1850
 5255TIP3   OH237255   4.555   2.818  13.888  0.0467 -0.5906 -0.7262
 5255TIP3    H137256   4.541   2.904  13.848  0.3157 -0.0373  0.3385
 5255TIP3    H237257   4.565   2.836  13.981 -0.9158 -1.8849 -0.3464
 5256TIP3   OH237258   3.789   0.161  13.601 -0.4596  0.1689  0.1105
 5256TIP3    H137259   3.838   0.163  13.518  2.8330 -3.0126  1.6863
 5256TIP3    H237260   3.737   0.082  13.596 -0.8546  0.3786  0.7760
 5257TIP3   OH237261   3.657   0.250  10.472  0.0207  0.4004 -0.4515
 5257TIP3    H137262   3.621   0.333  10.501  1.9078  0.9046  0.6239
 5257TIP3    H237263   3.686   0.206  10.552  1.7750  0.0778 -1.2034
 5258TIP3   OH237264   1.716   1.166   2.299 -0.4475  0.2721  0.4081
 5258TIP3    H137265   1.629   1.197   2.274 -0.1498 -0.1815 -1.3470
 5258TIP3    H237266   1.701   1.117   2.380 -2.1642 -1.3163 -0.7819
 5259TIP3   OH237267   1.065   0.213  15.007  0.0897 -0.8811  0.4455
 5259TIP3    H137268   0.979   0.254  15.016  0.8961  1.9994 -2.7943
 5259TIP3    H237269   1.121   0.262  15.067 -0.0147 -0.9966  0.6380
 5260TIP3   OH237270   6.558   5.238  11.594 -0.0742 -0.2970 -0.1032
 5260TIP3    H137271   6.553   5.224  11.688 -0.7762 -2.1071 -0.3728
 5260TIP3    H237272   6.609   5.165  11.561 -1.6894 -0.9375 -1.3458
 5261TIP3   OH237273   5.084   3.464   1.821 -0.4201  0.1630  0.5741
 5261TIP3    H137274   5.176   3.488   1.837 -0.6877  0.2936  2.0661
 5261TIP3    H237275   5.086   3.368   1.814  0.1990  0.3001 -2.2603
 5262TIP3   OH237276   4.000   3.954   1.666  0.6583 -0.2688 -0.3330
 5262TIP3    H137277   4.028   3.874   1.711 -1.1408 -0.8282 -0.1341
 5262TIP3    H237278   3.983   4.016   1.737 -0.5212 -0.6010 -0.2993
 5263TIP3   OH237279   4.116   2.988   4.952 -0.0104 -0.6981 -0.0062
 5263TIP3    H137280   4.170   3.048   5.004 -0.8013 -0.2543  0.3339
 5263TIP3    H237281   4.026   3.016   4.970 -0.3675 -1.5936 -0.3396
 5264TIP3   OH237282   4.401   3.569   6.524 -0.1226  0.5306  0.2579
 5264TIP3    H137283   4.486   3.577   6.568 -0.6797 -0.6997  1.6353
 5264TIP3    H237284   4.391   3.651   6.476  1.7244  0.7986  0.2555
 5265TIP3   OH237285   3.311   4.650   3.180 -0.1023 -0.2594 -0.1029
 5265TIP3    H137286   3.332   4.562   3.212  0.6840  0.4099  1.2786
 5265TIP3    H237287   3.307   4.639   3.085 -0.5687 -1.8981  0.0681
 5266TIP3   OH237288   6.886   4.353   1.472  0.2166 -0.0742  0.1876
 5266TIP3    H137289   6.895   4.425   1.410  0.2827  0.0628  0.3582
 5266TIP3    H237290   6.930   4.279   1.430 -0.3537 -0.1763 -0.2516
 5267TIP3   OH237291   6.424   4.888   3.085 -0.3580 -0.0144  0.2222
 5267TIP3    H137292   6.466   4.882   3.171  0.9062 -3.5197 -0.4639
 5267TIP3    H237293   6.448   4.975   3.053  0.6081  0.7072  2.6582
 5268TIP3   OH237294   3.677   2.487   4.865  0.5134 -1.0647  0.2070
 5268TIP3    H137295   3.651   2.400   4.838 -1.9226 -1.1238  2.3336
 5268TIP3    H237296   3.597   2.527   4.898  1.9630  1.2081  1.2648
 5269TIP3   OH237297   4.134   4.609   2.106  0.6355  0.0393  1.0126
 5269TIP3    H137298   4.075   4.665   2.156  0.2112  0.0416  0.5150
 5269TIP3    H237299   4.137   4.648   2.019 -0.2151 -1.0859  0.4469
 5270TIP3   OH237300   0.859   1.709   6.394  0.3039  0.3688  0.0484
 5270TIP3    H137301   0.895   1.660   6.320 -0.2025 -0.3714  0.2776
 5270TIP3    H237302   0.926   1.774   6.415  0.8005  0.0605 -0.5493
 5271TIP3   OH237303   1.341   6.326   4.759 -0.4525  0.3359  0.1853
 5271TIP3    H137304   1.397   6.273   4.702  1.3846  1.6404  0.7228
 5271TIP3    H237305   1.261   6.274   4.768  0.7543 -1.7325 -0.3838
 5272TIP3   OH237306   3.458   1.112   0.331  0.1792  0.3120 -0.1913
 5272TIP3    H137307   3.388   1.108   0.266  0.2764  0.4454 -0.3033
 5272TIP3    H237308   3.499   1.197   0.318  1.1985 -0.2807 -0.9883
 5273TIP3   OH237309   0.195   1.083  13.261  0.0185  0.4131  0.0134
 5273TIP3    H137310   0.286   1.113  13.254  0.7615 -1.5057  0.6768
 5273TIP3    H237311   0.162   1.085  13.172  0.1961  2.5735 -0.0399
 5274TIP3   OH237312   4.364   5.916   2.259 -0.6403 -0.3624  0.8132
 5274TIP3    H137313   4.277   5.887   2.287 -0.4711 -0.1213  1.5976
 5274TIP3    H237314   4.396   5.969   2.332 -0.7883  1.5135 -0.4228
 5275TIP3   OH237315   6.066   2.249   3.529 -0.0004 -0.4958 -0.2950
 5275TIP3    H137316   6.035   2.220   3.615  3.0774 -0.4116  0.9499
 5275TIP3    H237317   6.056   2.344   3.532 -0.5845 -0.5484 -0.3526
 5276TIP3   OH237318   1.634   6.250  11.491  0.4037  0.1728 -0.3373
 5276TIP3    H137319   1.677   6.250  11.406 -1.4840  0.9207 -1.3651
 5276TIP3    H237320   1.588   6.166  11.494  0.9432 -0.1117  0.2309
 5277TIP3   OH237321   6.775   0.294  13.325 -0.5036 -0.1274 -0.6796
 5277TIP3    H137322   6.789   0.293  13.230  0.4264  1.7701 -0.6119
 5277TIP3    H237323   6.780   0.387  13.349  0.5828 -0.6604  1.4027
 5278TIP3   OH237324   3.465   1.787   0.654  0.8840 -0.0762  0.3665
 5278TIP3    H137325   3.392   1.774   0.594 -0.3597  0.3453  1.7230
 5278TIP3    H237326   3.498   1.699   0.672  0.4788 -0.3028  0.0210
 5279TIP3   OH237327   6.661   4.090  13.510 -0.2945  0.1919 -0.0315
 5279TIP3    H137328   6.707   4.174  13.511 -1.4652  0.8791 -0.9172
 5279TIP3    H237329   6.640   4.076  13.417 -0.3327 -0.9633  0.1371
 5280TIP3   OH237330   1.612   4.309  10.679  0.1277 -0.4759  0.2534
 5280TIP3    H137331   1.524   4.346  10.676  0.1051 -0.3779  1.6343
 5280TIP3    H237332   1.671   4.385  10.677  0.2534 -0.5640 -1.6331
 5281TIP3   OH237333   3.716   5.420  15.868  0.1087 -0.1204 -0.5284
 5281TIP3    H137334   3.700   5.463  15.784  1.0982  2.0616  0.3301
 5281TIP3    H237335   3.631   5.383  15.893 -0.7650  1.2483 -1.3758
 5282TIP3   OH237336   2.193   2.387  10.946 -0.1601 -0.1873  0.7026
 5282TIP3    H137337   2.162   2.385  11.036 -1.8899 -0.8875  0.1437
 5282TIP3    H237338   2.207   2.480  10.927 -1.7446  0.1724  1.1066
 5283TIP3   OH237339   2.632   1.562  15.569 -0.0052 -0.3595  0.1624
 5283TIP3    H137340   2.678   1.480  15.587  0.3428 -0.3164 -0.4880
 5283TIP3    H237341   2.600   1.551  15.480 -0.5435 -0.0534  0.3192
 5284TIP3   OH237342   1.592   4.870  11.407 -0.1537 -0.2531 -0.4879
 5284TIP3    H137343   1.504   4.846  11.379  0.1028 -2.4397  0.3659
 5284TIP3    H237344   1.639   4.888  11.326 -1.4431  1.3652 -0.9414
 5285TIP3   OH237345   4.725   2.959   0.433 -0.2069 -0.4586  0.1262
 5285TIP3    H137346   4.764   3.001   0.357 -1.1821 -1.0193 -0.7127
 5285TIP3    H237347   4.766   3.002   0.509  3.2170 -2.0345 -0.6091
 5286TIP3   OH237348   6.835   0.830  13.188 -0.5539 -0.0325 -0.0002
 5286TIP3    H137349   6.749   0.871  13.180 -0.7129 -0.4626 -0.5863
 5286TIP3    H237350   6.858   0.838  13.280 -1.5825 -0.6555  0.3132
 5287TIP3   OH237351   4.934   2.578  12.305 -0.0079  0.2723  0.4565
 5287TIP3    H137352   4.918   2.606  12.215  3.5138  0.6897 -0.1723
 5287TIP3    H237353   4.939   2.660  12.355  2.2838  0.3807  0.1428
 5288TIP3   OH237354   4.137   6.066   4.432 -0.2519 -0.2863 -0.4773
 5288TIP3    H137355   4.148   5.976   4.401 -1.7635 -0.2182 -1.3045
 5288TIP3    H237356   4.074   6.059   4.504  1.4728 -0.1431  1.1565
 5289TIP3   OH237357   0.087   3.791   5.006 -0.3246 -0.1842  0.2411
 5289TIP3    H137358   0.037   3.821   5.082 -0.5047  0.3670 -0.0892
 5289TIP3    H237359   0.173   3.768   5.041 -0.8775 -1.4234  0.8650
 5290TIP3   OH237360   3.325   0.339  11.612 -0.9298 -0.0326  0.3681
 5290TIP3    H137361   3.382   0.264  11.593 -1.8295 -0.3481 -1.2470
 5290TIP3    H237362   3.335   0.396  11.535 -0.7402  1.2207  1.2901
 5291TIP3   OH237363   0.014   5.390   5.500  0.0384  0.0293 -0.1901
 5291TIP3    H137364  -0.053   5.356   5.560  0.7259  0.1055  0.6398
 5291TIP3    H237365  -0.027   5.467   5.460 -1.4049 -1.5154 -1.8347
 5292TIP3   OH237366   0.642   5.706  13.397  0.1406  0.1584  0.1469
 5292TIP3    H137367   0.679   5.792  13.374  2.4099 -0.7222  0.1642
 5292TIP3    H237368   0.662   5.696  13.490 -3.1242  0.9358  1.0605
 5293TIP3   OH237369   4.509   1.022  14.872 -0.2182 -0.1121  0.3738
 5293TIP3    H137370   4.428   0.972  14.870 -0.2363 -0.0871 -1.9154
 5293TIP3    H237371   4.561   0.986  14.801  1.9045 -0.2625  1.9170
 5294TIP3   OH237372   2.363   6.823   5.176  0.3059 -0.2475  0.1861
 5294TIP3    H137373   2.377   6.745   5.230  0.1148  0.9051  1.9483
 5294TIP3    H237374   2.446   6.870   5.181  0.2526 -0.0790 -0.4581
 5295TIP3   OH237375   4.061   3.739  13.188 -0.2862  0.0308  0.2453
 5295TIP3    H137376   4.141   3.760  13.237 -0.3755  0.6653  0.1213
 5295TIP3    H237377   4.009   3.687  13.249  0.9606 -1.9193 -0.2570
 5296TIP3   OH237378   4.118   6.804   4.279  0.8515  0.0926  0.4835
 5296TIP3    H137379   4.153   6.715   4.269  1.5015  0.5095 -1.2284
 5296TIP3    H237380   4.136   6.847   4.195 -1.7926  1.0371  0.3028
 5297TIP3   OH237381   6.167   4.381   3.803  0.4104  0.2039  0.6176
 5297TIP3    H137382   6.240   4.443   3.799  0.0625  0.6914  1.3936
 5297TIP3    H237383   6.204   4.297   3.776  1.0278  0.6371  0.0966
 5298TIP3   OH237384   6.028   0.847  15.325 -0.0187  0.2234  0.4046
 5298TIP3    H137385   5.956   0.864  15.264 -0.7725 -0.0701  1.1942
 5298TIP3    H237386   5.999   0.886  15.408  0.2429 -0.8658  1.0200
 5299TIP3   OH237387   0.351   0.884  12.097  0.0811 -0.1139 -0.3496
 5299TIP3    H137388   0.302   0.845  12.024  0.6300 -0.3637 -0.5857
 5299TIP3    H237389   0.411   0.816  12.125 -0.1520 -0.0319  0.3715
 5300TIP3   OH237390   0.116   0.700   2.611 -0.4720 -0.2068 -0.3466
 5300TIP3    H137391   0.075   0.679   2.694  0.7102 -3.6539 -0.4849
 5300TIP3    H237392   0.208   0.718   2.633 -0.3623 -0.1837 -0.7963
 5301TIP3   OH237393   2.962   6.501  12.496  0.6606 -0.5123 -0.1066
 5301TIP3    H137394   2.914   6.578  12.527 -0.7045 -1.6212  0.6708
 5301TIP3    H237395   2.984   6.453  12.575 -0.0360 -1.7724 -0.6382
 5302TIP3   OH237396   1.164   1.211  14.822  0.0388 -0.0874  0.2895
 5302TIP3    H137397   1.135   1.207  14.731 -0.3683 -0.5488  0.4371
 5302TIP3    H237398   1.220   1.134  14.833  2.3421  1.3873 -0.3215
 5303TIP3   OH237399   6.637   2.055  16.331  0.0740  0.5160  0.4243
 5303TIP3    H137400   6.629   2.095  16.245 -0.8308  0.2189  0.3591
 5303TIP3    H237401   6.726   2.020  16.333 -0.6630 -1.7302 -1.4019
 5304TIP3   OH237402   1.473   5.860  10.517 -0.3316  0.0560  0.3426
 5304TIP3    H137403   1.404   5.807  10.556  0.2055 -0.7333  0.2306
 5304TIP3    H237404   1.517   5.802  10.455 -0.8516  1.1419 -1.0974
 5305TIP3   OH237405   4.070   6.801  15.095 -0.2840 -0.3559 -0.2701
 5305TIP3    H137406   3.983   6.833  15.071  1.3162  1.4637 -4.3776
 5305TIP3    H237407   4.071   6.710  15.065 -0.3273  0.0767 -1.6424
 5306TIP3   OH237408   2.501   4.082  16.199 -0.1383 -0.1738  0.1415
 5306TIP3    H137409   2.501   4.131  16.117  1.6661 -0.3061  0.0204
 5306TIP3    H237410   2.421   4.030  16.196 -0.0146 -0.3112 -1.6192
 5307TIP3   OH237411   5.445   2.184   1.609  0.0808  0.3088  0.6416
 5307TIP3    H137412   5.457   2.278   1.599 -1.9726  0.6319  0.9689
 5307TIP3    H237413   5.393   2.174   1.688  1.3833 -1.2005  1.3637
 5308TIP3   OH237414   3.152   3.802  12.413  0.0324 -0.1204 -0.5590
 5308TIP3    H137415   3.077   3.743  12.422  1.5848 -2.5641 -2.5428
 5308TIP3    H237416   3.218   3.766  12.471 -0.0900  1.8062  0.8948
 5309TIP3   OH237417   0.358   2.568  14.299  0.3983  0.4524 -0.4767
 5309TIP3    H137418   0.296   2.548  14.229  1.7254  0.5281 -1.7312
 5309TIP3    H237419   0.431   2.508  14.284  1.0720  1.0329  0.3607
 5310TIP3   OH237420   6.715   2.910   2.236  0.7442 -0.0349 -0.0961
 5310TIP3    H137421   6.623   2.932   2.251  0.4064 -1.5951  0.2997
 5310TIP3    H237422   6.734   2.945   2.149  0.1124  1.2502  0.2584
 5311TIP3   OH237423   2.101   5.020   3.179  0.2657 -0.6883 -0.4080
 5311TIP3    H137424   2.030   4.956   3.175 -1.6310  1.2531  0.1822
 5311TIP3    H237425   2.107   5.056   3.091 -0.5895  0.2226 -0.1152
 5312TIP3   OH237426   6.055   1.806   1.245 -0.3465  0.4805 -0.6034
 5312TIP3    H137427   6.034   1.721   1.285 -1.1564  0.6460 -0.6571
 5312TIP3    H237428   6.093   1.783   1.160  0.5624  0.1500 -0.1254
 5313TIP3   OH237429   3.067   2.817  15.506  0.1961 -0.1257 -0.6701
 5313TIP3    H137430   3.006   2.746  15.485 -0.5562  0.6332 -1.0782
 5313TIP3    H237431   3.148   2.793  15.460  0.0247 -0.8386 -0.6069
 5314TIP3   OH237432   3.135   1.002   0.362  0.4433 -0.5849  0.0803
 5314TIP3    H137433   3.149   0.920   0.314 -0.3435 -1.2651  0.9848
 5314TIP3    H237434   3.092   0.976   0.443  0.9462  0.6478  0.7681
 5315TIP3   OH237435   5.633   6.589  10.989  0.2116  0.0816 -0.1507
 5315TIP3    H137436   5.636   6.586  10.893 -1.6659 -1.3928 -0.2231
 5315TIP3    H237437   5.702   6.651  11.013  1.7123 -0.5950 -2.3758
 5316TIP3   OH237438   2.601   2.067   1.526 -0.2087 -0.2922  0.0435
 5316TIP3    H137439   2.592   1.988   1.472 -0.4329 -0.0154 -0.3339
 5316TIP3    H237440   2.690   2.063   1.560 -0.0674 -0.4817 -0.3409
 5317TIP3   OH237441   5.745   0.034  13.162 -0.0962  0.3412 -0.4690
 5317TIP3    H137442   5.777  -0.042  13.113  0.1219 -0.0145  0.2048
 5317TIP3    H237443   5.824   0.074  13.199 -0.4162 -1.0357  1.9093
 5318TIP3   OH237444   3.938   5.480   2.574  0.0604 -0.5708 -0.0653
 5318TIP3    H137445   3.945   5.403   2.518  0.6275 -1.2985  0.9776
 5318TIP3    H237446   4.024   5.488   2.615  0.3732  1.2663 -0.9395
 5319TIP3   OH237447   3.422   4.019  14.690 -0.1045  0.3482 -0.0575
 5319TIP3    H137448   3.363   3.976  14.629  0.6368 -0.6563 -0.0972
 5319TIP3    H237449   3.442   3.952  14.756  1.1509  0.5731 -0.1754
 5320TIP3   OH237450   1.780   5.872   4.892  0.3558 -0.3199 -0.7921
 5320TIP3    H137451   1.831   5.816   4.834  2.2948  0.4770  0.0613
 5320TIP3    H237452   1.736   5.812   4.952 -1.3351 -1.1315 -2.7139
 5321TIP3   OH237453   0.323   0.511  10.434  0.5345 -0.0231  0.1531
 5321TIP3    H137454   0.289   0.422  10.422 -1.7372  0.6151  1.2298
 5321TIP3    H237455   0.354   0.536  10.347 -0.7739 -1.1144 -0.6788
 5322TIP3   OH237456   3.452   2.048   3.690  0.1186 -0.0851 -0.1294
 5322TIP3    H137457   3.460   2.054   3.786  1.8854 -1.6412 -0.1296
 5322TIP3    H237458   3.421   1.959   3.675 -0.8564  0.3885 -1.0058
 5323TIP3   OH237459   5.370   2.055  14.315 -0.4002 -0.4030 -0.2613
 5323TIP3    H137460   5.287   2.071  14.360 -0.0415  0.3050  0.1647
 5323TIP3    H237461   5.345   2.011  14.233 -0.9629 -2.9345  1.1818
 5324TIP3   OH237462   3.527   1.526   0.631  0.1519  0.4152  0.0602
 5324TIP3    H137463   3.606   1.507   0.579 -0.0597  1.7096 -0.7779
 5324TIP3    H237464   3.508   1.443   0.675  1.9797  0.0681  0.2908
 5325TIP3   OH237465   6.425   0.048  11.615  0.1670  0.6118  0.1758
 5325TIP3    H137466   6.453   0.089  11.532  1.5954  0.8169  0.7339
 5325TIP3    H237467   6.419  -0.045  11.595  0.4599  0.6661 -0.1742
 5326TIP3   OH237468   6.267   2.926  15.393  0.4296 -0.5755 -0.0097
 5326TIP3    H137469   6.182   2.957  15.422 -0.5517 -1.4531 -1.7997
 5326TIP3    H237470   6.310   3.004  15.357 -0.4227 -0.4898 -0.8854
 5327TIP3   OH237471   0.693   0.455  11.065  0.5815  0.0520  0.7014
 5327TIP3    H137472   0.776   0.411  11.045  1.1197  0.5181  1.7679
 5327TIP3    H237473   0.675   0.509  10.989  1.0892 -0.3161  0.3134
 5328TIP3   OH237474   5.136   0.890   0.574  0.2598 -0.3003  0.0702
 5328TIP3    H137475   5.185   0.903   0.493 -2.3667 -2.4008 -2.0490
 5328TIP3    H237476   5.065   0.954   0.569  0.8405  0.5057  1.4937
 5329TIP3   OH237477   5.127   2.766   4.515 -0.2264  0.3496  0.6729
 5329TIP3    H137478   5.044   2.805   4.543  0.5578  1.5252  1.4703
 5329TIP3    H237479   5.161   2.827   4.449  0.8087  0.8301  1.6225
 5330TIP3   OH237480   1.434   0.718   5.576 -0.3739  0.3936 -0.9373
 5330TIP3    H137481   1.368   0.670   5.527 -1.8457  1.9207 -0.5088
 5330TIP3    H237482   1.416   0.696   5.668  0.2191  0.2232 -0.8547
 5331TIP3   OH237483   6.577   1.607  16.592 -0.4140  0.6322 -0.9645
 5331TIP3    H137484   6.646   1.541  16.601  0.4811  1.5170 -1.1704
 5331TIP3    H237485   6.624   1.690  16.589 -1.4279  1.1831 -2.2276
 5332TIP3   OH237486   1.080   4.516  12.928  0.5880  0.4167 -0.0828
 5332TIP3    H137487   1.000   4.464  12.921  0.1047  1.2381 -0.8517
 5332TIP3    H237488   1.143   4.457  12.971 -0.3298 -0.3376  0.2720
 5333TIP3   OH237489   3.234   1.449  13.293  0.7065 -0.4310  0.3084
 5333TIP3    H137490   3.230   1.544  13.305 -0.3246 -0.6061  1.5769
 5333TIP3    H237491   3.312   1.421  13.341  2.1930 -0.0442 -1.7432
 5334TIP3   OH237492   3.077   2.217   1.240 -0.2126  0.3473 -0.2059
 5334TIP3    H137493   2.985   2.213   1.216 -0.0797  0.2311 -0.7023
 5334TIP3    H237494   3.104   2.305   1.214  0.0636  0.0402 -0.9677
 5335TIP3   OH237495   4.497   5.062   4.551  0.2865 -0.0845  0.2434
 5335TIP3    H137496   4.484   5.111   4.470  0.2578 -1.5038 -0.6337
 5335TIP3    H237497   4.418   5.080   4.603 -0.7599 -0.9403 -0.9902
 5336TIP3   OH237498   0.223   3.127   1.757 -0.5454  0.1432 -0.3474
 5336TIP3    H137499   0.242   3.169   1.841  0.0291  0.9761 -0.8854
 5336TIP3    H237500   0.184   3.043   1.781 -0.4334  0.3901  0.7524
 5337TIP3   OH237501   5.867   4.973  10.264 -0.2741 -0.1711  0.4823
 5337TIP3    H137502   5.781   4.980  10.224  0.1084 -1.5001 -0.6258
 5337TIP3    H237503   5.878   5.056  10.311 -1.7906  0.3627 -0.0466
 5338TIP3   OH237504   1.334   3.983  11.092 -0.0223  0.4102 -0.1397
 5338TIP3    H137505   1.284   3.927  11.032 -1.0795  1.4432 -0.2485
 5338TIP3    H237506   1.399   3.924  11.130 -1.7521 -1.1794  0.5364
 5339TIP3   OH237507   5.951   2.467   2.216 -0.6046  0.3953 -0.0226
 5339TIP3    H137508   5.952   2.388   2.162  0.1836  0.8821 -0.7428
 5339TIP3    H237509   6.043   2.490   2.227 -0.8415  1.7956 -0.7058
 5340TIP3   OH237510   3.798   4.415   3.566  0.0302 -0.0739  0.5286
 5340TIP3    H137511   3.763   4.389   3.651  0.0692  0.0973  0.5970
 5340TIP3    H237512   3.837   4.501   3.581  0.8582 -0.4485  0.5426
 5341TIP3   OH237513   2.029   2.918  15.166  0.2676  0.0669  0.1938
 5341TIP3    H137514   2.113   2.880  15.142 -0.1726  0.3474 -1.9453
 5341TIP3    H237515   1.965   2.869  15.114 -0.8634  0.1772  1.4285
 5342TIP3   OH237516   4.156   0.993  15.118 -0.2175  0.4029  0.7659
 5342TIP3    H137517   4.068   1.022  15.144 -0.4625  0.7909 -0.4440
 5342TIP3    H237518   4.215   1.041  15.176 -0.7538  1.0249  0.8074
 5343TIP3   OH237519   1.379   6.578  13.302  0.6224 -0.0719 -0.2883
 5343TIP3    H137520   1.313   6.639  13.334  2.1515  0.7917  1.3686
 5343TIP3    H237521   1.367   6.577  13.207 -1.3271  0.5254 -0.0830
 5344TIP3   OH237522   3.368   4.653  15.739  0.2395 -0.2217 -0.1285
 5344TIP3    H137523   3.305   4.707  15.690  0.8588  0.5534 -0.0960
 5344TIP3    H237524   3.366   4.688  15.828  0.0187 -0.8262  0.1101
 5345TIP3   OH237525   1.336   6.604   2.799 -0.1038  1.0344 -0.3336
 5345TIP3    H137526   1.306   6.586   2.710 -0.8432 -1.3379  0.3186
 5345TIP3    H237527   1.334   6.699   2.806  0.5057  1.3290 -3.0090
 5346TIP3   OH237528   6.573   3.587   2.768  0.0076  0.0506 -0.6833
 5346TIP3    H137529   6.570   3.662   2.708 -1.3833 -0.2897 -1.0819
 5346TIP3    H237530   6.487   3.547   2.759  0.5611 -1.3094 -0.1043
 5347TIP3   OH237531   1.282   3.578  14.811  0.1122 -0.2267  0.5306
 5347TIP3    H137532   1.250   3.520  14.880  1.0269 -0.5077  0.7298
 5347TIP3    H237533   1.262   3.666  14.842  0.8341 -0.3281  1.3389
 5348TIP3   OH237534   6.862   4.907   1.615 -0.1816 -0.4494  0.0765
 5348TIP3    H137535   6.870   4.870   1.702 -1.3652 -1.7667 -0.3341
 5348TIP3    H237536   6.815   4.989   1.628 -0.4157 -0.6714  0.6890
 5349TIP3   OH237537   2.452   0.393  16.071 -0.3536 -1.0332 -0.1478
 5349TIP3    H137538   2.405   0.468  16.037  0.9396 -0.3016 -0.3755
 5349TIP3    H237539   2.457   0.332  15.997 -0.5044 -0.9112 -0.2582
 5350TIP3   OH237540   4.940   1.635   6.135  0.9230  0.0983  0.2973
 5350TIP3    H137541   4.891   1.717   6.143 -0.1839 -0.5525  0.3278
 5350TIP3    H237542   5.013   1.646   6.196  1.0799  1.2530 -0.0671
 5351TIP3   OH237543   2.927   0.901  14.023 -0.1763  0.0950 -0.3285
 5351TIP3    H137544   2.886   0.888  13.937  1.1202  1.5957 -1.2055
 5351TIP3    H237545   3.010   0.853  14.018 -0.4378 -0.4740  0.4074
 5352TIP3   OH237546   5.462   0.513  14.515  0.3991 -0.0045  0.4969
 5352TIP3    H137547   5.368   0.532  14.517  0.8158  2.6767 -1.4736
 5352TIP3    H237548   5.487   0.512  14.608 -1.4607 -0.4659  1.0564
 5353TIP3   OH237549   6.092   0.433   5.919 -0.3643  0.0829  0.4447
 5353TIP3    H137550   6.047   0.351   5.899  0.4081 -0.1149 -0.5834
 5353TIP3    H237551   6.127   0.421   6.007  0.7575 -1.1861 -0.1442
 5354TIP3   OH237552   3.029   4.196   0.863  0.2008 -0.0685 -0.4715
 5354TIP3    H137553   3.004   4.169   0.775  1.5271 -2.3782 -0.2279
 5354TIP3    H237554   2.957   4.167   0.919  0.0514  0.0165 -0.6193
 5355TIP3   OH237555   4.891   0.307  15.643 -0.4066  0.4852  0.6331
 5355TIP3    H137556   4.974   0.293  15.689 -0.6931  0.0030  1.0152
 5355TIP3    H237557   4.826   0.259  15.695 -0.9321  0.8785  0.3533
 5356TIP3   OH237558   1.916   0.506  14.021 -0.0342  0.6834 -1.0068
 5356TIP3    H137559   1.981   0.504  13.951  3.0146 -2.7717  1.5193
 5356TIP3    H237560   1.834   0.481  13.978  1.3481  0.1131 -3.5507
 5357TIP3   OH237561   0.801   1.836  13.923  0.2412  0.4278  0.0749
 5357TIP3    H137562   0.860   1.883  13.865  0.0465 -0.3002 -0.7402
 5357TIP3    H237563   0.764   1.904  13.980 -0.8776  1.4782 -1.7771
 5358TIP3   OH237564   6.375   4.640   1.998  0.8609  0.1364 -0.0372
 5358TIP3    H137565   6.362   4.591   1.917 -2.6965 -0.7207  0.8696
 5358TIP3    H237566   6.379   4.573   2.067 -2.4499  0.8375  1.0368
 5359TIP3   OH237567   1.318   3.671   3.427  0.1048  0.5828  0.1058
 5359TIP3    H137568   1.310   3.750   3.374 -3.1777 -0.1943 -0.7452
 5359TIP3    H237569   1.325   3.599   3.364 -0.0889 -0.0650  0.8003
 5360TIP3   OH237570   5.952   5.800  16.218 -0.5983  0.2424 -0.1955
 5360TIP3    H137571   5.965   5.859  16.293 -0.7758  0.7698 -0.5726
 5360TIP3    H237572   5.910   5.855  16.152 -2.9015 -0.8570  0.2424
 5361TIP3   OH237573   4.190   5.867  15.121  0.4517 -0.1082  0.7576
 5361TIP3    H137574   4.094   5.864  15.120  0.4496 -1.1116  1.8244
 5361TIP3    H237575   4.212   5.937  15.060 -0.9408 -0.2208  0.0780
 5362TIP3   OH237576   6.618   5.671  12.443 -0.2370  0.0636 -0.3375
 5362TIP3    H137577   6.613   5.582  12.407  1.0303 -0.3970  0.5541
 5362TIP3    H237578   6.678   5.664  12.518  0.9888  1.9167 -1.0557
 5363TIP3   OH237579   6.565   0.320   0.937  0.0964 -0.1844  1.2486
 5363TIP3    H137580   6.600   0.255   0.876 -1.7328 -0.4968  0.4654
 5363TIP3    H237581   6.503   0.270   0.992 -0.8719  0.7634  1.0448
 5364TIP3   OH237582   2.768   0.516   4.896 -0.2374  0.1645  0.4383
 5364TIP3    H137583   2.858   0.526   4.926  0.6367 -0.8737 -1.5825
 5364TIP3    H237584   2.769   0.548   4.805 -1.6186 -0.8879  0.0105
 5365TIP3   OH237585   3.911   6.611   0.791 -0.3970 -0.5279 -0.4853
 5365TIP3    H137586   3.978   6.621   0.859  0.6770 -0.9711 -1.4563
 5365TIP3    H237587   3.841   6.562   0.834 -0.7131  1.0347  0.9354
 5366TIP3   OH237588   1.022   2.539  12.801  0.1761 -0.3621  0.5842
 5366TIP3    H137589   1.015   2.454  12.844 -1.3452  0.2521  1.6421
 5366TIP3    H237590   1.053   2.598  12.870 -2.2055  0.6238  0.8967
 5367TIP3   OH237591   4.908   6.757   1.636 -0.3960  0.1748 -0.5596
 5367TIP3    H137592   4.956   6.709   1.703 -0.4144 -0.3896 -0.9421
 5367TIP3    H237593   4.975   6.809   1.591 -0.5644  1.5013  0.6768
 5368TIP3   OH237594   4.361   0.427   0.215  0.0189 -0.2273  0.3659
 5368TIP3    H137595   4.336   0.509   0.173 -0.4442  0.3133  1.6316
 5368TIP3    H237596   4.278   0.383   0.235  0.2446 -0.7115  0.2614
 5369TIP3   OH237597   5.807   6.367  11.623 -0.8798  0.2011  0.3020
 5369TIP3    H137598   5.821   6.288  11.675  0.4222 -0.4655 -0.9924
 5369TIP3    H237599   5.883   6.423  11.642  0.0607 -0.4002 -1.4254
 5370TIP3   OH237600   1.114   2.045  12.632 -0.7527 -0.2844 -0.7457
 5370TIP3    H137601   1.183   2.069  12.695 -0.6325 -0.0904 -0.9510
 5370TIP3    H237602   1.037   2.031  12.687 -1.0617  1.4381 -0.6726
 5371TIP3   OH237603   4.213   1.537   1.378 -0.0313  0.0631 -0.0561
 5371TIP3    H137604   4.187   1.468   1.316  1.1609 -0.7705  0.3369
 5371TIP3    H237605   4.184   1.504   1.463  0.7479 -0.0693  0.1629
 5372TIP3   OH237606   4.678   3.495   1.813  0.7733 -0.1251  0.0559
 5372TIP3    H137607   4.751   3.513   1.873  1.7540  0.4818 -1.2551
 5372TIP3    H237608   4.648   3.582   1.786  0.5872 -0.3872 -0.5881
 5373TIP3   OH237609   2.972   2.648  16.791 -0.0656  0.2241  0.5354
 5373TIP3    H137610   2.938   2.606  16.870 -3.1677  0.0599 -0.7081
 5373TIP3    H237611   2.984   2.740  16.815  0.3969 -0.0879  1.5384
 5374TIP3   OH237612   4.099   0.607  13.158 -0.1761  0.2706  0.5761
 5374TIP3    H137613   4.050   0.532  13.192  0.8536 -0.0245  1.4564
 5374TIP3    H237614   4.031   0.668  13.129 -1.0603 -0.2007  1.5869
 5375TIP3   OH237615   4.846   1.746  16.297  0.5089  0.0178  0.1515
 5375TIP3    H137616   4.781   1.678  16.315  0.3331  0.0332 -0.4290
 5375TIP3    H237617   4.806   1.803  16.232  0.7311  0.5787  0.4938
 5376TIP3   OH237618   3.734   2.167  15.990  0.3165  0.1135  0.6030
 5376TIP3    H137619   3.720   2.245  15.936  1.1232  1.8618  2.7393
 5376TIP3    H237620   3.821   2.136  15.965  0.3860  0.4766  0.3813
 5377TIP3   OH237621   2.209   0.150   1.471 -0.0501 -0.1417  0.2671
 5377TIP3    H137622   2.210   0.242   1.446  0.6475 -0.1606  0.2215
 5377TIP3    H237623   2.124   0.138   1.514 -0.9107  0.1020 -1.2827
 5378TIP3   OH237624   2.380   1.642   0.847  0.1314  0.0701 -0.1704
 5378TIP3    H137625   2.369   1.726   0.803  0.1055  0.6567  0.9018
 5378TIP3    H237626   2.465   1.650   0.892 -0.1194 -0.2630  0.3752
 5379TIP3   OH237627   5.492   1.063   1.405  0.2406  0.4019  0.3403
 5379TIP3    H137628   5.412   1.053   1.456  0.7326  0.3299  1.1229
 5379TIP3    H237629   5.563   1.050   1.469  0.8764 -0.2769 -0.4765
 5380TIP3   OH237630   4.675   6.635  11.202 -0.3589 -0.0013  0.3341
 5380TIP3    H137631   4.666   6.670  11.113  1.3477  0.5284  0.3466
 5380TIP3    H237632   4.662   6.710  11.259  0.6354  0.0864  0.4535
 5381TIP3   OH237633   3.828   3.008   4.780 -0.4503  0.3422 -0.1274
 5381TIP3    H137634   3.823   2.935   4.842  0.8315  0.3006 -0.0430
 5381TIP3    H237635   3.796   2.971   4.698 -1.1988  0.1094  0.2655
 5382TIP3   OH237636   0.896   1.089   3.770 -0.3821  0.2383  0.5430
 5382TIP3    H137637   0.837   1.164   3.764 -1.2628 -0.5051 -0.7113
 5382TIP3    H237638   0.896   1.066   3.863 -0.6249  1.3748  0.8369
 5383TIP3   OH237639   0.971   0.466  13.153 -0.2654 -0.1639 -0.2598
 5383TIP3    H137640   1.022   0.387  13.172  0.0437  0.2513  0.7278
 5383TIP3    H237641   1.035   0.537  13.159 -0.5821  0.1808 -0.9389
 5384TIP3   OH237642   3.677   1.737   0.867 -0.5146  0.0105  0.4564
 5384TIP3    H137643   3.705   1.823   0.898  0.1473  0.5234 -1.4373
 5384TIP3    H237644   3.703   1.735   0.775 -1.7454 -1.6893  0.0958
 5385TIP3   OH237645   3.870   3.834  15.130  0.4939  0.1942 -0.4827
 5385TIP3    H137646   3.802   3.872  15.074 -0.0004  0.9163  0.5741
 5385TIP3    H237647   3.951   3.850  15.082  0.0139  0.1441 -1.3359
 5386TIP3   OH237648   0.910   0.261   3.211  0.5820  0.4421  0.2370
 5386TIP3    H137649   0.901   0.249   3.305  1.3266 -2.3579  0.0343
 5386TIP3    H237650   1.004   0.266   3.195  0.5123 -0.1739 -0.4377
 5387TIP3   OH237651   0.213   4.269  14.525 -0.1870  0.6526  0.2147
 5387TIP3    H137652   0.166   4.343  14.564 -1.0350  0.8371 -1.1048
 5387TIP3    H237653   0.176   4.260  14.437 -0.2396 -1.4967  0.4122
 5388TIP3   OH237654   4.826   1.274   6.334 -0.0696  0.2268 -0.2868
 5388TIP3    H137655   4.895   1.331   6.369 -1.2049  0.5596  1.5336
 5388TIP3    H237656   4.745   1.310   6.369 -0.9274 -1.8071 -0.0319
 5389TIP3   OH237657   4.190   4.433  14.918 -0.1129  0.7362 -0.0702
 5389TIP3    H137658   4.128   4.362  14.899  0.9693  0.1245 -1.5260
 5389TIP3    H237659   4.262   4.390  14.964  0.4815  0.9076 -0.8254
 5390TIP3   OH237660   6.078   4.931   6.049 -0.0090 -0.0310 -0.5288
 5390TIP3    H137661   6.007   4.868   6.054 -0.1984  0.1507 -0.8819
 5390TIP3    H237662   6.156   4.878   6.032  0.2337 -0.4059  1.5131
 5391TIP3   OH237663   0.960   5.247  13.464  0.6617 -0.1007  0.6044
 5391TIP3    H137664   1.028   5.225  13.401 -1.5658  0.1231 -2.0683
 5391TIP3    H237665   0.908   5.167  13.473 -1.8627  1.1091 -1.7668
 5392TIP3   OH237666   1.361   1.567   5.945  0.4004  1.0634 -0.2499
 5392TIP3    H137667   1.404   1.628   5.885 -0.7609 -0.7227 -3.0489
 5392TIP3    H237668   1.431   1.508   5.974  1.2515  2.7640  1.4280
 5393TIP3   OH237669   1.575   0.127  15.392  0.0285 -0.2261  0.3996
 5393TIP3    H137670   1.581   0.102  15.484  0.0611 -2.7292 -0.2144
 5393TIP3    H237671   1.527   0.055  15.351  1.0974  0.2191 -1.7548
 5394TIP3   OH237672   3.444   6.233  13.786 -0.5339  0.0462 -0.3675
 5394TIP3    H137673   3.372   6.296  13.779 -0.6842 -0.1482 -0.5960
 5394TIP3    H237674   3.416   6.159  13.733 -0.3281 -0.1875 -0.1515
 5395TIP3   OH237675   2.950   6.827  11.263 -0.3469  0.3091  0.3875
 5395TIP3    H137676   2.938   6.767  11.336 -0.1502 -0.4253 -0.1714
 5395TIP3    H237677   2.931   6.913  11.299  1.0938  0.1402  1.6686
 5396TIP3   OH237678   2.280   0.926   4.261 -0.0146 -0.4003  0.0120
 5396TIP3    H137679   2.327   1.005   4.234  1.2061 -1.6496 -1.6839
 5396TIP3    H237680   2.207   0.959   4.314 -0.7766  2.0593 -2.3098
 5397TIP3   OH237681   2.044   3.267   0.145  0.1926 -0.2940 -0.1803
 5397TIP3    H137682   1.980   3.337   0.131 -3.2974 -3.6806 -3.1225
 5397TIP3    H237683   2.107   3.278   0.074 -0.5422 -0.3186 -0.8457
 5398TIP3   OH237684   1.684   2.616   4.222  0.5821 -0.1274 -0.1988
 5398TIP3    H137685   1.747   2.570   4.276 -0.0751 -1.7345 -0.7418
 5398TIP3    H237686   1.599   2.578   4.245 -0.3367  2.2974  0.8616
 5399TIP3   OH237687   3.439   1.709  13.942 -0.2233 -0.2774 -0.0048
 5399TIP3    H137688   3.362   1.654  13.953 -0.8843  0.3686 -1.1438
 5399TIP3    H237689   3.411   1.796  13.972  0.1083 -0.0854 -0.2378
 5400TIP3   OH237690   2.600   0.005  10.377  0.6643  0.3525  0.0377
 5400TIP3    H137691   2.558   0.085  10.407 -1.7623 -0.2073 -1.5817
 5400TIP3    H237692   2.617   0.020  10.284 -0.6523 -1.2335 -0.5240
 5401TIP3   OH237693   5.498   0.557  15.108  1.2561 -0.5528  0.5443
 5401TIP3    H137694   5.439   0.482  15.116 -0.3755  0.6323  0.3046
 5401TIP3    H237695   5.494   0.600  15.193  0.5148  0.3906  0.0565
 5402TIP3   OH237696   3.861   3.295  12.199  0.6572 -0.3141  0.2134
 5402TIP3    H137697   3.945   3.251  12.209 -0.0216 -1.6183  0.3563
 5402TIP3    H237698   3.810   3.237  12.143 -0.9862 -0.7846  2.1026
 5403TIP3   OH237699   2.079   2.434  12.355  0.1421  0.3289 -0.3403
 5403TIP3    H137700   1.996   2.476  12.333 -0.5924 -0.8463  0.1074
 5403TIP3    H237701   2.145   2.484  12.307 -0.5404  2.7281  1.0351
 5404TIP3   OH237702   1.209   3.355   2.044  0.1378  0.3895  0.2851
 5404TIP3    H137703   1.246   3.404   1.971  1.0700 -0.4314  0.1839
 5404TIP3    H237704   1.150   3.291   2.003  0.6739 -0.0827  0.2349
 5405TIP3   OH237705   3.094   2.656  14.409 -0.2079 -0.3244 -0.0711
 5405TIP3    H137706   3.137   2.574  14.433 -0.3115 -0.2180  0.4888
 5405TIP3    H237707   3.091   2.707  14.490  1.2693  0.8944 -0.7261
 5406TIP3   OH237708   3.849   2.225   3.141  0.2872  0.4825 -0.2846
 5406TIP3    H137709   3.898   2.210   3.060  1.4322  0.1062  0.4494
 5406TIP3    H237710   3.855   2.319   3.155 -0.4291  0.6362 -0.9374
 5407TIP3   OH237711   5.123   3.740   3.185  0.1780  0.0253  0.2113
 5407TIP3    H137712   5.171   3.811   3.144  0.2837 -0.1369  0.0573
 5407TIP3    H237713   5.039   3.739   3.140  0.7196 -0.9080 -0.8018
 5408TIP3   OH237714   2.314   6.038   3.078 -0.4819 -0.7787  0.6763
 5408TIP3    H137715   2.362   5.967   3.035  0.1470  0.9694 -1.7499
 5408TIP3    H237716   2.381   6.104   3.098 -1.5811  1.3930 -2.0940
 5409TIP3   OH237717   4.373   4.598  16.471  0.6574  0.3678 -0.1058
 5409TIP3    H137718   4.283   4.565  16.464  0.5022  0.4602  1.3144
 5409TIP3    H237719   4.406   4.563  16.554  1.4513  1.4994  0.0821
 5410TIP3   OH237720   0.211   5.459  16.232  0.7369  0.3293 -0.8094
 5410TIP3    H137721   0.255   5.508  16.302 -1.9141  0.0465  1.2091
 5410TIP3    H237722   0.200   5.522  16.161 -1.4307  2.4046  1.2098
 5411TIP3   OH237723   3.149   6.696   4.922  0.2552 -0.2525  0.0130
 5411TIP3    H137724   3.082   6.654   4.869 -0.0156 -0.9348  0.8781
 5411TIP3    H237725   3.202   6.624   4.955  0.3195  0.1462  0.8037
 5412TIP3   OH237726   1.214   0.428  16.661 -0.0369 -0.3983 -0.2645
 5412TIP3    H137727   1.305   0.443  16.636 -1.1650  0.8942 -4.5085
 5412TIP3    H237728   1.185   0.511  16.698  0.7969 -1.3588  2.8981
 5413TIP3   OH237729   5.980   3.162  14.245 -0.2994  0.5288 -0.2645
 5413TIP3    H137730   5.926   3.084  14.252  0.3164  0.0326 -0.8975
 5413TIP3    H237731   5.941   3.224  14.306 -1.1717 -0.0538 -0.2142
 5414TIP3   OH237732   6.700   3.171  16.629  0.1093  0.4728 -0.1103
 5414TIP3    H137733   6.687   3.261  16.599 -1.1434  0.1587 -0.5428
 5414TIP3    H237734   6.613   3.132  16.627  0.6711 -0.8114 -0.1111
 5415TIP3   OH237735   5.976   1.338   0.833  0.1630 -0.0931 -0.4218
 5415TIP3    H137736   5.989   1.412   0.774  0.6042  0.8994  0.8704
 5415TIP3    H237737   5.882   1.337   0.850 -0.3587 -1.8726 -2.9527
 5416TIP3   OH237738   0.050   3.475  16.688  0.3507  0.4370  0.7298
 5416TIP3    H137739   0.047   3.421  16.767 -0.5826 -0.5430  0.0409
 5416TIP3    H237740   0.102   3.552  16.714  1.7722 -0.7882  1.7176
 5417TIP3   OH237741   2.521   5.500  14.413 -0.5748  0.5275  0.0330
 5417TIP3    H137742   2.528   5.550  14.494 -0.4188  1.0759 -0.3141
 5417TIP3    H237743   2.533   5.565  14.343 -1.9471  0.2915 -0.4651
 5418TIP3   OH237744   2.806   5.327  15.494 -0.0173 -0.0286  0.0322
 5418TIP3    H137745   2.868   5.382  15.542  0.9002 -1.2359  0.2700
 5418TIP3    H237746   2.767   5.271  15.561 -2.7359  1.8655  0.2029
 5419TIP3   OH237747   3.849   3.588   5.860 -0.1490  0.0149  0.2243
 5419TIP3    H137748   3.839   3.683   5.860 -0.5384 -0.0247 -0.0053
 5419TIP3    H237749   3.769   3.555   5.819 -0.2559 -0.4367  0.7803
 5420TIP3   OH237750   6.703   3.677  15.341 -0.0799 -0.0737 -0.4345
 5420TIP3    H137751   6.774   3.689  15.277  1.0700 -1.0460  0.5993
 5420TIP3    H237752   6.740   3.708  15.424 -1.4025  0.7792 -0.1456
 5421TIP3   OH237753   2.946   4.461   2.009 -0.3150 -0.3760  0.0514
 5421TIP3    H137754   2.959   4.550   1.975 -0.5065 -0.5904 -0.6114
 5421TIP3    H237755   3.007   4.453   2.082  0.3841 -0.0128 -0.4837
 5422TIP3   OH237756   5.536   5.413   5.392  0.5467 -0.4472  0.5701
 5422TIP3    H137757   5.537   5.425   5.297  0.9324  0.4558  0.6736
 5422TIP3    H237758   5.592   5.337   5.408  2.1615  0.5994  0.1958
 5423TIP3   OH237759   0.765   4.265  16.122 -0.5349  0.0859  0.2626
 5423TIP3    H137760   0.854   4.262  16.156 -1.1203  0.5417  1.9006
 5423TIP3    H237761   0.772   4.229  16.033  0.8639 -2.2878  1.2473
 5424TIP3   OH237762   0.045   3.667  14.542 -0.4516  0.1055 -0.3535
 5424TIP3    H137763   0.137   3.668  14.565 -0.3217 -0.2748 -0.8323
 5424TIP3    H237764  -0.001   3.683  14.624  0.0441  0.6116 -0.1657
 5425TIP3   OH237765   3.274   2.150   2.195 -0.2494  0.3981  0.3858
 5425TIP3    H137766   3.352   2.204   2.184  0.1936 -0.4859 -1.1682
 5425TIP3    H237767   3.308   2.062   2.215 -0.8595  0.1368  0.3169
 5426TIP3   OH237768   1.899   6.006   0.340 -0.0600  0.1352 -0.4893
 5426TIP3    H137769   1.837   5.937   0.314  1.2869 -1.4322  0.2944
 5426TIP3    H237770   1.944   6.030   0.259 -0.5298  0.1034 -0.7646
 5427TIP3   OH237771   3.396   0.085   4.197 -0.1756 -0.0976 -0.3572
 5427TIP3    H137772   3.442   0.013   4.155  0.1076 -0.1251 -0.0050
 5427TIP3    H237773   3.443   0.164   4.168 -1.1662  0.0471 -1.6378
 5428TIP3   OH237774   2.266   2.568   1.638  0.3431 -0.2646 -0.4692
 5428TIP3    H137775   2.256   2.652   1.594 -0.5061 -0.5450 -0.8233
 5428TIP3    H237776   2.311   2.513   1.574 -1.0368 -0.7219 -1.0808
 5429TIP3   OH237777   4.112   2.164   3.321  0.3567  0.1499  0.3047
 5429TIP3    H137778   4.181   2.170   3.255  0.0169 -0.2090 -0.0940
 5429TIP3    H237779   4.064   2.084   3.297 -0.4844  0.6533  0.2934
 5430TIP3   OH237780   2.875   3.846  14.301 -0.1610 -0.1345  0.0151
 5430TIP3    H137781   2.814   3.776  14.278 -1.2773 -0.0739  2.4310
 5430TIP3    H237782   2.945   3.801  14.348 -0.8765  0.3110  1.5616
 5431TIP3   OH237783   5.574   0.052  13.705  0.5838 -0.0468 -0.5135
 5431TIP3    H137784   5.669   0.047  13.687  0.3007 -2.1378 -1.8622
 5431TIP3    H237785   5.568   0.055  13.800  2.0135 -0.3059 -0.3810
 5432TIP3   OH237786   1.679   1.589  12.686 -0.1113  0.5710  0.0826
 5432TIP3    H137787   1.625   1.650  12.637  0.0706 -0.0895 -0.9623
 5432TIP3    H237788   1.695   1.516  12.626  2.5473  1.0517  0.0739
 5433TIP3   OH237789   2.339   6.078  16.642  0.1802 -0.4685  0.1734
 5433TIP3    H137790   2.313   6.136  16.713 -0.2715 -1.5539  0.9121
 5433TIP3    H237791   2.430   6.054  16.663  0.6812  0.6485 -0.6096
 5434TIP3   OH237792   4.771   2.369   4.087 -0.1973 -0.0887 -0.0359
 5434TIP3    H137793   4.842   2.410   4.137  0.2926 -1.1057  0.1372
 5434TIP3    H237794   4.729   2.310   4.149 -1.8013  1.1476  0.1171
 5435TIP3   OH237795   3.099   4.628  16.627 -0.8887 -0.1100 -0.0824
 5435TIP3    H137796   3.178   4.616  16.680 -0.4925 -1.5080 -0.9415
 5435TIP3    H237797   3.028   4.593  16.680 -0.4614 -1.7132 -0.5273
 5436TIP3   OH237798   4.340   0.834  16.171  0.2191  0.4636 -0.3151
 5436TIP3    H137799   4.401   0.775  16.216 -1.1306 -0.7069  0.0627
 5436TIP3    H237800   4.395   0.886  16.113  1.8983  1.2000  1.7977
 5437TIP3   OH237801   6.807   4.304   4.945  0.1892 -0.3040  0.3234
 5437TIP3    H137802   6.755   4.384   4.933 -0.4721 -0.4464  1.9980
 5437TIP3    H237803   6.893   4.326   4.910 -0.8029  0.1072 -2.0621
 5438TIP3   OH237804   4.216   3.766   1.532 -0.2472  0.8880  0.5188
 5438TIP3    H137805   4.276   3.814   1.590  2.1532 -2.5388  1.2044
 5438TIP3    H237806   4.248   3.783   1.444  1.8558 -0.7710  0.8671
 5439TIP3   OH237807   0.047   3.344   2.781  0.2053 -0.7466 -0.2195
 5439TIP3    H137808  -0.015   3.284   2.740 -0.4842  0.3944 -0.9115
 5439TIP3    H237809   0.128   3.332   2.733  0.2059 -1.4290 -0.0595
 5440TIP3   OH237810   4.067   0.176  10.578 -0.0239 -0.3069 -0.6325
 5440TIP3    H137811   4.102   0.265  10.578  1.5530 -0.8956 -1.4694
 5440TIP3    H237812   4.009   0.173  10.502 -0.0425 -0.0059 -0.6314
 5441TIP3   OH237813   1.872   5.785   5.355  0.7293  0.0926  0.4354
 5441TIP3    H137814   1.886   5.731   5.277 -1.5223 -1.6720  1.1642
 5441TIP3    H237815   1.907   5.732   5.426  1.8569  1.2615  0.7825
 5442TIP3   OH237816   6.383   4.250   1.576  0.7364 -0.7806 -0.2859
 5442TIP3    H137817   6.332   4.314   1.625 -0.7251 -0.9086 -1.5685
 5442TIP3    H237818   6.473   4.278   1.586  0.2058  0.9352 -0.0322
 5443TIP3   OH237819   6.396   2.106  15.103  0.0756  0.0585  0.0801
 5443TIP3    H137820   6.390   2.181  15.043 -0.3533  1.7841  2.1896
 5443TIP3    H237821   6.490   2.094  15.116  0.4191 -2.2836 -3.0907
 5444TIP3   OH237822   5.746   3.772  14.321  0.1070 -0.1139 -0.3855
 5444TIP3    H137823   5.776   3.748  14.409 -0.9671  0.5996  0.1955
 5444TIP3    H237824   5.821   3.817  14.282  0.9594 -1.3608 -0.2531
 5445TIP3   OH237825   0.576   3.162  14.867 -0.2369 -0.3338 -0.4443
 5445TIP3    H137826   0.630   3.117  14.803 -1.4383  0.0595 -1.7904
 5445TIP3    H237827   0.507   3.099  14.889  0.8578 -0.9376  1.4685
 5446TIP3   OH237828   4.753   5.858   0.213  0.1050 -1.1070  0.3885
 5446TIP3    H137829   4.817   5.788   0.229  1.1811 -0.3206 -0.3355
 5446TIP3    H237830   4.676   5.813   0.177  1.1599 -1.8396 -1.0554
 5447TIP3   OH237831   5.771   4.863  15.531  0.1794  0.0600  0.2471
 5447TIP3    H137832   5.831   4.936  15.548 -0.4690 -0.0292  3.7955
 5447TIP3    H237833   5.824   4.785  15.545 -0.1002 -0.0478  0.7495
 5448TIP3   OH237834   0.226   6.191  10.591 -0.0189 -0.1415 -0.0404
 5448TIP3    H137835   0.202   6.269  10.540  0.2331  0.1048  0.2141
 5448TIP3    H237836   0.142   6.158  10.625 -0.3353 -0.9869 -1.5614
 5449TIP3   OH237837   4.924   5.873  10.709  0.6956  0.4242  0.4633
 5449TIP3    H137838   4.978   5.826  10.646  2.1364 -1.3436  2.8335
 5449TIP3    H237839   4.879   5.804  10.758 -0.2123  1.7123  1.4990
 5450TIP3   OH237840   1.771   0.764   2.548 -0.3453  0.3231  1.4079
 5450TIP3    H137841   1.759   0.738   2.640 -0.5151  0.4328  1.4179
 5450TIP3    H237842   1.840   0.706   2.516 -0.0628  0.5000  1.6940
 5451TIP3   OH237843   5.048   6.379   0.432 -0.1461  0.1624 -0.0244
 5451TIP3    H137844   5.029   6.465   0.469 -1.1893  0.6935 -1.7122
 5451TIP3    H237845   4.969   6.356   0.383  0.7346 -1.0176 -0.9480
 5452TIP3   OH237846   2.837   0.200   5.085 -0.0441 -0.5254 -0.5048
 5452TIP3    H137847   2.851   0.133   5.018  0.1495  0.2162 -1.2209
 5452TIP3    H237848   2.886   0.169   5.160 -2.0419 -2.5086  0.1106
 5453TIP3   OH237849   3.800   0.927  10.282 -0.2288 -0.2330  0.1815
 5453TIP3    H137850   3.821   0.960  10.369 -1.6122 -1.7898  1.1629
 5453TIP3    H237851   3.711   0.892  10.290  0.4329 -2.4516 -1.2548
 5454TIP3   OH237852   6.453   0.611  15.013 -0.2474 -0.1267  0.3204
 5454TIP3    H137853   6.528   0.644  15.062 -0.3130 -1.1778  1.1798
 5454TIP3    H237854   6.376   0.649  15.056 -0.2298  1.0169 -0.6125
 5455TIP3   OH237855   0.456   2.287  14.966 -0.0168 -0.0203  0.2745
 5455TIP3    H137856   0.483   2.226  15.034  1.9001  1.0445  0.5377
 5455TIP3    H237857   0.528   2.288  14.903 -0.0787  1.7683  0.1726
 5456TIP3   OH237858   4.913   6.055  13.805  0.1590 -0.0603 -0.1312
 5456TIP3    H137859   4.866   5.973  13.787 -1.8365  0.7996  0.7754
 5456TIP3    H237860   4.966   6.036  13.882  1.5194 -1.1098 -1.2737
 5457TIP3   OH237861   1.611   5.819  15.405 -0.0118 -0.4098  0.0332
 5457TIP3    H137862   1.612   5.749  15.470  2.0569 -0.5311 -0.0772
 5457TIP3    H237863   1.525   5.860  15.417 -1.6169 -3.3626 -0.4176
 5458TIP3   OH237864   4.543   6.218   1.551  0.2743 -0.0343  0.1254
 5458TIP3    H137865   4.531   6.260   1.466 -1.3261  0.1550  0.4217
 5458TIP3    H237866   4.465   6.241   1.601  0.9948 -0.4847  1.5149
 5459TIP3   OH237867   3.982   4.432   4.237 -0.0001 -0.4379  0.1077
 5459TIP3    H137868   3.988   4.337   4.234  0.1934 -0.5523  2.3948
 5459TIP3    H237869   3.892   4.451   4.212  0.3936 -1.0711 -1.9323
 5460TIP3   OH237870   2.762   1.042   5.287  0.1094  0.1398 -0.1699
 5460TIP3    H137871   2.732   0.952   5.277  0.8827 -0.1858  0.3524
 5460TIP3    H237872   2.684   1.090   5.317  0.0529 -0.6597  1.0344
 5461TIP3   OH237873   4.409   0.580  11.758  0.2340  0.2587  0.4461
 5461TIP3    H137874   4.480   0.573  11.822 -0.2873 -0.5149  0.9554
 5461TIP3    H237875   4.433   0.519  11.688  1.2859  1.8054 -0.6011
 5462TIP3   OH237876   4.358   0.308  15.207 -0.0480 -0.4026 -0.3053
 5462TIP3    H137877   4.440   0.277  15.245  0.8340  0.2206 -1.6113
 5462TIP3    H237878   4.340   0.247  15.136 -2.1560 -2.0960  1.5595
 5463TIP3   OH237879   1.883   4.850   1.636 -0.0929  0.5148  0.2379
 5463TIP3    H137880   1.970   4.863   1.599  0.4020 -0.1657  1.1444
 5463TIP3    H237881   1.887   4.887   1.724 -0.3462 -0.6024  0.7350
 5464TIP3   OH237882   3.892   3.896   4.330  0.2277  0.6720  0.5123
 5464TIP3    H137883   3.915   3.888   4.423  0.4771  1.3103  0.5101
 5464TIP3    H237884   3.797   3.891   4.328  0.2687 -3.4351  0.3975
 5465TIP3   OH237885   6.145   5.865  10.217 -0.3634  0.1252 -0.0162
 5465TIP3    H137886   6.062   5.882  10.173 -1.0528 -1.5064  0.6017
 5465TIP3    H237887   6.201   5.938  10.190 -1.3519  0.2179 -2.0346
 5466TIP3   OH237888   6.681   3.995  12.293  0.6813 -0.2986  0.4159
 5466TIP3    H137889   6.586   3.993  12.301  0.5623 -0.6381 -0.7960
 5466TIP3    H237890   6.712   4.021  12.379 -0.5092 -0.1758  0.8285
 5467TIP3   OH237891   4.984   4.520   5.451  0.4655 -0.5240 -0.2297
 5467TIP3    H137892   5.066   4.521   5.500  0.4857  0.9599 -0.2356
 5467TIP3    H237893   4.959   4.428   5.448  1.9628 -0.9724  0.0411
 5468TIP3   OH237894   2.791   0.823  11.706  0.0092  0.1826 -0.5447
 5468TIP3    H137895   2.852   0.773  11.761  1.4769  2.4667  0.0197
 5468TIP3    H237896   2.705   0.789  11.729  0.9308 -2.3484 -0.5121
 5469TIP3   OH237897   2.870   2.592  15.993 -0.1921  0.4752  0.0597
 5469TIP3    H137898   2.867   2.566  15.901  2.0566 -0.1175  0.0939
 5469TIP3    H237899   2.905   2.681  15.992  2.9297 -0.6258  0.3855
 5470TIP3   OH237900   4.384   6.891   4.114  0.2050  0.5882  0.5580
 5470TIP3    H137901   4.430   6.808   4.109 -0.9405 -0.3996  3.7221
 5470TIP3    H237902   4.385   6.913   4.207 -3.1764  1.9581  0.4067
 5471TIP3   OH237903   1.142   4.045  13.029  0.4847 -0.7101  0.3294
 5471TIP3    H137904   1.053   4.074  13.006  0.3861  0.3071  1.8314
 5471TIP3    H237905   1.192   4.126  13.036  0.7899 -1.0323  2.3577
 5472TIP3   OH237906   2.203   0.169  15.011 -0.1386 -0.2264 -0.7977
 5472TIP3    H137907   2.292   0.176  14.976  0.4270 -0.4131  0.5362
 5472TIP3    H237908   2.158   0.247  14.980  0.5111 -0.1036 -1.4381
 5473TIP3   OH237909   3.669   3.290  14.334 -0.3545  0.1025 -0.6373
 5473TIP3    H137910   3.613   3.364  14.310 -2.1225 -0.8305  0.4453
 5473TIP3    H237911   3.628   3.252  14.411  0.6254 -1.8878 -1.0292
 5474TIP3   OH237912   6.623   1.642   5.601  0.1387 -0.5611 -0.2319
 5474TIP3    H137913   6.572   1.636   5.520 -0.1373 -0.4067 -0.0713
 5474TIP3    H237914   6.714   1.647   5.571  0.0155 -0.1085 -0.5486
 5475TIP3   OH237915   4.036   2.968  15.499 -0.6248  0.7644 -0.4083
 5475TIP3    H137916   4.115   2.969  15.552  0.7418 -1.7067 -2.1427
 5475TIP3    H237917   4.057   3.023  15.423 -1.8516  2.7337  0.6109
 5476TIP3   OH237918   1.297   0.044  16.066  0.3332  0.7740 -0.2412
 5476TIP3    H137919   1.388   0.038  16.037  0.1165  3.6358 -1.9050
 5476TIP3    H237920   1.302   0.069  16.158  1.2750  1.1703 -0.3866
 5477TIP3   OH237921   2.774   0.887   0.786  0.2702 -0.3984  0.0355
 5477TIP3    H137922   2.857   0.880   0.834  0.8195 -1.3307 -1.0018
 5477TIP3    H237923   2.716   0.824   0.828 -0.1149  0.6348  1.1086
 5478TIP3   OH237924   5.172   0.463  11.331  0.0039 -0.5790  0.2007
 5478TIP3    H137925   5.098   0.464  11.270  0.8801 -1.1078 -0.9110
 5478TIP3    H237926   5.244   0.503  11.282  0.9910 -1.8931  0.5319
 5479TIP3   OH237927   6.406   1.726  11.564  0.4040  0.2298  0.9719
 5479TIP3    H137928   6.319   1.685  11.566  0.5356 -0.0676  0.6930
 5479TIP3    H237929   6.451   1.689  11.640  1.3882 -2.0980 -0.6494
 5480TIP3   OH237930   1.583   1.631  15.784  0.2471 -0.7528 -0.6245
 5480TIP3    H137931   1.648   1.569  15.751  1.2879  0.1223 -0.2913
 5480TIP3    H237932   1.602   1.637  15.878 -0.6246 -0.8417 -0.4396
 5481TIP3   OH237933   3.040   5.217   2.203 -0.1328 -0.1867  0.0783
 5481TIP3    H137934   3.035   5.191   2.111 -0.6927 -4.0575  1.0072
 5481TIP3    H237935   2.981   5.292   2.210 -0.9841 -0.5141 -2.4924
 5482TIP3   OH237936   2.923   5.362  14.853 -0.1667 -0.0558 -0.0982
 5482TIP3    H137937   2.902   5.351  14.946 -2.4795  0.2576 -0.5109
 5482TIP3    H237938   3.018   5.349  14.847 -0.2524 -2.3121  1.9705
 5483TIP3   OH237939   3.811   0.627  13.054  0.2842  0.2361  0.0704
 5483TIP3    H137940   3.733   0.657  13.100  0.9133  0.1490  1.2396
 5483TIP3    H237941   3.790   0.537  13.028 -0.6661  0.8007 -1.2526
 5484TIP3   OH237942   5.715   6.022  14.329 -0.1950  0.7213  0.2970
 5484TIP3    H137943   5.678   5.997  14.413  1.5111 -2.1896  0.3005
 5484TIP3    H237944   5.808   6.036  14.346  0.3940 -0.9354 -1.2059
 5485TIP3   OH237945   1.797   3.825  12.120  0.0889  0.1094  0.2278
 5485TIP3    H137946   1.841   3.837  12.036  0.0262  0.3095  0.2250
 5485TIP3    H237947   1.863   3.851  12.185 -0.2827  1.1699  0.1984
 5486TIP3   OH237948   1.753   6.526  14.886 -0.0151 -0.4353  0.2335
 5486TIP3    H137949   1.760   6.618  14.858 -1.0891 -0.1852  0.7251
 5486TIP3    H237950   1.789   6.476  14.813 -1.6098  0.2595 -1.1054
 5487TIP3   OH237951   5.126   5.343   1.754 -0.9006  0.3069 -0.4109
 5487TIP3    H137952   5.068   5.420   1.749 -1.9463 -0.4693 -0.5935
 5487TIP3    H237953   5.189   5.365   1.822 -1.4145  1.1782 -0.2011
 5488TIP3   OH237954   6.456   5.234   2.552  0.1438  0.0912 -0.4466
 5488TIP3    H137955   6.402   5.155   2.564  1.2250 -0.6831 -0.5878
 5488TIP3    H237956   6.447   5.281   2.635 -1.7788  0.6573 -0.9132
 5489TIP3   OH237957   6.243   5.263  14.175  0.1845  0.2419 -0.5602
 5489TIP3    H137958   6.315   5.323  14.156 -1.0798  1.1670 -2.8604
 5489TIP3    H237959   6.190   5.309  14.240  0.7085  0.3826 -0.2324
 5490TIP3   OH237960   3.189   2.674   0.204  0.5100  0.2577  0.4415
 5490TIP3    H137961   3.283   2.691   0.199  0.3167  1.6916  1.2361
 5490TIP3    H237962   3.162   2.716   0.286 -1.0815  1.2102 -0.5329
 5491TIP3   OH237963   2.667   6.191  15.287  0.0160  0.2063  0.2752
 5491TIP3    H137964   2.709   6.264  15.332 -0.0888 -0.0525  0.8002
 5491TIP3    H237965   2.635   6.229  15.205 -2.7093  1.5140  1.8141
 5492TIP3   OH237966   0.251   2.100  14.956  0.0954 -0.2273 -0.2463
 5492TIP3    H137967   0.318   2.043  14.993  0.5118  0.2534 -0.2577
 5492TIP3    H237968   0.293   2.143  14.882 -0.5888 -0.8155 -0.9917
 5493TIP3   OH237969   2.565   0.031   4.215 -0.2364 -0.2759  0.2635
 5493TIP3    H137970   2.519   0.076   4.286  0.3443  0.1850  0.3561
 5493TIP3    H237971   2.513  -0.047   4.199 -0.3348 -0.4281  1.2524
 5494TIP3   OH237972   0.054   0.429   1.564  0.2256  0.4162 -0.8399
 5494TIP3    H137973   0.111   0.353   1.552 -2.3348 -1.7300 -0.3037
 5494TIP3    H237974   0.097   0.482   1.631  1.1371 -1.6124  0.2498
 5495TIP3   OH237975   6.711   4.880  12.838 -0.3198  0.4567 -0.7451
 5495TIP3    H137976   6.752   4.812  12.784  0.0641 -0.9131  1.1262
 5495TIP3    H237977   6.617   4.867  12.827 -0.2426  0.1193 -1.0112
 5496TIP3   OH237978   4.751   3.379   0.105 -0.1998  0.5764  0.4615
 5496TIP3    H137979   4.789   3.373   0.017  1.5335  0.3726  1.1777
 5496TIP3    H237980   4.784   3.461   0.140  1.4055 -0.5778  1.8708
 5497TIP3   OH237981   5.022   0.159  15.211 -0.6146  0.1453  0.0443
 5497TIP3    H137982   4.954   0.129  15.151 -0.0292  1.2456 -1.2239
 5497TIP3    H237983   5.038   0.085  15.269 -2.2490 -0.4385 -0.2104
 5498TIP3   OH237984   0.402   1.083  11.350  0.1703 -0.4185 -0.0227
 5498TIP3    H137985   0.315   1.061  11.319 -0.6869  0.8610  1.3110
 5498TIP3    H237986   0.429   1.157  11.295  0.3296 -0.6589 -0.2737
 5499TIP3   OH237987   2.867   5.309  11.255  0.0254 -0.2686 -0.4407
 5499TIP3    H137988   2.779   5.276  11.235  0.1668 -1.7087  1.0804
 5499TIP3    H237989   2.908   5.321  11.169 -1.6715  0.5579 -1.1798
 5500TIP3   OH237990   1.891   1.177  13.648 -0.4952 -0.4985 -0.4752
 5500TIP3    H137991   1.951   1.115  13.606 -1.8186 -0.6065 -2.3451
 5500TIP3    H237992   1.865   1.236  13.578 -3.1622 -0.9303  0.0320
 5501TIP3   OH237993   6.310   6.900   2.087 -0.0089 -0.0201 -0.6253
 5501TIP3    H137994   6.239   6.940   2.036  0.4378  1.9880  0.2294
 5501TIP3    H237995   6.307   6.807   2.063 -1.4991  0.3886 -2.2685
 5502TIP3   OH237996   6.122   4.080   1.251  0.0066  0.2394  0.4405
 5502TIP3    H137997   6.129   3.988   1.279 -1.0343 -1.2421 -3.4322
 5502TIP3    H237998   6.212   4.111   1.250  0.4866 -1.0358  0.9792
 5503TIP3   OH237999   6.121   6.736  13.124 -0.1612 -0.4403  0.2797
 5503TIP3    H138000   6.087   6.664  13.178 -0.9577 -0.9008 -0.8013
 5503TIP3    H238001   6.050   6.756  13.063  0.8128 -0.1135 -0.7771
 5504TIP3   OH238002   6.857   6.488  13.624  0.1125  0.0481  0.1152
 5504TIP3    H138003   6.938   6.451  13.657  0.9643  2.0846  0.4287
 5504TIP3    H238004   6.812   6.413  13.583  2.4383 -1.0033 -0.7219
 5505TIP3   OH238005   3.182   0.548  11.805  0.2810  0.3189  0.2783
 5505TIP3    H138006   3.276   0.533  11.797  0.5461  1.6599  0.6368
 5505TIP3    H238007   3.157   0.587  11.721 -0.3168 -1.6244 -0.4926
 5506TIP3   OH238008   3.213   6.022   1.275 -0.1499 -0.0155 -0.2289
 5506TIP3    H138009   3.147   6.069   1.223  0.4431 -0.0143 -0.9937
 5506TIP3    H238010   3.169   5.941   1.300 -0.9843  0.6661  0.6114
 5507TIP3   OH238011   6.254   6.806  10.959  0.2015  0.3911  0.1339
 5507TIP3    H138012   6.273   6.787  11.051 -0.0359 -0.2321  0.0584
 5507TIP3    H238013   6.304   6.742  10.910  0.5682  0.9205 -0.1888
 5508TIP3   OH238014   5.161   2.417  11.827  0.3687 -0.0010  0.6180
 5508TIP3    H138015   5.240   2.364  11.826 -0.1758 -0.8429 -0.4076
 5508TIP3    H238016   5.104   2.376  11.761 -0.7484  0.8290  1.0318
 5509TIP3   OH238017   3.946   1.624  13.637  0.0206 -0.8303 -0.2865
 5509TIP3    H138018   3.872   1.653  13.691  0.7239  0.0064  0.2608
 5509TIP3    H238019   3.993   1.705  13.616 -0.1614 -1.1392 -2.0796
 5510TIP3   OH238020   5.184   3.258   3.070  0.3597 -0.1199  0.0749
 5510TIP3    H138021   5.098   3.299   3.074  0.6947  0.6108 -0.1783
 5510TIP3    H238022   5.177   3.194   2.999  0.0829  0.0613 -0.0610
 5511TIP3   OH238023   4.618   5.930   1.443 -0.6142  0.4460 -0.6862
 5511TIP3    H138024   4.694   5.939   1.384  1.0671  1.2032  1.4312
 5511TIP3    H238025   4.595   6.021   1.464  0.3285  0.2406  1.5217
 5512TIP3   OH238026   0.048   0.090   4.558  0.1451 -0.7363 -0.5289
 5512TIP3    H138027   0.020   0.016   4.612 -0.9798  0.7210  0.9655
 5512TIP3    H238028   0.144   0.087   4.560  0.1248 -0.8812  1.3584
 5513TIP3   OH238029   2.174   2.165  10.505 -0.3000  0.5347  0.3456
 5513TIP3    H138030   2.141   2.189  10.591 -1.9825  1.1603 -0.4468
 5513TIP3    H238031   2.207   2.075  10.517  2.1178  1.5316  2.2785
 5514TIP3   OH238032   4.061   5.247  14.200 -0.7000  0.5349  0.1295
 5514TIP3    H138033   4.126   5.179  14.181 -0.9752 -0.6362  2.8975
 5514TIP3    H238034   4.112   5.328  14.202  0.3821 -0.1317  0.4956
 5515TIP3   OH238035   0.223   1.017   5.877 -0.4042 -0.2423 -0.2255
 5515TIP3    H138036   0.255   0.966   5.802 -0.6437  0.4106 -0.7935
 5515TIP3    H238037   0.271   1.100   5.871  1.7469 -1.1829  2.0462
 5516TIP3   OH238038   2.536   4.007   5.514  0.1726 -0.1527  0.0126
 5516TIP3    H138039   2.519   3.917   5.488  2.4921 -0.4621 -0.6355
 5516TIP3    H238040   2.572   4.000   5.603  1.8148 -0.0593 -0.6095
 5517TIP3   OH238041   2.334   2.075  14.559 -0.0871  0.4345 -0.4402
 5517TIP3    H138042   2.369   2.016  14.492  0.1722 -0.0243  0.0942
 5517TIP3    H238043   2.411   2.119  14.595 -0.2832  1.1295 -0.8606
 5518TIP3   OH238044   4.730   6.318  13.064 -0.3292 -0.9542  0.0628
 5518TIP3    H138045   4.807   6.266  13.041  0.5957  0.6991 -0.7686
 5518TIP3    H238046   4.693   6.346  12.980 -2.1327 -2.0443  0.4257
 5519TIP3   OH238047   6.805   4.316  11.400  0.3102  0.1419 -0.0717
 5519TIP3    H138048   6.803   4.239  11.345  0.3811  0.6293 -0.7698
 5519TIP3    H238049   6.742   4.298  11.470 -0.1486 -0.2748 -0.5913
 5520TIP3   OH238050   1.983   5.851  15.230  0.5874 -0.1402 -0.0360
 5520TIP3    H138051   2.053   5.787  15.243 -1.1127 -2.4788 -1.4194
 5520TIP3    H238052   1.974   5.858  15.135  0.7485  2.2768  0.0721
 5521TIP3   OH238053   5.804   2.023   2.140 -0.6010  0.5598 -0.2617
 5521TIP3    H138054   5.718   2.053   2.111 -0.5249 -1.1223 -2.5405
 5521TIP3    H238055   5.831   1.959   2.074  0.7492 -1.8385  2.3847
 5522TIP3   OH238056   5.833   0.700   0.084  0.3649  0.0822 -0.1042
 5522TIP3    H138057   5.799   0.715  -0.004  1.7172  0.1661 -0.6388
 5522TIP3    H238058   5.899   0.632   0.073 -1.6410 -2.2759  1.3833
 5523TIP3   OH238059   3.150   4.481  14.387 -0.0442  0.3169 -0.3404
 5523TIP3    H138060   3.089   4.467  14.460  1.7061 -0.2908  1.0769
 5523TIP3    H238061   3.184   4.569  14.402 -0.4165  0.5810 -1.0241
 5524TIP3   OH238062   0.673   6.207   4.511 -0.6955  0.4159  0.5682
 5524TIP3    H138063   0.662   6.277   4.574  1.0374 -0.4254  1.9026
 5524TIP3    H238064   0.744   6.237   4.454  2.1349 -1.2745  2.9161
 5525TIP3   OH238065   3.582   5.980   1.215 -0.1354 -0.2903 -0.9317
 5525TIP3    H138066   3.523   5.916   1.175 -1.7431 -0.1890  1.0750
 5525TIP3    H238067   3.525   6.054   1.238  0.6767 -0.2906  1.3288
 5526TIP3   OH238068   2.033   0.554   0.841 -0.1229 -0.1329 -0.2900
 5526TIP3    H138069   1.938   0.547   0.849 -0.2016  0.4474 -0.6557
 5526TIP3    H238070   2.051   0.525   0.751  0.2911 -2.3518  0.4322
 5527TIP3   OH238071   6.364   6.155  11.402 -0.5434  0.8461 -0.5303
 5527TIP3    H138072   6.327   6.067  11.396 -0.3491  0.7194  0.0470
 5527TIP3    H238073   6.415   6.154  11.483 -0.8137  1.5918 -0.3433
 5528TIP3   OH238074   5.327   3.515  13.454  0.3898 -0.3297 -0.1337
 5528TIP3    H138075   5.386   3.586  13.479 -0.3230 -0.0359  0.7572
 5528TIP3    H238076   5.361   3.484  13.370  0.7006  1.0815 -0.5545
 5529TIP3   OH238077   4.421   0.899   4.364 -0.1364  0.2355 -0.1877
 5529TIP3    H138078   4.428   0.809   4.333  0.9947  0.2931 -0.1467
 5529TIP3    H238079   4.432   0.952   4.285 -0.8114  0.3530 -0.2125
 5530TIP3   OH238080   3.331   1.847  13.345 -0.6635  0.4818 -0.0078
 5530TIP3    H138081   3.338   1.782  13.275  0.5048  0.4955  0.0705
 5530TIP3    H238082   3.257   1.901  13.320 -1.2539 -0.4795 -0.4076
 5531TIP3   OH238083   5.510   6.610   1.159 -0.1049 -0.2271  0.8403
 5531TIP3    H138084   5.439   6.606   1.224 -1.6055  1.2758 -0.6071
 5531TIP3    H238085   5.511   6.701   1.130  1.5239 -0.5338 -0.1947
 5532TIP3   OH238086   6.003   6.752   5.214 -0.0326 -0.0330  0.0458
 5532TIP3    H138087   6.085   6.776   5.257  0.2010 -0.8911  0.1016
 5532TIP3    H238088   5.959   6.694   5.276 -0.5496  0.1852 -0.1082
 5533TIP3   OH238089   1.948   1.533   0.594  0.5053  0.8237 -0.0293
 5533TIP3    H138090   2.038   1.532   0.628  0.1158 -0.1689  1.0403
 5533TIP3    H238091   1.897   1.578   0.661 -0.4724 -2.1146  1.3809
 5534TIP3   OH238092   6.073   3.632   1.975  0.6370  0.6073 -0.6618
 5534TIP3    H138093   6.151   3.594   2.015 -0.9982 -2.1036  0.2247
 5534TIP3    H238094   6.086   3.620   1.881  1.9993  1.7709 -0.6474
 5535TIP3   OH238095   2.891   2.342  11.145  0.0208 -0.5026 -0.0070
 5535TIP3    H138096   2.915   2.418  11.091 -1.6052 -0.0862 -0.2020
 5535TIP3    H238097   2.850   2.380  11.222 -0.1081 -1.1776  0.2575
 5536TIP3   OH238098   3.792   4.746   4.123  0.1975 -0.2929  0.1548
 5536TIP3    H138099   3.749   4.699   4.194 -0.0179  2.1720  1.7709
 5536TIP3    H238100   3.721   4.795   4.080  0.8529  1.3097  0.8132
 5537TIP3   OH238101   4.432   0.628  12.667 -0.4429 -0.2456  0.3117
 5537TIP3    H138102   4.352   0.582  12.642 -1.1965  0.2352  1.6934
 5537TIP3    H238103   4.490   0.560  12.702 -1.2827 -0.2741  1.7112
 5538TIP3   OH238104   5.683   5.729  15.320 -0.4351  0.4289  0.1467
 5538TIP3    H138105   5.696   5.718  15.226  1.3816 -0.6663  0.4752
 5538TIP3    H238106   5.676   5.640  15.353  0.2386  0.7555  1.2061
 5539TIP3   OH238107   2.671   0.247   2.895 -0.2340  0.0549  0.0555
 5539TIP3    H138108   2.576   0.234   2.894 -0.1942 -0.6386  1.8114
 5539TIP3    H238109   2.706   0.167   2.935  0.8581  1.3873  1.9081
 5540TIP3   OH238110   0.808   6.257  13.153  0.0769  0.2290  0.1452
 5540TIP3    H138111   0.754   6.319  13.202  2.0782  0.5173  2.1212
 5540TIP3    H238112   0.863   6.312  13.098  0.3689  0.0797  0.2901
 5541TIP3   OH238113   1.452   1.558   6.287 -0.1868 -0.4653  0.1446
 5541TIP3    H138114   1.397   1.503   6.230 -1.6039 -0.2792  1.2633
 5541TIP3    H238115   1.392   1.624   6.321  1.7601  2.9154 -2.4194
 5542TIP3   OH238116   3.524   0.223  15.210  0.2104 -0.6681 -0.4248
 5542TIP3    H138117   3.465   0.183  15.274  0.9240 -2.5208 -0.8798
 5542TIP3    H238118   3.606   0.234  15.257 -0.7940  3.4978  0.7576
 5543TIP3   OH238119   6.420   0.635  14.278 -0.3515 -0.4633 -0.0164
 5543TIP3    H138120   6.479   0.705  14.306 -0.2992 -0.6690  0.4068
 5543TIP3    H238121   6.410   0.647  14.184 -0.0895 -0.0804  0.0045
 5544TIP3   OH238122   6.320   1.353  12.774  0.6571 -0.0291  0.8191
 5544TIP3    H138123   6.276   1.282  12.727  1.3040 -0.4465  0.8251
 5544TIP3    H238124   6.258   1.425  12.773  0.7516  0.0501 -0.8608
 5545TIP3   OH238125   5.560   4.521   2.832  0.3053 -0.0958  0.3663
 5545TIP3    H138126   5.493   4.521   2.900  0.7075 -0.0540  0.7660
 5545TIP3    H238127   5.571   4.614   2.810 -0.6525 -0.1949 -0.5858
 5546TIP3   OH238128   3.861   5.252  14.714  0.2407 -0.1046 -0.4075
 5546TIP3    H138129   3.890   5.333  14.756 -0.5721 -0.0084 -0.0020
 5546TIP3    H238130   3.847   5.191  14.787 -1.8575  0.2761 -0.4136
 5547TIP3   OH238131   4.369   0.424  11.522 -0.0983  0.2130 -0.0807
 5547TIP3    H138132   4.368   0.347  11.579 -0.9407  1.9187  2.3609
 5547TIP3    H238133   4.277   0.447  11.511  0.1682  1.8090  0.6679
 5548TIP3   OH238134   2.283   3.483  14.379 -0.2364 -0.7052 -0.2333
 5548TIP3    H138135   2.190   3.507  14.387  0.3122  1.7139 -0.3912
 5548TIP3    H238136   2.294   3.462  14.286 -0.8365 -2.2438  0.0010
 5549TIP3   OH238137   3.281   3.792   3.958 -0.5947  0.0670 -0.1331
 5549TIP3    H138138   3.224   3.738   4.012  0.8758 -1.1273  0.2950
 5549TIP3    H238139   3.234   3.875   3.948 -2.3231 -0.8260  0.2798
 5550TIP3   OH238140   1.219   2.406   4.052 -0.4071 -0.0656 -0.2295
 5550TIP3    H138141   1.207   2.327   3.999  1.5321 -0.7795  0.3026
 5550TIP3    H238142   1.173   2.386   4.134  0.8794 -1.0937  0.2828
 5551TIP3   OH238143   3.199   0.289   6.554  0.2749  0.1342  0.3827
 5551TIP3    H138144   3.130   0.348   6.583 -0.3143  0.3180 -1.2513
 5551TIP3    H238145   3.156   0.231   6.491  1.8434  1.2166 -1.8272
 5552TIP3   OH238146   0.230   2.910   0.835  0.1242 -0.5110 -0.3582
 5552TIP3    H138147   0.146   2.898   0.791  0.5815 -2.3840 -0.8130
 5552TIP3    H238148   0.291   2.932   0.764  0.7031 -2.7511 -0.6202
 5553TIP3   OH238149   2.689   3.369   5.161 -0.0425 -0.0906  0.0033
 5553TIP3    H138150   2.720   3.279   5.157 -0.5215 -0.2207 -1.3301
 5553TIP3    H238151   2.661   3.381   5.252 -0.0364 -1.3082  0.1801
 5554TIP3   OH238152   2.905   4.439   0.571  0.0597 -0.0859  0.0027
 5554TIP3    H138153   2.814   4.466   0.568  0.3730  1.0194  0.1339
 5554TIP3    H238154   2.909   4.363   0.513 -0.6775  0.6572 -1.0587
 5555TIP3   OH238155   3.292   0.896   1.602  0.2197 -0.0545 -0.1806
 5555TIP3    H138156   3.306   0.845   1.682 -0.7995  1.3130  0.9414
 5555TIP3    H238157   3.355   0.967   1.608 -0.2215  0.3536 -0.3036
 5556TIP3   OH238158   2.724   1.575   1.745 -0.0493 -0.0868  0.1991
 5556TIP3    H138159   2.636   1.588   1.709 -0.6762 -0.5921  1.4881
 5556TIP3    H238160   2.750   1.488   1.713  0.4922  0.5275 -1.1316
 5557TIP3   OH238161   3.003   3.494  11.765 -0.2401 -0.6808  0.4901
 5557TIP3    H138162   3.053   3.474  11.686 -0.6463  0.9187 -0.2211
 5557TIP3    H238163   2.984   3.409  11.805  1.5883 -1.4036 -0.1120
 5558TIP3   OH238164   4.596   6.155   0.650  0.5298 -0.4223  0.2001
 5558TIP3    H138165   4.571   6.146   0.558  1.0795 -0.7786  0.0835
 5558TIP3    H238166   4.514   6.147   0.698  0.0118  1.2267 -0.3321
 5559TIP3   OH238167   4.026   5.598  13.043  0.0028 -0.1436  0.0764
 5559TIP3    H138168   4.077   5.676  13.061 -1.0779  0.2587  1.6388
 5559TIP3    H238169   3.946   5.631  13.002 -1.7539 -0.0026  3.2956
 5560TIP3   OH238170   3.057   1.443  11.975 -0.2869  0.2432 -0.2639
 5560TIP3    H138171   3.129   1.407  11.923  0.1388  2.0268 -1.0090
 5560TIP3    H238172   3.018   1.511  11.919 -1.2106  0.7470  0.9250
 5561TIP3   OH238173   6.557   3.856  16.612  0.6351 -0.0826  0.2922
 5561TIP3    H138174   6.534   3.763  16.614 -0.6711  0.2218 -0.0609
 5561TIP3    H238175   6.536   3.889  16.699  1.3610 -0.1592  0.5088
 5562TIP3   OH238176   3.459   2.028  14.548  0.2439 -0.3257 -0.0708
 5562TIP3    H138177   3.535   2.078  14.518 -0.0156  2.0436  2.7237
 5562TIP3    H238178   3.393   2.042  14.482  1.1218  0.6198 -0.7722
 5563TIP3   OH238179   3.545   6.392  16.883  0.1746 -0.0051  0.1799
 5563TIP3    H138180   3.583   6.305  16.868 -2.4041 -0.7835 -2.7931
 5563TIP3    H238181   3.470   6.376  16.940 -0.6222  0.1506 -0.8077
 5564TIP3   OH238182   2.001   5.643   4.061  0.1127  0.1699 -0.1776
 5564TIP3    H138183   1.945   5.678   4.130  1.3941  0.1619  0.8931
 5564TIP3    H238184   1.972   5.689   3.981  0.6416  2.4920  0.8841
 5565TIP3   OH238185   0.428   1.051  12.662  0.2320  0.1366  0.0295
 5565TIP3    H138186   0.411   0.991  12.734 -1.5919  1.3558  0.6978
 5565TIP3    H238187   0.349   1.047  12.608  0.3381  1.4106 -0.2629
 5566TIP3   OH238188   5.383   2.573  11.284 -0.6016 -0.0671  0.4784
 5566TIP3    H138189   5.319   2.596  11.218  1.4713 -1.3168 -2.1556
 5566TIP3    H238190   5.433   2.653  11.299  0.6372 -0.3966 -1.5980
 5567TIP3   OH238191   1.213   6.065   3.752  0.3744 -0.0230 -0.1798
 5567TIP3    H138192   1.143   6.001   3.746  0.9727 -0.6469 -0.6385
 5567TIP3    H238193   1.286   6.019   3.792  0.8010  0.3737 -0.4829
 5568TIP3   OH238194   1.097   1.853   5.560  0.1637  0.4477  0.1982
 5568TIP3    H138195   1.099   1.765   5.522 -0.0747  0.3576  0.3916
 5568TIP3    H238196   1.167   1.853   5.625  0.7863  0.7066 -0.4684
 5569TIP3   OH238197   2.724   6.763  12.855  0.1352  0.0581 -0.2420
 5569TIP3    H138198   2.747   6.718  12.937 -1.4945  0.6725  0.6059
 5569TIP3    H238199   2.710   6.854  12.881 -0.6131  0.2219 -1.1662
 5570TIP3   OH238200   0.977   1.468   3.620 -0.0932  0.9912 -0.0768
 5570TIP3    H138201   1.006   1.500   3.535  0.0244  0.0316 -0.4121
 5570TIP3    H238202   0.949   1.378   3.604  0.0770  0.7441  0.9242
 5571TIP3   OH238203   0.024   5.746   2.845 -0.1070 -0.3488 -0.8166
 5571TIP3    H138204   0.005   5.654   2.824 -0.4491 -0.3284 -0.6073
 5571TIP3    H238205  -0.025   5.795   2.780 -0.3331 -0.3061 -0.6160
 5572TIP3   OH238206   4.741   6.849   1.434  0.0258 -1.0627 -0.3121
 5572TIP3    H138207   4.810   6.820   1.493  2.6252  0.0896 -2.5681
 5572TIP3    H238208   4.703   6.926   1.477  0.2084 -1.6544  0.9302
 5573TIP3   OH238209   0.344   5.946   3.183 -0.0298  0.4172  0.0814
 5573TIP3    H138210   0.398   5.914   3.111  0.3131  1.6192 -0.2231
 5573TIP3    H238211   0.406   5.982   3.246 -0.4092  0.7255  0.2811
 5574TIP3   OH238212   6.093   3.608  13.261 -0.1018 -0.3767 -0.2426
 5574TIP3    H138213   6.042   3.682  13.294 -0.3398 -0.4125 -0.5216
 5574TIP3    H238214   6.126   3.638  13.176  1.1588  0.0051  0.3651
 5575TIP3   OH238215   1.186   1.378  12.780  0.3201  0.1564  0.0291
 5575TIP3    H138216   1.278   1.351  12.781 -0.0863 -1.3029  0.3670
 5575TIP3    H238217   1.149   1.338  12.858 -0.5737  0.9186  0.0126
 5576TIP3   OH238218   0.712   6.029  14.965 -0.2333 -0.1673  0.2248
 5576TIP3    H138219   0.787   6.014  14.907  1.8243 -1.5026  2.9733
 5576TIP3    H238220   0.747   6.013  15.053 -3.4280  0.6385  1.7754
 5577TIP3   OH238221   1.472   3.381  13.072  0.1310  0.3898 -0.0136
 5577TIP3    H138222   1.531   3.348  13.004 -0.6795  1.5675 -1.3513
 5577TIP3    H238223   1.511   3.465  13.099 -0.5311  0.8311 -0.3971
 5578TIP3   OH238224   4.729   2.616   2.473 -0.5653  0.4746  0.6088
 5578TIP3    H138225   4.759   2.532   2.507 -1.4589 -0.3264 -0.5462
 5578TIP3    H238226   4.804   2.649   2.423 -0.5546 -0.1089  0.2308
 5579TIP3   OH238227   4.726   2.721  12.695 -0.7181  0.0059  0.2147
 5579TIP3    H138228   4.751   2.812  12.709  1.7618 -0.2687 -1.6633
 5579TIP3    H238229   4.767   2.674  12.768 -0.8729  0.2460  0.4594
 5580TIP3   OH238230   4.073   0.135  13.470  0.4197 -0.2502 -0.2067
 5580TIP3    H138231   4.134   0.067  13.499 -1.1972 -1.4611  0.5843
 5580TIP3    H238232   4.115   0.217  13.493  1.4784 -1.0642  0.8925
 5581TIP3   OH238233   6.651   2.210  14.878  0.4973  0.0240 -0.6674
 5581TIP3    H138234   6.653   2.114  14.881  2.3502  0.0245 -0.7705
 5581TIP3    H238235   6.677   2.237  14.966 -2.8064  0.5369  0.3121
 5582TIP3   OH238236   4.050   6.041  15.380  0.2363  0.1844 -0.6890
 5582TIP3    H138237   4.136   6.012  15.409 -1.1637 -1.7124  2.0410
 5582TIP3    H238238   4.016   6.092  15.454 -1.0311  0.8179 -1.6712
 5583TIP3   OH238239   3.492   4.071  13.333  0.4256  0.2625  0.2902
 5583TIP3    H138240   3.456   4.030  13.412  0.5493  1.4011  0.9631
 5583TIP3    H238241   3.434   4.145  13.315  0.6669  0.2909 -0.4138
 5584TIP3   OH238242   0.611   3.746  13.099  0.5250  0.1307 -0.2203
 5584TIP3    H138243   0.570   3.756  13.013  2.4724 -2.1403 -1.5239
 5584TIP3    H238244   0.541   3.713  13.155 -0.8388  1.8909 -0.7817
 5585TIP3   OH238245   1.701   3.785  13.629 -0.2527  0.2775 -0.1684
 5585TIP3    H138246   1.745   3.840  13.695  0.0032  0.4358 -0.4667
 5585TIP3    H238247   1.648   3.724  13.680  1.1054 -0.6022  0.2612
 5586TIP3   OH238248   3.926   3.725   2.277  0.1828 -0.2300  0.0594
 5586TIP3    H138249   3.916   3.658   2.210  0.8608  1.3528 -1.7327
 5586TIP3    H238250   4.017   3.756   2.267 -0.0901  0.9012  0.8501
 5587TIP3   OH238251   1.634   5.777   2.199 -0.2764 -0.1694  0.1322
 5587TIP3    H138252   1.549   5.793   2.242  0.4294 -0.2798  1.6430
 5587TIP3    H238253   1.662   5.863   2.170 -1.6547 -0.3494 -1.9226
 5588TIP3   OH238254   2.479   3.674  16.822  0.8507 -0.6302 -1.0102
 5588TIP3    H138255   2.550   3.610  16.824  1.2728 -0.1504  0.6549
 5588TIP3    H238256   2.508   3.738  16.757  1.0020 -1.4506 -1.7771
 5589TIP3   OH238257   6.332   4.191   3.680  0.9339 -0.1928  0.3235
 5589TIP3    H138258   6.296   4.125   3.620  0.8232  0.8992 -0.8515
 5589TIP3    H238259   6.381   4.250   3.623 -0.4078  1.7492  1.1007
 5590TIP3   OH238260   4.778   3.060   0.689 -0.2277  0.0873  0.2324
 5590TIP3    H138261   4.730   3.106   0.758  0.2905  2.1336 -0.6942
 5590TIP3    H238262   4.868   3.058   0.721  0.1770  1.7962 -0.6832
 5591TIP3   OH238263   0.834   6.132  11.162  0.5270  0.1043  0.3214
 5591TIP3    H138264   0.777   6.188  11.109  0.6118 -0.7796 -0.7335
 5591TIP3    H238265   0.911   6.187  11.180  0.2439  0.6069  0.0172
 5592TIP3   OH238266   3.302   1.166   1.152 -0.0882  0.7185 -0.3487
 5592TIP3    H138267   3.381   1.182   1.101 -1.2202 -0.6131 -2.6690
 5592TIP3    H238268   3.320   1.085   1.200 -0.5667 -0.5252 -2.1727
 5593TIP3   OH238269   4.354   1.646  12.388  0.2812  0.2025 -0.0949
 5593TIP3    H138270   4.445   1.632  12.415  1.0686  0.9899 -2.0960
 5593TIP3    H238271   4.361   1.678  12.298 -1.9367  1.3806  0.0831
 5594TIP3   OH238272   1.155   5.639  13.490  0.0672 -0.2152 -0.3188
 5594TIP3    H138273   1.180   5.715  13.437  0.5056  0.1509  0.3812
 5594TIP3    H238274   1.119   5.677  13.570 -1.9588 -0.7483 -0.9358
 5595TIP3   OH238275   4.689   1.630   5.901  0.8158  0.6296 -0.7557
 5595TIP3    H138276   4.631   1.553   5.895  0.0986  1.0159  0.8224
 5595TIP3    H238277   4.657   1.678   5.977  1.8004  2.0601 -1.2142
 5596TIP3   OH238278   6.094   0.576  14.894 -0.5771 -0.7818 -0.1509
 5596TIP3    H138279   6.168   0.616  14.848 -0.7216 -1.5064 -1.0281
 5596TIP3    H238280   6.021   0.637  14.880 -0.5941 -0.9499 -0.8102
 5597TIP3   OH238281   1.731   0.842   4.886 -0.2347 -0.2573  0.2508
 5597TIP3    H138282   1.714   0.884   4.970 -0.2875  1.5026 -0.6045
 5597TIP3    H238283   1.670   0.883   4.825 -0.4731 -1.7870 -0.5945
 5598TIP3   OH238284   4.964   4.337   1.598 -0.8518  0.0701 -0.1964
 5598TIP3    H138285   5.057   4.356   1.601 -0.3551 -0.8476 -3.8821
 5598TIP3    H238286   4.930   4.362   1.684  2.9502 -0.7553  1.7367
 5599TIP3   OH238287   2.597   6.449  13.602  0.3707  0.3112  0.1295
 5599TIP3    H138288   2.607   6.480  13.692  0.9292  0.2036  0.1123
 5599TIP3    H238289   2.617   6.355  13.607  1.3009  0.4725 -0.2482
 5600TIP3   OH238290   0.452   2.348  14.540  0.1071 -0.6904  0.2183
 5600TIP3    H138291   0.501   2.353  14.457 -0.3384 -1.7718 -0.1219
 5600TIP3    H238292   0.412   2.434  14.549  1.1559 -0.1524 -0.0613
 5601TIP3   OH238293   5.957   4.842   5.622  0.1997  0.3300  0.3046
 5601TIP3    H138294   6.039   4.819   5.664 -1.1507 -1.5466  2.1138
 5601TIP3    H238295   5.924   4.917   5.671  0.9727  1.3292 -0.6671
 5602TIP3   OH238296   6.203   5.008  13.836  0.2020  0.0311  0.0794
 5602TIP3    H138297   6.178   5.007  13.928 -1.5473 -2.8414 -0.3081
 5602TIP3    H238298   6.275   4.945  13.830  0.3650  0.2659 -0.5193
 5603TIP3   OH238299   0.605   4.844  15.855  0.0256 -0.5219 -0.5231
 5603TIP3    H138300   0.602   4.886  15.770  1.9821  2.3547  0.6801
 5603TIP3    H238301   0.557   4.903  15.913  1.8019 -0.4625  1.0014
 5604TIP3   OH238302   1.516   2.305   5.300  0.3248  0.0567 -0.5699
 5604TIP3    H138303   1.567   2.319   5.380  1.6564 -2.6152 -0.8624
 5604TIP3    H238304   1.577   2.267   5.238 -1.0733  0.6011 -2.3805
 5605TIP3   OH238305   6.402   5.999   5.462 -0.1120 -0.0215 -0.2473
 5605TIP3    H138306   6.474   6.010   5.523  0.2637  0.2661 -0.7301
 5605TIP3    H238307   6.423   5.918   5.414 -0.2103 -0.0449 -0.2513
 5606TIP3   OH238308   2.423   3.051  13.051 -0.6922 -0.2440  1.1331
 5606TIP3    H138309   2.508   3.063  13.093 -0.9678 -0.0563  1.6590
 5606TIP3    H238310   2.383   2.978  13.098 -0.9754 -0.0775  1.1590
 5607TIP3   OH238311   3.252   1.216   4.172  0.5346 -0.4494  0.0199
 5607TIP3    H138312   3.210   1.274   4.109  1.2062 -1.9642 -1.9435
 5607TIP3    H238313   3.179   1.174   4.218  0.0074  0.1394 -0.2642
 5608TIP3   OH238314   4.675   3.102   5.005 -0.8227  0.7483 -0.1166
 5608TIP3    H138315   4.582   3.125   5.004 -0.7389  1.0907 -0.1647
 5608TIP3    H238316   4.718   3.181   5.039 -0.5806  0.4786  0.2082
 5609TIP3   OH238317   1.814   2.302   3.324  0.6819 -0.3677  0.3840
 5609TIP3    H138318   1.756   2.272   3.254 -0.3647  1.2459  0.4895
 5609TIP3    H238319   1.891   2.246   3.318 -0.4094 -1.8504 -0.4908
 5610TIP3   OH238320   4.982   1.232   0.263  0.5632 -0.3639 -0.5026
 5610TIP3    H138321   5.009   1.323   0.254  1.3778 -0.7499 -2.1606
 5610TIP3    H238322   5.000   1.211   0.355  2.1553  0.5805 -0.5688
 5611TIP3   OH238323   3.187   4.000  11.630  0.5446 -0.0803 -0.1869
 5611TIP3    H138324   3.147   4.004  11.543  1.9346  0.1428 -0.8433
 5611TIP3    H238325   3.189   4.091  11.659  1.5910  0.0434 -0.6393
 5612TIP3   OH238326   5.553   3.019   3.845 -0.6000 -0.0082 -0.1802
 5612TIP3    H138327   5.518   3.108   3.854 -1.2595 -0.3080  0.2769
 5612TIP3    H238328   5.566   2.989   3.935 -1.7308 -0.8930 -0.2966
 5613TIP3   OH238329   0.037   0.616   0.373 -0.0280 -0.0040  0.1602
 5613TIP3    H138330   0.094   0.670   0.428 -0.5642  1.2855 -0.5169
 5613TIP3    H238331   0.067   0.526   0.389  0.8665  0.4736  1.3329
 5614TIP3   OH238332   1.077   6.719  16.405  0.2102 -0.1294 -0.0727
 5614TIP3    H138333   1.000   6.667  16.429 -0.0372 -0.1877 -0.9739
 5614TIP3    H238334   1.111   6.676  16.327  0.5818  0.4914 -0.2561
 5615TIP3   OH238335   0.858   6.201   5.281 -0.4008  0.3634  0.0837
 5615TIP3    H138336   0.823   6.281   5.321 -1.0545 -0.3322  0.9382
 5615TIP3    H238337   0.814   6.130   5.327  1.0628 -0.5217  0.1698
 5616TIP3   OH238338   1.614   2.320  11.535 -0.4988  0.0564 -0.6100
 5616TIP3    H138339   1.584   2.300  11.446  0.6587 -1.5856 -0.6749
 5616TIP3    H238340   1.544   2.287  11.592 -1.4000  1.4115 -0.8740
 5617TIP3   OH238341   1.270   2.785   4.810 -0.3120  0.0125  0.1515
 5617TIP3    H138342   1.187   2.825   4.782 -0.1576 -0.6171 -1.2796
 5617TIP3    H238343   1.289   2.719   4.743  1.1262 -0.1564  0.6916
 5618TIP3   OH238344   5.532   5.162   0.869  0.1696  0.0507 -0.1672
 5618TIP3    H138345   5.477   5.095   0.829  0.7551 -0.9264  0.6008
 5618TIP3    H238346   5.516   5.153   0.963  0.0315  1.2020 -0.0681
 5619TIP3   OH238347   1.485   0.270  15.078  0.2444  0.5858 -0.1606
 5619TIP3    H138348   1.510   0.181  15.051  1.3158  0.5797  0.7787
 5619TIP3    H238349   1.470   0.316  14.996 -1.6512 -0.7990 -0.6662
 5620TIP3   OH238350   3.035   3.704  15.377  0.1792 -0.4153 -0.3671
 5620TIP3    H138351   3.083   3.706  15.460 -1.7834  0.3921  0.8206
 5620TIP3    H238352   3.020   3.796  15.355 -0.6517 -0.6289 -0.7633
 5621TIP3   OH238353   0.003   1.806   2.923 -0.4526 -0.0016 -0.6752
 5621TIP3    H138354  -0.068   1.753   2.959 -0.2468  1.6569  2.5185
 5621TIP3    H238355   0.081   1.780   2.972  0.0513  1.7544 -0.4501
 5622TIP3   OH238356   6.363   1.868  14.508 -0.0660 -0.1170 -0.1262
 5622TIP3    H138357   6.440   1.906  14.468  0.1528 -1.1388 -0.7252
 5622TIP3    H238358   6.318   1.941  14.551  0.5889  0.6912 -0.8051
 5623TIP3   OH238359   1.182   4.215  15.785 -0.4002  0.3249  0.0088
 5623TIP3    H138360   1.185   4.185  15.876 -1.9777 -1.3662 -0.4086
 5623TIP3    H238361   1.171   4.134  15.735 -1.2480  1.3548 -1.5324
 5624TIP3   OH238362   4.042   1.860  10.443  0.3308 -0.0342 -0.5468
 5624TIP3    H138363   4.058   1.915  10.366 -1.4578 -0.8812 -1.5775
 5624TIP3    H238364   4.087   1.778  10.424  0.6117  0.0552 -0.2830
 5625TIP3   OH238365   3.415   3.504   3.761 -0.6796  0.0150 -0.1453
 5625TIP3    H138366   3.493   3.524   3.709 -0.7817  0.7031 -0.0364
 5625TIP3    H238367   3.351   3.570   3.735 -0.9153  0.0299  0.4546
 5626TIP3   OH238368   5.301   2.828   1.872 -0.0160  0.4730 -0.3118
 5626TIP3    H138369   5.311   2.906   1.818 -1.2180  2.4167  2.0686
 5626TIP3    H238370   5.389   2.808   1.903  0.5804 -0.2731 -2.3196
 5627TIP3   OH238371   0.592   0.903   2.802  0.2798  0.2277 -0.0574
 5627TIP3    H138372   0.498   0.889   2.794  0.2269  0.4137  0.2198
 5627TIP3    H238373   0.601   0.962   2.877  0.5112  1.6261 -1.1522
 5628TIP3   OH238374   3.881   0.981   1.958 -0.0530 -0.0542 -0.6941
 5628TIP3    H138375   3.904   0.946   2.044  0.2740 -0.8066 -1.0783
 5628TIP3    H238376   3.964   1.013   1.922 -0.4462  1.7125 -0.0973
 5629TIP3   OH238377   5.832   4.263   5.753  0.4405 -0.2234 -0.2852
 5629TIP3    H138378   5.786   4.311   5.684 -2.9176 -0.8957  1.3147
 5629TIP3    H238379   5.819   4.314   5.832  2.1325 -0.7082  0.3628
 5630TIP3   OH238380   2.949   5.172   3.945  0.0111 -0.3846  0.2337
 5630TIP3    H138381   3.035   5.152   3.908 -0.5322  1.6333 -2.4163
 5630TIP3    H238382   2.968   5.211   4.030  1.5940 -1.3802  0.3842
 5631TIP3   OH238383   4.742   3.908   2.827 -0.3046 -0.3273  0.3945
 5631TIP3    H138384   4.787   3.921   2.743  1.5593  0.6518  1.4884
 5631TIP3    H238385   4.717   3.996   2.854 -2.1018 -0.7674  0.2787
 5632TIP3   OH238386   5.738   6.303   6.176 -0.4743  0.4620  0.5836
 5632TIP3    H138387   5.804   6.283   6.109 -1.6071  0.5559 -0.6052
 5632TIP3    H238388   5.754   6.239   6.245  1.0747  0.7078  0.4892
 5633TIP3   OH238389   1.830   5.908  10.923  0.6875 -0.0306 -0.3918
 5633TIP3    H138390   1.767   5.899  10.851  0.0199 -0.3788  0.2272
 5633TIP3    H238391   1.914   5.922  10.879  0.1800  0.5130 -1.2335
 5634TIP3   OH238392   0.932   6.531  14.097  0.1199 -0.1153 -0.2088
 5634TIP3    H138393   0.936   6.571  14.010 -1.6822  2.2404  0.6743
 5634TIP3    H238394   1.000   6.575  14.148  1.2909 -1.6130 -0.3982
 5635TIP3   OH238395   6.627   6.589  11.103 -0.2280 -0.2018 -0.2123
 5635TIP3    H138396   6.709   6.553  11.138 -0.7893 -1.9339 -0.5821
 5635TIP3    H238397   6.594   6.520  11.045 -2.3189  0.1505  0.4932
 5636TIP3   OH238398   4.201   0.118  16.301  1.1362 -0.0457  0.3524
 5636TIP3    H138399   4.198   0.158  16.214  0.9759 -1.6645 -0.4155
 5636TIP3    H238400   4.226   0.027  16.286 -0.9219 -0.9286  1.7896
 5637TIP3   OH238401   0.609   1.122  10.346 -0.1290 -0.0139  0.5796
 5637TIP3    H138402   0.543   1.058  10.317 -1.7364  1.7969  0.0426
 5637TIP3    H238403   0.691   1.089  10.309 -1.1028 -1.1393 -0.7156
 5638TIP3   OH238404   4.596   2.629   1.144  0.3432  0.5515 -0.0309
 5638TIP3    H138405   4.689   2.634   1.165 -0.0242  0.2956  1.8750
 5638TIP3    H238406   4.588   2.556   1.083  1.3239  0.1907  0.2623
 5639TIP3   OH238407   2.355   3.876   0.831 -0.2537  0.5487 -0.0658
 5639TIP3    H138408   2.395   3.877   0.918 -0.4839  0.6876  0.0406
 5639TIP3    H238409   2.271   3.832   0.844  0.4954 -1.0867 -0.5752
 5640TIP3   OH238410   5.129   3.451   5.560 -0.4813  0.1617 -0.0882
 5640TIP3    H138411   5.077   3.373   5.577 -0.6997  0.1674 -0.6874
 5640TIP3    H238412   5.153   3.444   5.467  1.1540 -0.1784  0.3273
 5641TIP3   OH238413   4.548   2.090   0.596  0.5277  0.2473  0.5602
 5641TIP3    H138414   4.534   2.117   0.686 -0.4471 -1.6183  1.0117
 5641TIP3    H238415   4.639   2.114   0.578  1.3648 -1.0669  2.6877
 5642TIP3   OH238416   5.194   2.348  15.831  0.0318  0.6125 -0.0726
 5642TIP3    H138417   5.226   2.337  15.741  1.9014  0.0977  0.6130
 5642TIP3    H238418   5.148   2.265  15.849 -0.3429  0.7123 -0.5340
 5643TIP3   OH238419   0.509   0.735   1.721  0.3544  0.5202 -0.1860
 5643TIP3    H138420   0.533   0.828   1.718 -0.7444  0.9010  1.4252
 5643TIP3    H238421   0.438   0.726   1.658  1.6224  0.3532 -1.6499
 5644TIP3   OH238422   1.585   6.504   2.811  0.0597 -0.1400  0.2697
 5644TIP3    H138423   1.577   6.422   2.763 -2.2417 -0.1569  0.5824
 5644TIP3    H238424   1.496   6.527   2.835  0.7570  1.9149  1.1338
 5645TIP3   OH238425   4.901   6.320   4.703  0.3177  0.0397 -0.5785
 5645TIP3    H138426   4.851   6.257   4.755  0.2095  1.3012  0.9290
 5645TIP3    H238427   4.837   6.388   4.682  1.4480  2.1502  2.1542
 5646TIP3   OH238428   1.491   5.364   5.252 -0.5923 -0.0657  0.4072
 5646TIP3    H138429   1.503   5.456   5.229  0.1782 -0.1568  0.4234
 5646TIP3    H238430   1.511   5.360   5.345  2.1195 -0.6990 -0.1248
 5647TIP3   OH238431   5.522   2.454   2.257  0.1718 -0.3617 -0.0564
 5647TIP3    H138432   5.468   2.506   2.316  1.6110  1.3222 -0.1540
 5647TIP3    H238433   5.486   2.472   2.170  1.1240  1.1483 -0.1739
 5648TIP3   OH238434   5.249   2.069  14.571 -0.1978 -0.0573 -0.0709
 5648TIP3    H138435   5.309   2.119  14.628 -0.6736  0.6837 -0.2046
 5648TIP3    H238436   5.172   2.054  14.626 -0.0373 -0.7017 -0.0157
 5649TIP3   OH238437   2.059   4.969  12.546 -0.1616  0.6680 -0.6617
 5649TIP3    H138438   2.083   4.908  12.477  0.3898  0.1594 -0.0370
 5649TIP3    H238439   2.105   4.937  12.624 -1.0292  1.0240  0.0258
 5650TIP3   OH238440   3.921   2.726   1.976 -0.1320  0.1616  0.6037
 5650TIP3    H138441   3.977   2.652   2.001 -0.9770 -1.1522 -1.1544
 5650TIP3    H238442   3.941   2.794   2.040 -0.2499 -2.0181  3.1696
 5651TIP3   OH238443   6.225   3.791   3.473  0.8029 -0.1029 -0.0949
 5651TIP3    H138444   6.307   3.743   3.481  0.5994 -0.5804 -0.8351
 5651TIP3    H238445   6.238   3.868   3.529  0.5819 -1.7066  2.3415
 5652TIP3   OH238446   1.439   4.909  10.261  0.0510 -0.2230 -0.4362
 5652TIP3    H138447   1.434   4.944  10.173 -0.5777  0.2438 -0.2231
 5652TIP3    H238448   1.394   4.824  10.255  1.0688 -0.7562 -0.8199
 5653TIP3   OH238449   3.735   2.206  16.647  0.1527 -0.5735 -0.4064
 5653TIP3    H138450   3.693   2.159  16.575  0.9944  0.6428 -1.7390
 5653TIP3    H238451   3.799   2.143  16.682 -1.2944 -1.7007  0.2970
 5654TIP3   OH238452   5.064   4.085   2.822 -0.2498 -0.1505  0.1012
 5654TIP3    H138453   5.042   4.173   2.853  1.1929  0.9754 -1.8521
 5654TIP3    H238454   5.149   4.066   2.861 -2.0983 -2.3769  3.5526
 5655TIP3   OH238455   4.744   2.523  16.333 -0.7775  0.5054  0.5786
 5655TIP3    H138456   4.826   2.486  16.300 -0.0184  0.0539  2.8261
 5655TIP3    H238457   4.688   2.447  16.348 -1.2149  0.7296  0.1240
 5656TIP3   OH238458   1.541   3.975   2.315 -0.5665 -0.1748  0.4892
 5656TIP3    H138459   1.550   3.899   2.258  2.4328 -0.5240  1.2359
 5656TIP3    H238460   1.569   3.943   2.401 -2.0159  1.1006  1.4712
 5657TIP3   OH238461   2.219   3.242   4.683 -0.5313 -0.0049  0.1380
 5657TIP3    H138462   2.216   3.328   4.724 -0.0994  0.2810 -0.4216
 5657TIP3    H238463   2.172   3.253   4.600  3.4797  0.9957 -2.2709
 5658TIP3   OH238464   4.634   1.837   4.394 -0.5548  0.7318 -0.1435
 5658TIP3    H138465   4.615   1.771   4.328 -1.0034  0.1563  0.5366
 5658TIP3    H238466   4.552   1.887   4.401 -0.6810  0.4639  0.3303
 5659TIP3   OH238467   2.711   6.122  15.989  0.0542 -0.3299 -0.2451
 5659TIP3    H138468   2.794   6.088  15.956 -0.0912 -1.5302  0.5517
 5659TIP3    H238469   2.677   6.052  16.044 -1.1147  0.4590  0.0738
 5660TIP3   OH238470   0.208   0.514  11.431 -0.4235  0.5674  0.1708
 5660TIP3    H138471   0.249   0.460  11.364  2.6064  1.1566  1.3752
 5660TIP3    H238472   0.161   0.582  11.383  0.8067  0.3907 -1.3322
 5661TIP3   OH238473   4.178   2.417  14.538 -0.5250  0.0038 -0.5310
 5661TIP3    H138474   4.235   2.442  14.466 -0.1891 -2.0500 -1.0374
 5661TIP3    H238475   4.234   2.425  14.616 -0.1510 -0.1094 -0.7852
 5662TIP3   OH238476   1.278   5.740   5.724 -0.2037 -0.9226  0.2538
 5662TIP3    H138477   1.243   5.827   5.703  0.2612 -0.4496  1.3551
 5662TIP3    H238478   1.213   5.702   5.783 -0.9735 -1.8075 -1.1144
 5663TIP3   OH238479   0.260   2.612  10.330 -0.0308  0.6685  0.0621
 5663TIP3    H138480   0.355   2.625  10.328  0.1064 -0.3463 -0.2229
 5663TIP3    H238481   0.235   2.607  10.237 -0.3401  0.7144  0.1428
 5664TIP3   OH238482   6.169   4.260  10.435 -0.0597 -0.6885 -0.3659
 5664TIP3    H138483   6.077   4.278  10.419 -0.8388 -2.7818  1.2597
 5664TIP3    H238484   6.197   4.207  10.360 -0.0763  0.1498 -0.9804
 5665TIP3   OH238485   6.859   1.048  12.871 -0.3269 -0.0854 -0.2758
 5665TIP3    H138486   6.882   1.099  12.948 -0.2718 -1.3772  0.5987
 5665TIP3    H238487   6.798   1.103  12.822 -1.0677  0.4072  1.1596
 5666TIP3   OH238488   3.592   5.604   2.487 -0.0777  0.0984  0.2193
 5666TIP3    H138489   3.631   5.636   2.568 -0.1716  1.3786 -0.2137
 5666TIP3    H238490   3.508   5.567   2.513 -0.1160  0.5234  0.7089
 5667TIP3   OH238491   3.989   4.359  10.231 -0.1671 -0.9647  0.0225
 5667TIP3    H138492   3.965   4.428  10.169 -0.7303 -1.9128 -0.8566
 5667TIP3    H238493   4.082   4.371  10.246 -0.2191 -0.1341 -0.2768
 5668TIP3   OH238494   5.922   0.798   2.172  0.0276  0.4543 -0.1320
 5668TIP3    H138495   5.855   0.734   2.148  2.4857 -2.1481 -0.6648
 5668TIP3    H238496   5.928   0.791   2.267  0.1949 -0.0812 -0.1737
 5669TIP3   OH238497   0.919   6.322  11.880  0.6546  0.3755  0.2486
 5669TIP3    H138498   0.985   6.345  11.815 -0.1688 -1.0491 -1.1732
 5669TIP3    H238499   0.839   6.365  11.850  0.4485  0.3687  0.7742
 5670TIP3   OH238500   4.582   2.570   4.067 -0.5167  0.1687 -0.1886
 5670TIP3    H138501   4.546   2.585   3.979 -0.1687  2.2829 -0.0237
 5670TIP3    H238502   4.662   2.520   4.052  0.6892  2.3215 -1.3234
 5671TIP3   OH238503   2.483   5.223   1.241 -0.1409  0.3083 -0.0011
 5671TIP3    H138504   2.460   5.138   1.279 -0.2075 -0.0831 -0.8914
 5671TIP3    H238505   2.578   5.228   1.253 -0.0409 -0.1946 -0.5384
 5672TIP3   OH238506   4.409   0.128   4.946  0.0550  0.0419 -0.2816
 5672TIP3    H138507   4.503   0.126   4.964  0.0342  0.5763 -0.1013
 5672TIP3    H238508   4.372   0.179   5.018 -0.4026 -0.3634 -0.2264
 5673TIP3   OH238509   5.476   1.111   1.723  0.0004 -0.9432 -0.3532
 5673TIP3    H138510   5.524   1.108   1.805 -0.3272  1.9765  0.0392
 5673TIP3    H238511   5.417   1.036   1.727  1.2463 -1.9036  1.2226
 5674TIP3   OH238512   0.300   6.485  12.290 -0.2397 -0.1823  0.0401
 5674TIP3    H138513   0.368   6.418  12.297 -0.1144  0.0082  0.7178
 5674TIP3    H238514   0.346   6.567  12.309 -0.4798  0.0496 -0.3745
 5675TIP3   OH238515   2.011   4.637  13.701 -0.3216  0.3032  0.3540
 5675TIP3    H138516   2.097   4.653  13.663 -0.3825 -0.0397  0.0700
 5675TIP3    H238517   2.029   4.611  13.791 -0.1412  0.4783  0.3686
 5676TIP3   OH238518   6.815   3.468   1.750  0.2920 -0.0423  0.2847
 5676TIP3    H138519   6.879   3.400   1.728  0.2449  0.0736 -0.2311
 5676TIP3    H238520   6.849   3.508   1.829 -0.1123 -1.2264  1.0919
 5677TIP3   OH238521   6.180   5.138  15.078 -0.3103 -0.1871  0.0247
 5677TIP3    H138522   6.212   5.058  15.036 -0.4732 -0.3161  0.1478
 5677TIP3    H238523   6.140   5.187  15.006 -0.6868 -0.4579  0.0426
 5678TIP3   OH238524   3.516   1.665   5.162 -0.2312  0.0707 -0.0275
 5678TIP3    H138525   3.610   1.680   5.155 -0.2016  0.3867  1.0208
 5678TIP3    H238526   3.502   1.638   5.253 -0.9158 -1.7109 -0.6014
 5679TIP3   OH238527   2.084   3.112   2.693  0.0980 -0.0215 -0.1264
 5679TIP3    H138528   2.016   3.056   2.654  1.0252 -0.4540 -1.1936
 5679TIP3    H238529   2.049   3.201   2.685 -1.6061 -0.4146  2.0223
 5680TIP3   OH238530   5.443   1.762   3.764  0.0267  0.0857  0.3900
 5680TIP3    H138531   5.460   1.802   3.850 -1.2245 -0.2869  0.8308
 5680TIP3    H238532   5.520   1.786   3.711  2.1470 -1.8695  2.3503
 5681TIP3   OH238533   6.636   0.881   1.620  0.0062 -0.2841 -0.1412
 5681TIP3    H138534   6.692   0.885   1.697 -0.2275  1.2810 -0.0166
 5681TIP3    H238535   6.675   0.813   1.565  0.7133 -0.7666  0.9301
 5682TIP3   OH238536   2.243   5.819  11.811  0.7735  0.3481  0.1672
 5682TIP3    H138537   2.220   5.727  11.801 -3.3965  1.1972  0.3645
 5682TIP3    H238538   2.212   5.842  11.899 -0.1801  2.3869 -0.6404
 5683TIP3   OH238539   2.757   3.929  16.221  0.2248 -0.3672  0.4580
 5683TIP3    H138540   2.744   3.842  16.183  1.2359 -1.5957  2.6974
 5683TIP3    H238541   2.675   3.975  16.204 -0.9996 -2.3459  0.6334
 5684TIP3   OH238542   0.264   0.942   4.894  0.7265  0.2271 -0.3106
 5684TIP3    H138543   0.201   1.007   4.860  0.7606  0.8465  0.7662
 5684TIP3    H238544   0.328   0.994   4.943  0.3737 -0.6604  1.1542
 5685TIP3   OH238545   2.851   0.314  10.738  0.8473  0.1860  0.2007
 5685TIP3    H138546   2.882   0.403  10.721  1.0733  0.2841  1.1203
 5685TIP3    H238547   2.913   0.258  10.692  0.4395  0.4994 -0.7813
 5686TIP3   OH238548   6.897   1.859  16.461  0.2349  0.1177 -0.1015
 5686TIP3    H138549   6.909   1.926  16.393  1.2689  0.8377  0.7529
 5686TIP3    H238550   6.864   1.782  16.414  0.2366  0.8274 -1.2962
 5687TIP3   OH238551   1.642   2.028  14.851 -0.1135 -0.2745  0.1330
 5687TIP3    H138552   1.659   1.939  14.881 -0.1708 -0.1253  0.6165
 5687TIP3    H238553   1.662   2.026  14.758 -2.0353 -1.3083 -0.3139
 5688TIP3   OH238554   4.952   4.742   2.115 -0.4579  0.4836  0.2296
 5688TIP3    H138555   4.912   4.674   2.171 -0.9703 -0.2364 -0.9742
 5688TIP3    H238556   4.957   4.819   2.172 -1.1377 -0.1666  1.2182
 5689TIP3   OH238557   2.089   6.481   1.086 -0.9347  0.0375  0.5285
 5689TIP3    H138558   2.102   6.534   1.165  4.0015 -0.8622  0.6389
 5689TIP3    H238559   2.095   6.544   1.014  4.2273  0.1082  0.6884
 5690TIP3   OH238560   1.461   6.483  16.811 -0.4367 -0.0326 -0.0213
 5690TIP3    H138561   1.385   6.505  16.757  0.0949 -1.2433 -1.3147
 5690TIP3    H238562   1.424   6.436  16.886 -1.0325  0.2606 -0.1224
 5691TIP3   OH238563   0.961   6.753  13.592  0.0650 -0.2641  0.4156
 5691TIP3    H138564   0.958   6.847  13.608 -0.6792 -0.2370  0.1598
 5691TIP3    H238565   0.876   6.721  13.625 -0.6635 -0.4999 -1.5784
 5692TIP3   OH238566   2.562   6.837  12.358 -0.6261 -0.4183 -0.3892
 5692TIP3    H138567   2.576   6.930  12.372 -0.9760 -0.4022 -0.1037
 5692TIP3    H238568   2.602   6.818  12.274  0.3644 -0.2260  0.0229
 5693TIP3   OH238569   0.861   0.151   3.978 -0.3398 -0.2102 -0.0464
 5693TIP3    H138570   0.781   0.098   3.977 -1.1230  0.9409  0.1760
 5693TIP3    H238571   0.932   0.086   3.981 -1.2858 -1.2605  1.4837
 5694TIP3   OH238572   0.369   3.924   3.434 -0.2426  0.2549 -0.2291
 5694TIP3    H138573   0.318   3.973   3.498 -1.5978 -0.2417 -0.8814
 5694TIP3    H238574   0.359   3.832   3.461  2.3841  0.2499  1.0719
 5695TIP3   OH238575   6.109   1.195  12.656  0.0130 -0.0597  0.3172
 5695TIP3    H138576   6.080   1.104  12.649 -0.9058  0.2839 -0.5918
 5695TIP3    H238577   6.038   1.240  12.701  0.9055  0.0393  1.7021
 5696TIP3   OH238578   0.130   1.691   2.634 -0.0496 -0.2252  0.6751
 5696TIP3    H138579   0.111   1.784   2.641  1.3699  0.0959  0.4597
 5696TIP3    H238580   0.095   1.666   2.549  0.4914  0.3522  0.2755
 5697TIP3   OH238581   6.373   4.319  16.080  0.5643  0.1420 -0.3254
 5697TIP3    H138582   6.284   4.352  16.067  0.7580  0.2203 -1.5832
 5697TIP3    H238583   6.377   4.298  16.174 -1.9688 -3.1796 -0.7572
 5698TIP3   OH238584   5.301   6.789  10.695 -0.3645 -0.3533 -0.4907
 5698TIP3    H138585   5.283   6.823  10.783  2.0225 -0.8106  0.2737
 5698TIP3    H238586   5.390   6.821  10.675  0.0117 -2.0678 -1.7869
 5699TIP3   OH238587   4.276   6.843  13.324 -0.0490  0.3382 -0.0970
 5699TIP3    H138588   4.284   6.909  13.255  1.2367 -1.0417 -1.3454
 5699TIP3    H238589   4.216   6.778  13.288 -0.0271  0.0144  0.4413
 5700TIP3   OH238590   1.940   4.595  10.290  0.4385 -0.0263  0.6566
 5700TIP3    H138591   1.850   4.563  10.302  0.3545  0.5636  1.7016
 5700TIP3    H238592   1.995   4.520  10.310  0.2007 -0.0712  1.1498
 5701TIP3   OH238593   0.901   5.855   4.226  0.0563 -0.0040  0.2536
 5701TIP3    H138594   0.971   5.915   4.200  0.5593 -0.9385 -0.6267
 5701TIP3    H238595   0.854   5.836   4.144 -0.5280 -0.2717  0.6402
 5702TIP3   OH238596   4.536   1.731   4.167  0.2043 -0.0998 -0.2401
 5702TIP3    H138597   4.563   1.763   4.081  1.6671  1.4095  0.7078
 5702TIP3    H238598   4.441   1.742   4.169  0.1958  0.1940 -1.4965
 5703TIP3   OH238599   0.242   1.281   0.015 -0.0284 -0.6202 -0.4314
 5703TIP3    H138600   0.247   1.213   0.083 -0.8993  0.6937  0.9935
 5703TIP3    H238601   0.334   1.301  -0.005  0.2348 -1.4133 -0.0562
 5704TIP3   OH238602   3.417   5.294  11.102  0.0974  0.2889 -0.1148
 5704TIP3    H138603   3.466   5.317  11.024 -0.6937 -1.7730 -1.2974
 5704TIP3    H238604   3.473   5.232  11.149  0.0340  0.5457  0.3139
 5705TIP3   OH238605   4.153   2.231   0.023  0.0667 -0.0759  0.6699
 5705TIP3    H138606   4.192   2.150   0.055 -0.6824  0.0864  2.0641
 5705TIP3    H238607   4.098   2.262   0.095 -2.5071 -0.1838 -1.1022
 5706TIP3   OH238608   5.077   3.389  13.435 -0.0752 -0.3091 -0.2931
 5706TIP3    H138609   5.152   3.443  13.458 -0.0929 -0.1105 -0.6937
 5706TIP3    H238610   5.049   3.350  13.518  0.4554 -0.3676 -0.1394
 5707TIP3   OH238611   0.251   4.074  13.038 -0.0750  0.0159 -0.1526
 5707TIP3    H138612   0.247   3.984  13.071  0.7040  0.8416  2.3669
 5707TIP3    H238613   0.184   4.076  12.969 -2.6056 -1.5866  2.0669
 5708TIP3   OH238614   1.954   1.568   1.142 -0.5758 -0.4023 -0.5317
 5708TIP3    H138615   2.039   1.530   1.162 -1.3109 -0.9623  1.8866
 5708TIP3    H238616   1.901   1.552   1.221 -2.5210  1.0679 -1.4406
 5709TIP3   OH238617   5.313   1.823  16.534  0.0235 -0.0922  0.3071
 5709TIP3    H138618   5.311   1.916  16.558  0.9374 -0.4026  1.7332
 5709TIP3    H238619   5.220   1.798  16.528 -0.2581  0.4691  1.8675
 5710TIP3   OH238620   4.900   5.437   0.874 -0.0167  0.2223 -0.0524
 5710TIP3    H138621   4.897   5.402   0.963 -0.4034 -0.2351 -0.2374
 5710TIP3    H238622   4.991   5.428   0.848  0.1510  0.6034  0.3918
 5711TIP3   OH238623   0.144   3.886  13.963 -0.0740  0.4002 -0.2034
 5711TIP3    H138624   0.219   3.856  14.016  0.7134  0.4934 -1.2342
 5711TIP3    H238625   0.073   3.895  14.026 -0.0205 -2.3828  0.4000
 5712TIP3   OH238626   0.266   2.567  10.822  0.5191  0.2810  0.3847
 5712TIP3    H138627   0.194   2.534  10.768  0.5883  0.4229  0.2045
 5712TIP3    H238628   0.332   2.596  10.759  1.5661 -1.6065  0.5137
 5713TIP3   OH238629   4.587   2.180  13.917 -0.6618  0.5965  0.3778
 5713TIP3    H138630   4.641   2.172  13.995 -1.5097 -1.5713  0.8085
 5713TIP3    H238631   4.647   2.208  13.848  1.6103 -3.4641  0.3770
 5714TIP3   OH238632   2.493   0.482   2.670  0.0108  0.3457  0.5462
 5714TIP3    H138633   2.549   0.528   2.606 -0.4983  1.2984  0.7624
 5714TIP3    H238634   2.415   0.457   2.620  1.6398 -3.4032 -0.4799
 5715TIP3   OH238635   0.858   4.641   2.522  0.2024  0.0862  0.0894
 5715TIP3    H138636   0.830   4.553   2.549  1.1494 -0.1068  0.4943
 5715TIP3    H238637   0.866   4.690   2.603  0.6309  0.2513 -0.0471
 5716TIP3   OH238638   2.297   4.352  16.663  0.0737  0.1874 -0.6126
 5716TIP3    H138639   2.259   4.440  16.665  0.6220  0.4458 -1.1989
 5716TIP3    H238640   2.310   4.334  16.570 -2.2503 -1.4901 -0.6975
 5717TIP3   OH238641   4.919   1.354  11.531 -0.2090  0.4353  0.3366
 5717TIP3    H138642   4.830   1.357  11.497 -0.1434  2.7478  0.1992
 5717TIP3    H238643   4.911   1.313  11.618 -1.1314 -0.8031 -0.3037
 5718TIP3   OH238644   1.739   0.569   4.825 -0.1276  0.2618  0.8219
 5718TIP3    H138645   1.727   0.535   4.914 -1.8249  0.1929  0.5958
 5718TIP3    H238646   1.753   0.663   4.837  0.6199  0.1110  1.2064
 5719TIP3   OH238647   3.905   4.252  13.841  0.3100 -0.2649  0.1087
 5719TIP3    H138648   3.837   4.300  13.888 -1.0325 -1.8623 -0.0803
 5719TIP3    H238649   3.862   4.171  13.813  2.0759 -0.9671 -0.7617
 5720TIP3   OH238650   2.020   2.989   5.159  0.1302 -0.0783  0.5367
 5720TIP3    H138651   1.963   3.010   5.085 -0.8288  0.0525  1.2908
 5720TIP3    H238652   2.108   2.988   5.122  0.0470  3.0513 -0.0410
 5721TIP3   OH238653   6.874   5.845  16.820  0.5095  0.2570 -0.1042
 5721TIP3    H138654   6.812   5.836  16.747  1.1138 -2.0220 -0.4116
 5721TIP3    H238655   6.819   5.847  16.898 -0.0308 -1.3629 -0.3985
 5722TIP3   OH238656   0.601   2.977   4.975 -0.0554 -0.0975 -0.3669
 5722TIP3    H138657   0.520   2.944   4.937 -0.3910 -0.9627  1.0403
 5722TIP3    H238658   0.641   3.028   4.905 -0.7345 -1.4609 -1.7966
 5723TIP3   OH238659   1.788   6.121   4.763  0.3865 -0.2862  0.8887
 5723TIP3    H138660   1.797   6.035   4.804 -0.6071 -0.5179  0.6621
 5723TIP3    H238661   1.718   6.164   4.813  0.3817  0.1098  0.5470
 5724TIP3   OH238662   3.130   5.013   4.418 -0.0037 -0.1553  0.1864
 5724TIP3    H138663   3.065   4.988   4.353  1.1273 -0.9241 -0.6796
 5724TIP3    H238664   3.157   5.102   4.393  0.7654 -0.6238 -0.6965
 5725TIP3   OH238665   0.165   6.794   3.076  0.3616  0.3023 -0.0897
 5725TIP3    H138666   0.254   6.787   3.043  0.5786 -2.0996  0.8232
 5725TIP3    H238667   0.174   6.786   3.171 -0.9798 -2.9158 -0.1338
 5726TIP3   OH238668   1.355   4.683  13.742 -0.4889 -0.5699  0.1086
 5726TIP3    H138669   1.326   4.746  13.676 -0.8408  0.1236  0.9135
 5726TIP3    H238670   1.445   4.662  13.717 -0.1781  0.6654  0.1342
 5727TIP3   OH238671   5.769   5.823  12.753  0.4102  0.1140  0.0898
 5727TIP3    H138672   5.712   5.898  12.770  0.8929  0.6793 -0.7669
 5727TIP3    H238673   5.708   5.750  12.742 -0.1240  0.5776 -0.1088
 5728TIP3   OH238674   5.464   3.562  14.463 -0.1193 -0.3664 -1.0843
 5728TIP3    H138675   5.401   3.503  14.504  0.4927  0.0210  0.4869
 5728TIP3    H238676   5.550   3.529  14.490  0.2754  0.4982 -1.2331
 5729TIP3   OH238677   1.571   1.803  12.981 -0.0257  0.1486  0.4945
 5729TIP3    H138678   1.548   1.891  13.010 -0.2427 -0.2453  1.5633
 5729TIP3    H238679   1.516   1.745  13.034  0.0640 -0.6324 -0.2415
 5730TIP3   OH238680   2.484   2.903   4.438 -0.3466 -0.1102  0.1344
 5730TIP3    H138681   2.572   2.882   4.469  0.2440  0.5718 -1.0532
 5730TIP3    H238682   2.435   2.821   4.450  0.9822 -1.1282 -1.0772
 5731TIP3   OH238683   0.930   2.888  10.289 -0.4407  0.4837  0.1568
 5731TIP3    H138684   0.848   2.840  10.302  1.0463 -2.5790 -0.7737
 5731TIP3    H238685   0.913   2.944  10.213 -2.0205  0.8520  0.7437
 5732TIP3   OH238686   3.023   1.102  11.082  0.1311  0.4962 -0.0543
 5732TIP3    H138687   3.028   1.147  10.997  0.4454 -0.9453 -0.8345
 5732TIP3    H238688   2.933   1.071  11.087  0.5151 -0.7841 -0.6229
 5733TIP3   OH238689   1.722   5.447  10.309  0.4761 -0.5559  0.3893
 5733TIP3    H138690   1.750   5.408  10.226  1.1974  0.9470 -0.1266
 5733TIP3    H238691   1.790   5.420  10.371 -0.1289 -1.7848  0.5379
 5734TIP3   OH238692   5.555   0.763  11.018 -0.3543 -0.0834 -0.2178
 5734TIP3    H138693   5.541   0.761  10.923 -1.7769 -1.3816 -0.0159
 5734TIP3    H238694   5.647   0.742  11.029 -0.4583 -1.1945 -1.2840
 5735TIP3   OH238695   0.243   4.512  16.641  0.1917  0.2397 -0.5088
 5735TIP3    H138696   0.308   4.561  16.590  1.2550  2.4065  2.6193
 5735TIP3    H238697   0.251   4.547  16.730 -1.4229 -3.3444  1.2578
 5736TIP3   OH238698   4.939   4.239  14.300 -0.0448  0.0906 -0.6866
 5736TIP3    H138699   4.882   4.163  14.310  0.7627 -0.4500 -0.0375
 5736TIP3    H238700   5.027   4.206  14.320  0.2353  1.3273  0.2871
 5737TIP3   OH238701   2.167   4.281  15.199 -0.3672 -0.6318  0.4352
 5737TIP3    H138702   2.106   4.326  15.140 -1.0375  1.1842  2.3837
 5737TIP3    H238703   2.254   4.306  15.168 -0.7181  1.4809  0.9942
 5738TIP3   OH238704   2.238   2.425  15.074 -0.3979 -0.5667 -0.7911
 5738TIP3    H138705   2.235   2.498  15.012 -0.6462  0.4740  0.4043
 5738TIP3    H238706   2.252   2.347  15.019  2.4772  0.5968 -1.9226
 5739TIP3   OH238707   6.021   5.261  16.244  0.4050  0.0477  0.3021
 5739TIP3    H138708   5.985   5.190  16.191 -0.9490 -0.2257  1.5197
 5739TIP3    H238709   5.982   5.340  16.206  0.1289 -0.0704  0.3339
 5740TIP3   OH238710   6.782   6.353   2.987 -0.5747 -0.0897  0.0573
 5740TIP3    H138711   6.838   6.424   2.957 -1.1436  0.6811  0.7536
 5740TIP3    H238712   6.720   6.339   2.916  1.6114 -2.2878 -1.5820
 5741TIP3   OH238713   3.592   4.895  14.175  0.1560 -0.4306  0.9080
 5741TIP3    H138714   3.630   4.808  14.163  0.9352 -0.0896  0.8284
 5741TIP3    H238715   3.608   4.940  14.092 -0.8670 -0.4354  0.6969
 5742TIP3   OH238716   1.004   1.612   4.339 -0.6074  0.1326 -0.8104
 5742TIP3    H138717   1.064   1.571   4.401 -2.7743 -0.0785  1.3252
 5742TIP3    H238718   0.967   1.538   4.290 -2.0549 -0.2436  0.7362
 5743TIP3   OH238719   2.021   0.127  12.525 -0.1896 -0.3821 -0.1197
 5743TIP3    H138720   2.055   0.038  12.536  1.3365  0.2225  0.3881
 5743TIP3    H238721   2.076   0.180  12.582 -2.5864  0.5916  1.4025
 5744TIP3   OH238722   2.968   5.287   0.443  0.2295 -0.1355 -0.1275
 5744TIP3    H138723   3.032   5.243   0.500 -1.1641  0.5125  2.0502
 5744TIP3    H238724   3.003   5.375   0.432  4.0265 -1.7764 -6.0337
 5745TIP3   OH238725   2.400   5.099  15.065 -0.3871 -0.1817  0.9360
 5745TIP3    H138726   2.350   5.019  15.049 -0.1336  0.1122 -1.7458
 5745TIP3    H238727   2.346   5.169  15.028  0.6476  0.5283  0.7425
 5746TIP3   OH238728   6.426   0.988   5.826  0.0649 -0.4587  0.0720
 5746TIP3    H138729   6.387   1.075   5.833 -0.1083 -0.5276 -0.0165
 5746TIP3    H238730   6.360   0.929   5.864 -0.6836 -0.7875 -1.6588
 5747TIP3   OH238731   0.809   3.759  12.788  0.2086 -0.5091  0.3823
 5747TIP3    H138732   0.900   3.750  12.818 -0.0908 -1.3990  1.0877
 5747TIP3    H238733   0.799   3.852  12.768  1.4400 -0.5034 -0.2710
 5748TIP3   OH238734   6.701   6.084   3.531 -0.3285 -0.1459  0.4114
 5748TIP3    H138735   6.671   6.021   3.596 -1.0573  0.6733  0.9012
 5748TIP3    H238736   6.787   6.053   3.504 -1.3124 -2.2631 -0.5790
 5749TIP3   OH238737   5.495   5.096  12.762 -0.0898 -0.0828  0.0840
 5749TIP3    H138738   5.415   5.086  12.711  0.5817 -1.3656 -0.7643
 5749TIP3    H238739   5.527   5.183  12.741 -0.7014  0.0294 -0.3909
 5750TIP3   OH238740   3.928   5.459  14.922  0.6189 -0.1323 -0.1108
 5750TIP3    H138741   3.996   5.519  14.953  0.2191 -0.4496  1.4898
 5750TIP3    H238742   3.861   5.515  14.885  0.1990  0.4632  1.4717
 5751TIP3   OH238743   0.322   2.513   5.068  0.4142 -0.5133  0.1969
 5751TIP3    H138744   0.351   2.586   5.123  0.2046 -0.5407  0.3442
 5751TIP3    H238745   0.275   2.555   4.996 -0.6842 -0.5515  0.8706
 5752TIP3   OH238746   6.511   6.243   1.793  0.1621  0.2139  0.6342
 5752TIP3    H138747   6.437   6.189   1.821  1.2328 -1.7517 -0.1236
 5752TIP3    H238748   6.494   6.261   1.701  2.1208 -3.0965 -0.5210
 5753TIP3   OH238749   6.243   4.418  13.674 -0.0939 -0.2841 -0.3882
 5753TIP3    H138750   6.293   4.405  13.755 -1.5835  1.1856  0.8388
 5753TIP3    H238751   6.152   4.423  13.703 -0.7153 -0.2434 -2.2397
 5754TIP3   OH238752   2.281   6.361   1.809 -0.2975  0.1735  0.0649
 5754TIP3    H138753   2.200   6.408   1.831 -0.5884 -0.0409 -0.5488
 5754TIP3    H238754   2.262   6.317   1.727  0.1838 -0.5231  0.3200
 5755TIP3   OH238755   4.094   2.837   3.649 -0.1120 -0.3647  0.3307
 5755TIP3    H138756   4.092   2.882   3.734 -0.8072 -0.6659  0.4844
 5755TIP3    H238757   4.111   2.907   3.585 -0.5911  0.0314  0.6265
 5756TIP3   OH238758   1.630   3.589   5.477 -0.8047 -0.2064  0.1749
 5756TIP3    H138759   1.660   3.555   5.561  1.1113  0.4496 -0.1836
 5756TIP3    H238760   1.566   3.657   5.499 -0.1116  0.1549  1.1144
 5757TIP3   OH238761   6.691   0.610  13.381  0.0492 -0.1012 -0.1283
 5757TIP3    H138762   6.776   0.625  13.422 -0.2213  1.5877 -0.1024
 5757TIP3    H238763   6.633   0.585  13.453  0.4501 -1.0091 -0.1087
 5758TIP3   OH238764   2.957   4.166   1.195  0.4732  0.3495 -0.0045
 5758TIP3    H138765   2.958   4.189   1.288  2.4911  3.0757 -0.5724
 5758TIP3    H238766   2.894   4.225   1.156  1.1875  0.6970 -0.6525
 5759TIP3   OH238767   3.274   2.670   4.375  0.1863 -0.2786 -0.3465
 5759TIP3    H138768   3.285   2.582   4.411 -0.9178 -0.2175  0.1812
 5759TIP3    H238769   3.304   2.729   4.444 -0.5059 -0.2063 -0.0997
 5760TIP3   OH238770   3.404   1.313   3.187 -0.0003 -0.4534  0.2023
 5760TIP3    H138771   3.414   1.226   3.227 -3.2088 -1.3450 -0.6552
 5760TIP3    H238772   3.487   1.329   3.143  0.7873 -2.9948  0.6093
 5761TIP3   OH238773   3.573   1.787   2.591 -0.3168 -0.2297 -0.1497
 5761TIP3    H138774   3.643   1.725   2.572  1.1480  0.6405  2.0973
 5761TIP3    H238775   3.601   1.869   2.551  0.3183  0.2947  1.3204
 5762TIP3   OH238776   0.826   3.400  10.957 -0.1652 -0.3374 -0.2975
 5762TIP3    H138777   0.770   3.475  10.939 -2.3972 -1.6759  0.5092
 5762TIP3    H238778   0.877   3.425  11.034 -3.3763 -0.7057  2.1562
 5763TIP3   OH238779   2.611   0.717  16.652 -0.2132  0.0454  0.1000
 5763TIP3    H138780   2.643   0.634  16.618  0.4306  0.8003 -1.1777
 5763TIP3    H238781   2.674   0.782  16.622 -2.9435  1.6312 -2.7314
 5764TIP3   OH238782   0.862   1.250  12.416  0.1994 -0.4737  0.3508
 5764TIP3    H138783   0.923   1.317  12.447 -1.9306  2.8479 -1.9328
 5764TIP3    H238784   0.803   1.235  12.490  0.1511  0.9548  0.6288
 5765TIP3   OH238785   0.263   3.897  10.497 -0.1012 -0.0553 -0.5046
 5765TIP3    H138786   0.208   3.961  10.451  0.2677  0.3092 -0.4444
 5765TIP3    H238787   0.200   3.842  10.544 -0.3952  0.9629  0.3526
 5766TIP3   OH238788   6.289   3.177  12.305 -0.5518 -0.1640  0.2829
 5766TIP3    H138789   6.243   3.120  12.367 -0.8746 -0.6745 -0.4070
 5766TIP3    H238790   6.255   3.151  12.219  0.9759 -0.4999 -0.2444
 5767TIP3   OH238791   6.876   5.524  13.785 -0.0839  0.1379 -0.6886
 5767TIP3    H138792   6.848   5.464  13.716 -1.0856 -1.1865  0.7706
 5767TIP3    H238793   6.866   5.473  13.866  2.7122  0.9974  0.3201
 5768TIP3   OH238794   1.946   1.595   4.512 -0.6064  0.0845 -0.5643
 5768TIP3    H138795   2.001   1.586   4.590 -0.9287  2.2701 -0.0309
 5768TIP3    H238796   1.950   1.688   4.490 -1.1364 -0.3501 -2.7308
 5769TIP3   OH238797   4.211   1.522  14.544 -0.1125  0.2674 -0.1480
 5769TIP3    H138798   4.253   1.529  14.630 -1.9634  0.1161  0.8231
 5769TIP3    H238799   4.282   1.499  14.484  1.7211  2.9080  0.8537
 5770TIP3   OH238800   0.234   1.181  15.356 -0.3270 -0.3320 -0.4950
 5770TIP3    H138801   0.261   1.212  15.443 -2.4654 -2.0119  0.8785
 5770TIP3    H238802   0.145   1.214  15.345 -0.9703 -2.0799 -0.9543
 5771TIP3   OH238803   6.637   5.642  11.552  0.0543 -0.4126 -0.6194
 5771TIP3    H138804   6.599   5.562  11.516  2.0192 -0.9927 -1.5417
 5771TIP3    H238805   6.638   5.627  11.647  0.7123 -1.6619 -0.7990
 5772TIP3   OH238806   0.670   0.696  14.794  0.2046 -0.0106  0.1326
 5772TIP3    H138807   0.657   0.791  14.787 -0.9740 -0.1111  0.7005
 5772TIP3    H238808   0.744   0.686  14.853  0.8851  0.5626 -0.5967
 5773TIP3   OH238809   5.396   0.054  12.716  0.5829 -0.5703 -0.4724
 5773TIP3    H138810   5.456   0.017  12.651 -0.8706 -2.0780 -1.0210
 5773TIP3    H238811   5.383  -0.017  12.780  0.3680  0.1730  0.3280
 5774TIP3   OH238812   0.495   6.425   0.210  0.3958 -0.2516 -0.0334
 5774TIP3    H138813   0.440   6.351   0.186 -1.5100  0.2817  2.2738
 5774TIP3    H238814   0.550   6.392   0.282  0.0404  0.3489  0.5285
 5775TIP3   OH238815   3.002   2.255   3.258  0.1189  0.1665 -0.4831
 5775TIP3    H138816   3.076   2.242   3.199  0.1935 -1.6356 -0.0540
 5775TIP3    H238817   3.027   2.209   3.338 -0.3398  1.8585  0.6678
 5776TIP3   OH238818   4.039   2.766  16.506  0.3520  0.0338 -0.6660
 5776TIP3    H138819   4.090   2.775  16.587  1.9873  0.6943 -1.7274
 5776TIP3    H238820   4.015   2.673  16.504 -1.3741  0.3447  1.4914
 5777TIP3   OH238821   3.065   0.509   4.985  0.2335 -0.2654  0.2989
 5777TIP3    H138822   3.127   0.571   4.946 -0.2367 -0.4307 -0.7656
 5777TIP3    H238823   3.100   0.491   5.072  1.6357 -0.2840 -0.2339
 5778TIP3   OH238824   4.149   3.196   5.132  0.3128 -0.1593  0.0763
 5778TIP3    H138825   4.060   3.164   5.119  0.0443  1.2383 -2.2312
 5778TIP3    H238826   4.155   3.215   5.226 -1.9518  0.0219  0.2356
 5779TIP3   OH238827   2.759   4.439  10.089  0.4771  0.2059 -0.0433
 5779TIP3    H138828   2.757   4.391  10.171  0.4886  0.6685  0.2352
 5779TIP3    H238829   2.797   4.524  10.112  2.5447 -0.4302 -0.9383
 5780TIP3   OH238830   6.184   5.121  15.912  0.6453 -0.3019  0.1330
 5780TIP3    H138831   6.269   5.082  15.890  0.3824 -0.3422 -0.8834
 5780TIP3    H238832   6.194   5.213  15.889  0.1488 -0.4746 -0.8403
 5781TIP3   OH238833   2.276   0.898  11.077  0.1347 -0.5762 -0.5785
 5781TIP3    H138834   2.354   0.920  11.127 -0.5172  1.8876 -0.5046
 5781TIP3    H238835   2.233   0.829  11.128  1.0735 -0.3131  0.5996
 5782TIP3   OH238836   3.917   0.600   2.435 -0.2029  0.7571 -0.1410
 5782TIP3    H138837   3.834   0.603   2.388 -0.3891 -0.0812  0.1256
 5782TIP3    H238838   3.909   0.526   2.495  1.4162 -0.5094 -1.3942
 5783TIP3   OH238839   2.879   0.871   1.626  0.0346  0.2668 -0.5680
 5783TIP3    H138840   2.911   0.843   1.540  0.1698 -1.1218 -0.0874
 5783TIP3    H238841   2.807   0.931   1.607  1.8562  2.2754 -1.6728
 5784TIP3   OH238842   1.340   0.826   3.037 -0.2172 -0.3263  0.2121
 5784TIP3    H138843   1.279   0.757   3.012  0.0475 -0.9391  1.1701
 5784TIP3    H238844   1.389   0.789   3.111 -1.0945  1.4407  1.7635
 5785TIP3   OH238845   3.931   3.318  13.786  0.6329 -0.0004  0.0194
 5785TIP3    H138846   3.956   3.410  13.801  0.7795  0.0554 -0.5346
 5785TIP3    H238847   3.987   3.290  13.714  0.7102 -0.5818  0.3044
 5786TIP3   OH238848   2.551   1.005  12.898  0.2300  0.5131  0.0005
 5786TIP3    H138849   2.497   0.949  12.841 -0.6137  1.5683 -0.2737
 5786TIP3    H238850   2.499   1.085  12.908  0.4701  0.4595  2.0622
 5787TIP3   OH238851   6.056   5.904   4.635  0.0781  0.2058 -0.0342
 5787TIP3    H138852   5.986   5.844   4.660 -0.1094 -0.0474 -1.1133
 5787TIP3    H238853   6.128   5.883   4.694  0.7089 -2.4423 -1.5565
 5788TIP3   OH238854   1.135   6.401   1.606  0.3624 -0.1316  0.2778
 5788TIP3    H138855   1.054   6.412   1.656  1.6512  3.1190  1.9966
 5788TIP3    H238856   1.136   6.476   1.546  2.2226  0.1796  0.6168
 5789TIP3   OH238857   4.634   6.276   0.982  0.2164 -0.0811 -0.2349
 5789TIP3    H138858   4.719   6.235   0.966  0.6431  0.3920  0.7076
 5789TIP3    H238859   4.585   6.262   0.901  0.8324 -1.2348 -0.4381
 5790TIP3   OH238860   2.658   3.324  13.792  0.1884  0.5188  0.3439
 5790TIP3    H138861   2.733   3.296  13.740 -0.8740 -0.6695 -0.6220
 5790TIP3    H238862   2.630   3.406  13.752 -0.4393 -0.2340 -0.8066
 5791TIP3   OH238863   1.996   4.736   2.342  0.2925 -0.3713  0.3447
 5791TIP3    H138864   2.038   4.769   2.263  0.4490  0.5631  0.8030
 5791TIP3    H238865   2.046   4.775   2.414 -1.2909  0.7108  0.9070
 5792TIP3   OH238866   1.289   0.619   2.405  0.5899  0.1158 -0.1968
 5792TIP3    H138867   1.298   0.540   2.352 -1.5642 -0.4263  0.1710
 5792TIP3    H238868   1.278   0.587   2.495  1.4250  0.9190  0.2111
 5793TIP3   OH238869   2.919   2.391   3.946  0.1288 -0.8386 -0.5879
 5793TIP3    H138870   2.884   2.473   3.910  3.6562  0.6247 -1.1038
 5793TIP3    H238871   2.929   2.334   3.869  0.7061 -0.4852 -0.7869
 5794TIP3   OH238872   2.853   3.244   1.055  0.3271 -0.1311  0.1934
 5794TIP3    H138873   2.863   3.339   1.053 -1.3777  0.0683 -1.3545
 5794TIP3    H238874   2.790   3.228   1.125  2.0320 -0.3476  1.7613
 5795TIP3   OH238875   5.485   4.517  16.758  0.0541 -0.5724 -0.0076
 5795TIP3    H138876   5.542   4.576  16.807 -1.2545  0.8539 -0.1410
 5795TIP3    H238877   5.437   4.469  16.825  0.3099 -0.6785  0.0998
 5796TIP3   OH238878   3.012   1.881  11.756  0.7241  0.4265  0.1303
 5796TIP3    H138879   3.003   1.899  11.850  1.5321  0.2625  0.2495
 5796TIP3    H238880   3.106   1.880  11.741  0.6323 -0.4617 -0.5026
 5797TIP3   OH238881   0.061   3.749  10.605 -0.2982 -0.0937  0.5798
 5797TIP3    H138882   0.017   3.794  10.532  0.4105  0.2641  0.3573
 5797TIP3    H238883  -0.002   3.753  10.677 -0.8027  0.0163  0.1458
 5798TIP3   OH238884   3.199   0.483  14.616  0.3680 -0.1116  0.4033
 5798TIP3    H138885   3.254   0.417  14.573 -1.1465 -0.4941 -1.0119
 5798TIP3    H238886   3.186   0.551  14.550  2.2294  1.9030  1.9532
 5799TIP3   OH238887   3.941   1.519  14.477  0.2308 -0.1888  0.2203
 5799TIP3    H138888   4.036   1.528  14.472  0.0826  1.2324 -0.7223
 5799TIP3    H238889   3.927   1.445  14.537  1.9216 -1.1181 -0.4624
 5800TIP3   OH238890   3.583   3.131   1.849  0.0086 -0.2412  0.5275
 5800TIP3    H138891   3.677   3.110   1.845  0.3922  1.4338 -0.3921
 5800TIP3    H238892   3.561   3.125   1.942  1.7978  2.2511  1.2041
 5801TIP3   OH238893   1.719   2.483   0.450  0.3866  0.2137 -0.1592
 5801TIP3    H138894   1.773   2.404   0.441  1.2115  0.8228 -0.7712
 5801TIP3    H238895   1.753   2.527   0.527  0.2358  0.2032 -0.0865
 5802TIP3   OH238896   1.060   2.095  13.316 -0.0516 -0.0083 -0.2879
 5802TIP3    H138897   1.030   2.185  13.314  3.0924  1.1960  0.2008
 5802TIP3    H238898   1.068   2.070  13.224 -2.6052 -0.5181 -0.4437
 5803TIP3   OH238899   3.261   0.572   5.190  0.2377  0.1909 -0.2149
 5803TIP3    H138900   3.284   0.665   5.183 -1.0568  0.6957  1.4768
 5803TIP3    H238901   3.277   0.551   5.282 -0.0780 -1.1041 -0.4430
 5804TIP3   OH238902   6.521   4.817  15.743  0.1945 -0.1411 -0.3749
 5804TIP3    H138903   6.480   4.768  15.815 -1.7897  1.9702  0.0496
 5804TIP3    H238904   6.491   4.773  15.664 -0.7003 -0.2473  0.0096
 5805TIP3   OH238905   3.010   1.019   4.191  0.0875  0.1751  0.6936
 5805TIP3    H138906   2.935   1.078   4.186 -0.0534  0.1346  1.9646
 5805TIP3    H238907   2.976   0.935   4.158 -0.4466  0.1399  1.3159
 5806TIP3   OH238908   6.388   1.579  13.585  0.0453 -0.3928 -0.2199
 5806TIP3    H138909   6.436   1.498  13.569 -2.3128 -1.5221 -2.3408
 5806TIP3    H238910   6.393   1.626  13.502 -1.9173 -0.2985 -0.3307
 5807TIP3   OH238911   3.246   4.762   2.054 -0.1371 -0.2570  0.0994
 5807TIP3    H138912   3.262   4.758   1.960 -1.9077  0.8793 -0.2908
 5807TIP3    H238913   3.192   4.840   2.066  0.0655 -0.3709  2.0692
 5808TIP3   OH238914   0.544   1.688  12.120 -0.1958 -0.0274  0.3834
 5808TIP3    H138915   0.613   1.712  12.182 -0.7373  1.4708  0.4618
 5808TIP3    H238916   0.583   1.700  12.034 -0.0491 -0.1705  0.4296
 5809TIP3   OH238917   2.075   0.859  16.260 -0.5409  0.0571  0.3873
 5809TIP3    H138918   2.113   0.920  16.196 -1.7417  0.3425 -0.0878
 5809TIP3    H238919   1.981   0.867  16.246 -0.9375  1.1407  3.1264
 5810TIP3   OH238920   6.556   3.831  12.529 -0.6711  0.8011 -0.6857
 5810TIP3    H138921   6.472   3.876  12.526 -0.6464  0.8369 -0.8657
 5810TIP3    H238922   6.551   3.775  12.606 -2.8422 -3.1035 -3.3176
 5811TIP3   OH238923   4.133   1.608  14.215  0.2910 -0.9915 -0.0284
 5811TIP3    H138924   4.053   1.556  14.200  1.3107 -2.7693  0.3804
 5811TIP3    H238925   4.170   1.621  14.127 -0.8305  0.5393 -0.3042
 5812TIP3   OH238926   1.454   2.832   5.497  0.1385 -0.5451  0.0922
 5812TIP3    H138927   1.479   2.875   5.415 -2.2921  1.4785  0.2816
 5812TIP3    H238928   1.423   2.903   5.552 -1.9678 -2.3075  1.3246
 5813TIP3   OH238929   4.354   5.866  12.572  0.2821  0.1808 -0.0220
 5813TIP3    H138930   4.332   5.813  12.648  0.5502  0.5107  0.2909
 5813TIP3    H238931   4.347   5.806  12.498 -0.0109 -0.1362  0.2567
 5814TIP3   OH238932   1.152   5.279   3.561  0.0436 -0.0445 -0.1085
 5814TIP3    H138933   1.125   5.249   3.648  0.4436 -1.0813 -0.3221
 5814TIP3    H238934   1.202   5.359   3.578 -1.4035  0.7730  0.4538
 5815TIP3   OH238935   0.813   1.568   1.139 -0.0920 -0.4821  0.2200
 5815TIP3    H138936   0.799   1.663   1.139  0.6921 -0.3468 -0.8266
 5815TIP3    H238937   0.747   1.534   1.079 -0.6116 -0.6522  0.8750
 5816TIP3   OH238938   1.091   2.314   3.459  0.7522  0.1082  0.3879
 5816TIP3    H138939   0.999   2.289   3.453  1.1079 -0.9209 -2.2837
 5816TIP3    H238940   1.094   2.378   3.531 -1.9914  0.0941  0.6281
 5817TIP3   OH238941   5.707   5.442  13.219  0.2457 -0.1065 -0.1007
 5817TIP3    H138942   5.611   5.439  13.215  0.0521  2.7649  0.0691
 5817TIP3    H238943   5.729   5.392  13.297 -1.0542 -1.2967 -0.4495
 5818TIP3   OH238944   2.015   6.903   4.240 -0.6330 -0.2309  0.1070
 5818TIP3    H138945   1.952   6.859   4.182 -2.5344  2.2456  0.1427
 5818TIP3    H238946   2.087   6.928   4.182 -0.7652 -0.9870 -0.4113
 5819TIP3   OH238947   4.997   3.962  13.600  0.5919 -0.0908  0.1347
 5819TIP3    H138948   4.964   3.978  13.512  0.5950 -1.7649 -0.2136
 5819TIP3    H238949   4.918   3.960  13.655  0.5206  0.2050  0.0427
 5820TIP3   OH238950   6.305   4.707   2.357  0.3075 -0.2153  0.0362
 5820TIP3    H138951   6.291   4.688   2.264 -1.7593 -1.7469  0.5890
 5820TIP3    H238952   6.221   4.686   2.399  1.9349 -2.2687  2.6202
 5821TIP3   OH238953   4.155   5.946  12.877 -0.0581  0.1873 -0.4278
 5821TIP3    H138954   4.124   6.036  12.882  2.0630  0.9037  1.9535
 5821TIP3    H238955   4.150   5.914  12.967  0.1243 -1.7801 -1.0671
 5822TIP3   OH238956   6.408   3.384   0.733 -0.1135  0.4643  0.2116
 5822TIP3    H138957   6.367   3.298   0.737  0.4631  0.0226 -2.0605
 5822TIP3    H238958   6.502   3.366   0.723 -0.0216  1.3301 -0.6118
 5823TIP3   OH238959   4.795   0.478   5.508  0.5380  0.2289  0.0822
 5823TIP3    H138960   4.798   0.401   5.565  1.2746  1.4527  1.7911
 5823TIP3    H238961   4.739   0.540   5.555 -1.6369  0.1275 -2.1566
 5824TIP3   OH238962   3.585   1.033   1.337  0.1371  0.0699 -0.9599
 5824TIP3    H138963   3.557   1.008   1.425  0.7549 -0.1839 -0.8336
 5824TIP3    H238964   3.525   0.986   1.279 -2.2647  2.5277 -0.7010
 5825TIP3   OH238965   6.010   1.521  10.878 -0.3411  0.0946 -0.1643
 5825TIP3    H138966   5.924   1.492  10.848 -1.3763  2.9887 -0.3198
 5825TIP3    H238967   5.996   1.543  10.971 -0.5510  2.9511 -0.7804
 5826TIP3   OH238968   1.327   5.836   3.893  0.3714 -0.3812  0.3186
 5826TIP3    H138969   1.250   5.779   3.885  0.4154 -0.2402 -1.8397
 5826TIP3    H238970   1.342   5.844   3.987  0.6380 -4.3033  0.7586
 5827TIP3   OH238971   6.206   2.659  11.006 -0.5066  0.4901  0.5735
 5827TIP3    H138972   6.133   2.606  10.975  0.0031  0.3509 -0.4081
 5827TIP3    H238973   6.179   2.690  11.093 -1.6986  0.3959  0.2380
 5828TIP3   OH238974   5.558   4.574  15.521 -0.1620 -0.1628 -0.3672
 5828TIP3    H138975   5.514   4.529  15.593  1.3986  0.4594  1.0468
 5828TIP3    H238976   5.506   4.653  15.506 -0.3703 -0.1830  0.2411
 5829TIP3   OH238977   2.585   5.529   9.634  0.0253  0.0882  0.4485
 5829TIP3    H138978   2.596   5.438   9.605 -1.5777 -0.0846  0.2767
 5829TIP3    H238979   2.582   5.524   9.729  1.4088  0.1722  0.5200
 5830TIP3   OH238980   0.057   3.889  15.930  0.0757 -0.3063 -0.7402
 5830TIP3    H138981   0.071   3.851  16.017  0.5377 -1.3685 -1.2630
 5830TIP3    H238982  -0.038   3.903  15.925  0.0803  0.0376  0.0398
 5831TIP3   OH238983   3.698   4.150  15.408 -1.0067 -0.1321 -0.0993
 5831TIP3    H138984   3.634   4.118  15.472 -0.2739 -1.7647 -0.1094
 5831TIP3    H238985   3.729   4.233  15.443 -0.4957 -1.0702  1.7927
 5832TIP3   OH238986   4.371   6.235   0.824  0.1313 -0.4634  0.2691
 5832TIP3    H138987   4.299   6.196   0.776  0.0931  0.1067 -0.1587
 5832TIP3    H238988   4.392   6.315   0.775  0.1782  0.0722  1.1312
 5833TIP3   OH238989   6.828   1.773   3.272 -0.3127  0.0972  0.3046
 5833TIP3    H138990   6.805   1.852   3.222  0.7887 -1.1939 -2.4258
 5833TIP3    H238991   6.917   1.789   3.302 -1.1773  1.1295  2.6003
 5834TIP3   OH238992   0.583   6.506   1.303  0.2771  0.0550  0.1471
 5834TIP3    H138993   0.508   6.526   1.359 -0.2331 -1.2444 -0.0286
 5834TIP3    H238994   0.602   6.587   1.257  0.2184  0.9448  1.6235
 5835TIP3   OH238995   2.078   0.970  14.112  0.1881  0.5862  0.3122
 5835TIP3    H138996   2.145   0.992  14.048  0.6273 -3.2866 -0.7861
 5835TIP3    H238997   2.124   0.923  14.181 -1.1227 -0.9479  0.2127
 5836TIP3   OH238998   6.623   6.824  10.950  0.4922 -0.1642  0.1482
 5836TIP3    H138999   6.610   6.800  10.858  2.8481  0.9548 -0.5236
 5836TIP3    H239000   6.604   6.743  10.997  1.4628 -1.4293 -1.5034
 5837TIP3   OH239001   4.282   5.997   2.708 -0.0170  0.1342 -0.0101
 5837TIP3    H139002   4.368   6.028   2.681  0.4922 -0.7825  0.5009
 5837TIP3    H239003   4.228   6.003   2.630  1.2010 -1.7256 -1.0887
 5838TIP3   OH239004   4.814   3.909   2.544 -0.1753  0.2945  0.1923
 5838TIP3    H139005   4.802   3.925   2.451  1.2034  0.6115  0.0478
 5838TIP3    H239006   4.829   3.815   2.550 -0.6473  0.2137  0.1461
 5839TIP3   OH239007   2.557   4.601  11.387  0.5949 -0.3461 -0.1264
 5839TIP3    H139008   2.647   4.619  11.414  0.2093 -0.7519  1.5689
 5839TIP3    H239009   2.557   4.615  11.292  2.0003  1.4336  0.0763
 5840TIP3   OH239010   2.595   6.106  16.349  0.9310  0.1636 -0.0865
 5840TIP3    H139011   2.685   6.127  16.374  0.6280  1.0839  0.2587
 5840TIP3    H239012   2.563   6.186  16.307  0.4336 -0.3321 -0.6744
 5841TIP3   OH239013   6.075   4.371   5.759 -0.1735  0.2131  0.2506
 5841TIP3    H139014   5.988   4.339   5.783 -0.7539  0.4638 -1.3770
 5841TIP3    H239015   6.084   4.454   5.806  0.4308 -1.1741  2.7325
 5842TIP3   OH239016   2.455   3.188  13.560  0.0554 -0.0613  0.2627
 5842TIP3    H139017   2.422   3.188  13.650 -1.1843  0.0846 -0.1776
 5842TIP3    H239018   2.549   3.201  13.570 -0.3128  2.4689  1.4806
 5843TIP3   OH239019   5.734   2.553   4.319  0.5762  0.1558 -0.1572
 5843TIP3    H139020   5.768   2.636   4.286  0.8563  0.0984 -0.0140
 5843TIP3    H239021   5.657   2.536   4.265  0.3376  0.6626  0.0132
 5844TIP3   OH239022   0.370   2.765  16.246  0.2927  0.4464  0.3225
 5844TIP3    H139023   0.408   2.851  16.225  0.5075  0.8139  2.1196
 5844TIP3    H239024   0.339   2.732  16.161  1.9911  1.4101 -0.7215
 5845TIP3   OH239025   3.652   1.218  13.082 -0.1802 -0.7557  0.3623
 5845TIP3    H139026   3.634   1.127  13.108 -0.2499 -1.0954 -0.8173
 5845TIP3    H239027   3.588   1.236  13.013 -0.7398  0.4983  1.1766
 5846TIP3   OH239028   5.768   0.353  11.214 -0.2542  0.1012 -0.4436
 5846TIP3    H139029   5.758   0.273  11.162 -1.5148  0.4363 -0.7491
 5846TIP3    H239030   5.747   0.424  11.154  1.6343  0.7617 -0.4016
 5847TIP3   OH239031   1.622   2.681   3.227 -0.1776  0.1587  0.6088
 5847TIP3    H139032   1.604   2.751   3.164  0.7831 -0.4452 -0.3851
 5847TIP3    H239033   1.593   2.601   3.182  0.8022 -0.3160  0.8034
 5848TIP3   OH239034   1.054   1.946  16.087  0.3589 -0.1419 -0.1373
 5848TIP3    H139035   1.018   2.034  16.099 -0.9209 -0.6972  0.2994
 5848TIP3    H239036   1.146   1.960  16.065  0.9166  1.2348  2.6563
 5849TIP3   OH239037   0.736   2.732  13.332  0.3155 -0.0904  0.4544
 5849TIP3    H139038   0.738   2.638  13.311  0.2807 -0.3171  1.4175
 5849TIP3    H239039   0.810   2.768  13.285  0.0999 -0.5346 -0.2428
 5850TIP3   OH239040   5.207   3.335   0.707  0.2342 -0.0158 -0.6858
 5850TIP3    H139041   5.152   3.292   0.773  1.4300  1.2685  1.2839
 5850TIP3    H239042   5.266   3.266   0.677  0.1978 -0.4708  0.2333
 5851TIP3   OH239043   0.602   2.015   0.659  0.7350  0.4775 -0.3185
 5851TIP3    H139044   0.634   1.982   0.575  1.5303 -0.4096  0.3105
 5851TIP3    H239045   0.616   1.943   0.721 -0.9912  0.6646  0.3406
 5852TIP3   OH239046   0.501   4.293  16.188  0.2864 -0.2219 -0.0386
 5852TIP3    H139047   0.590   4.312  16.157 -0.4346  1.5046 -1.2383
 5852TIP3    H239048   0.499   4.198  16.196  2.1092 -0.3437 -0.3989
 5853TIP3   OH239049   5.080   1.596   5.312 -0.4447 -0.1946 -0.2150
 5853TIP3    H139050   5.018   1.668   5.300 -2.2741 -1.8459 -1.2582
 5853TIP3    H239051   5.026   1.523   5.343  1.1729 -1.4291 -0.1843
 5854TIP3   OH239052   4.707   3.620   3.039 -0.4011  0.5130 -0.0144
 5854TIP3    H139053   4.689   3.701   2.990 -0.5310  0.9511  0.7512
 5854TIP3    H239054   4.746   3.649   3.121 -1.4621 -0.1328  0.7370
 5855TIP3   OH239055   2.792   1.614  14.610 -1.0497 -0.3574 -0.2093
 5855TIP3    H139056   2.806   1.519  14.614  1.7177  0.0109  0.4155
 5855TIP3    H239057   2.842   1.643  14.533 -1.0199  0.7299  0.2034
 5856TIP3   OH239058   4.003   6.788  14.527  0.2457  0.3215  0.5329
 5856TIP3    H139059   3.915   6.794  14.489  0.0928  1.2119  0.9929
 5856TIP3    H239060   3.988   6.751  14.614  0.6409 -2.1385 -0.3494
 5857TIP3   OH239061   6.724   4.602  12.364 -0.3444  0.2281  0.2287
 5857TIP3    H139062   6.706   4.513  12.333 -0.6677  0.2606  0.3218
 5857TIP3    H239063   6.810   4.596  12.406 -0.2601  0.0106  0.0292
 5858TIP3   OH239064   4.284   5.579   3.259 -0.0383 -0.4306 -0.1619
 5858TIP3    H139065   4.193   5.548   3.264 -0.3481  0.2314 -1.4075
 5858TIP3    H239066   4.277   5.670   3.232  0.9750 -0.0995  0.6412
 5859TIP3   OH239067   4.169   0.110   1.777  0.0444  0.0742 -0.6897
 5859TIP3    H139068   4.254   0.074   1.750 -1.3634 -2.7657 -1.7731
 5859TIP3    H239069   4.167   0.096   1.871  0.4031 -0.7846 -0.7937
 5860TIP3   OH239070   1.741   1.830  16.223 -0.0582  0.3019  0.5230
 5860TIP3    H139071   1.748   1.767  16.295  1.3051  1.0469  1.0679
 5860TIP3    H239072   1.678   1.895  16.254  1.2254  1.1378  1.4840
 5861TIP3   OH239073   0.600   0.041   0.288  0.2616  0.2513  0.0895
 5861TIP3    H139074   0.583   0.114   0.229  0.2427  0.4476  0.3338
 5861TIP3    H239075   0.537   0.054   0.360 -0.7091 -0.7835 -0.5458
 5862TIP3   OH239076   1.740   1.307  11.909  0.3860 -0.0919 -0.3865
 5862TIP3    H139077   1.766   1.215  11.912 -0.9303 -0.4803 -0.3566
 5862TIP3    H239078   1.670   1.314  11.974 -0.9099  0.4611 -1.7880
 5863TIP3   OH239079   0.148   1.967   3.343  0.1452  0.9935 -0.3823
 5863TIP3    H139080   0.207   2.017   3.400  0.2734 -0.1109  0.5009
 5863TIP3    H239081   0.199   1.890   3.319 -0.2396  1.0113 -1.2625
 5864TIP3   OH239082   5.624   2.163   4.603  0.2205  0.0195  0.3410
 5864TIP3    H139083   5.711   2.172   4.563  0.1512  0.5460  0.3043
 5864TIP3    H239084   5.563   2.176   4.530  0.1113 -0.7409  0.2903
 5865TIP3   OH239085   2.032   0.075  16.521 -0.3395  0.0013 -0.6875
 5865TIP3    H139086   1.958   0.135  16.512 -1.5176 -1.6395 -3.1890
 5865TIP3    H239087   2.103   0.118  16.474  0.2288  1.3626  1.3109
 5866TIP3   OH239088   6.193   1.868  14.247  0.3013  0.2791  0.6297
 5866TIP3    H139089   6.164   1.869  14.156  0.7024 -0.9006  0.4744
 5866TIP3    H239090   6.211   1.959  14.268  1.0616  0.4634 -0.7525
 5867TIP3   OH239091   4.486   4.162   4.314 -0.8433 -0.2793 -0.1385
 5867TIP3    H139092   4.526   4.243   4.282  0.8294 -0.4818  1.3009
 5867TIP3    H239093   4.394   4.169   4.288 -0.3770  1.2730 -1.5535
 5868TIP3   OH239094   1.670   5.652   3.535 -0.3462 -0.1812  0.1881
 5868TIP3    H139095   1.652   5.631   3.627 -1.5989  0.2054  0.0525
 5868TIP3    H239096   1.741   5.715   3.539  0.0063 -0.5991  0.8570
 5869TIP3   OH239097   2.343   3.809   5.867  0.2931  0.5107  0.6100
 5869TIP3    H139098   2.357   3.792   5.961 -0.8256  2.0964  1.0955
 5869TIP3    H239099   2.431   3.806   5.830  0.5441 -3.0261  1.1153
 5870TIP3   OH239100   0.224   4.779  15.998  0.7031 -0.3066  0.4488
 5870TIP3    H139101   0.302   4.834  16.003  0.9057 -0.5423 -0.0932
 5870TIP3    H239102   0.198   4.781  15.906  0.6660 -1.0446  0.4404
 5871TIP3   OH239103   6.794   2.964   6.384 -0.1724 -0.9923 -0.4431
 5871TIP3    H139104   6.814   3.025   6.456  0.9668  1.2257 -2.4941
 5871TIP3    H239105   6.701   2.979   6.365 -0.0755 -0.3934 -0.4680
 5872TIP3   OH239106   1.822   5.952  15.684 -0.4275  0.3008 -0.2363
 5872TIP3    H139107   1.766   5.964  15.607  1.0542  3.2256 -1.0152
 5872TIP3    H239108   1.909   5.933  15.648 -0.0036  0.2895  0.7523
 5873TIP3   OH239109   0.290   1.409   4.495  0.4763  0.3187  0.2290
 5873TIP3    H139110   0.285   1.325   4.449 -0.5347  0.1487  0.6155
 5873TIP3    H239111   0.372   1.407   4.543 -0.1223 -0.9902  1.2467
 5874TIP3   OH239112   5.136   3.949  13.952 -0.0223 -0.2082 -0.9867
 5874TIP3    H139113   5.088   3.954  13.870 -1.9027  1.1896  0.1178
 5874TIP3    H239114   5.069   3.955  14.020  1.6131  0.6927  0.6580
 5875TIP3   OH239115   6.179   5.079   1.360 -0.3781  0.0122 -0.2331
 5875TIP3    H139116   6.114   5.125   1.306 -1.2280 -0.8163  0.0408
 5875TIP3    H239117   6.126   5.020   1.414  0.6516 -1.0310 -0.3423
 5876TIP3   OH239118   0.386   2.247  16.662  0.7344 -0.8368 -0.0413
 5876TIP3    H139119   0.448   2.319  16.672 -0.3527  0.3673 -1.5430
 5876TIP3    H239120   0.394   2.220  16.571 -0.8729 -0.6872 -0.2549
 5877TIP3   OH239121   3.425   5.888   3.231 -0.3791  0.2171  0.5405
 5877TIP3    H139122   3.361   5.937   3.179 -0.1220 -0.0430 -0.0244
 5877TIP3    H239123   3.492   5.952   3.254  0.4067 -0.0337 -0.9267
 5878TIP3   OH239124   1.282   4.684   0.026 -0.1787  0.3649  0.5232
 5878TIP3    H139125   1.279   4.740   0.103 -1.7703  0.9929  0.0540
 5878TIP3    H239126   1.214   4.719  -0.032  0.8180 -0.2318 -1.0736
 5879TIP3   OH239127   5.940   3.725  15.152  0.6726 -0.8560  0.8420
 5879TIP3    H139128   5.920   3.642  15.196 -2.1396  0.2068  1.8053
 5879TIP3    H239129   5.892   3.790  15.202  0.3149  0.9480 -1.6691
 5880TIP3   OH239130   2.207   5.178   2.595  0.2239 -0.3202 -0.0678
 5880TIP3    H139131   2.181   5.269   2.582 -1.6065 -0.8723 -0.6115
 5880TIP3    H239132   2.250   5.177   2.681 -0.9377  0.8259  0.5571
 5881TIP3   OH239133   2.338   0.772   3.276 -0.6850 -0.1817  0.8564
 5881TIP3    H139134   2.350   0.862   3.244 -0.8761  0.8103  3.3503
 5881TIP3    H239135   2.260   0.741   3.231  0.4799  0.1159 -1.5262
 5882TIP3   OH239136   5.874   5.974   4.079  0.3096  0.4527 -0.7833
 5882TIP3    H139137   5.873   5.993   3.985  0.0858  0.3692 -0.7974
 5882TIP3    H239138   5.869   5.879   4.085  1.8530  0.3481 -0.7242
 5883TIP3   OH239139   5.878   5.981  13.865 -0.0289  0.4001 -0.1200
 5883TIP3    H139140   5.948   5.953  13.924 -0.0935 -0.9822 -0.6787
 5883TIP3    H239141   5.922   6.000  13.782  0.1986  3.2170  0.5306
 5884TIP3   OH239142   0.907   3.763  15.832 -0.1519 -0.5045 -0.1019
 5884TIP3    H139143   0.833   3.734  15.780  0.5765 -0.7550 -1.0319
 5884TIP3    H239144   0.870   3.785  15.917 -1.1149 -1.6747 -0.2010
 5885TIP3   OH239145   3.603   0.768  12.781 -0.2665  0.0106  0.2969
 5885TIP3    H139146   3.693   0.786  12.809 -0.5283  0.8746  0.6416
 5885TIP3    H239147   3.590   0.825  12.705 -0.8457  0.6891  0.8828
 5886TIP3   OH239148   5.335   5.935   4.611 -0.2078  0.2332 -1.0583
 5886TIP3    H139149   5.249   5.901   4.634  1.2128 -2.0752  1.5755
 5886TIP3    H239150   5.361   5.886   4.533 -0.6263 -0.2796 -0.8787
 5887TIP3   OH239151   2.608   2.070  12.068  0.5127  0.1394  0.1812
 5887TIP3    H139152   2.587   1.983  12.034 -0.5116  0.0480  1.0264
 5887TIP3    H239153   2.583   2.130  11.998  1.3093 -0.2389 -0.4423
 5888TIP3   OH239154   0.602   4.208  11.626  0.1281 -0.8343  0.0149
 5888TIP3    H139155   0.555   4.272  11.573 -0.8015 -0.5881  1.0890
 5888TIP3    H239156   0.639   4.260  11.698  1.1918 -1.1946 -0.2445
 5889TIP3   OH239157   6.800   5.808  13.740  0.9174 -0.3996 -0.4823
 5889TIP3    H139158   6.816   5.717  13.767  0.7376 -0.6613 -1.2321
 5889TIP3    H239159   6.794   5.857  13.822 -2.0939 -1.5666  0.1086
 5890TIP3   OH239160   2.461   5.289  14.209  0.1533 -0.1388 -0.0516
 5890TIP3    H139161   2.483   5.360  14.270  1.5482 -0.1318 -0.5277
 5890TIP3    H239162   2.535   5.229  14.215 -0.3180 -0.8087 -0.7701
 5891TIP3   OH239163   5.593   6.689   1.502 -0.2526 -0.4051  0.1193
 5891TIP3    H139164   5.530   6.682   1.430 -0.4015 -1.9054  0.3661
 5891TIP3    H239165   5.563   6.624   1.566  1.2442 -0.7863  0.4648
 5892TIP3   OH239166   0.875   4.645  13.947  0.1791  0.5548  0.2740
 5892TIP3    H139167   0.913   4.607  13.867 -2.5097 -0.0126 -0.8467
 5892TIP3    H239168   0.884   4.740  13.934  1.6193  0.4489  0.3122
 5893TIP3   OH239169   0.616   3.491  13.357  0.3927  0.2415 -0.2479
 5893TIP3    H139170   0.684   3.516  13.420  0.8896 -0.4026 -0.5189
 5893TIP3    H239171   0.572   3.417  13.398 -0.7230  1.1796  0.3075
 5894TIP3   OH239172   0.501   5.783  10.965  0.2705 -0.0817  0.6860
 5894TIP3    H139173   0.548   5.704  10.939 -0.0925 -0.1578  0.2503
 5894TIP3    H239174   0.450   5.757  11.042 -2.4128 -1.2235 -1.3301
 5895TIP3   OH239175   3.097   4.214  10.868 -0.2700  0.3975 -0.0599
 5895TIP3    H139176   3.093   4.130  10.822 -1.3235  0.4550 -0.0907
 5895TIP3    H239177   3.092   4.191  10.961  0.5395  0.3671 -0.0144
 5896TIP3   OH239178   6.793   1.285   0.881  0.5262 -0.3197  0.3895
 5896TIP3    H139179   6.701   1.291   0.908  0.9036 -1.5484  2.1187
 5896TIP3    H239180   6.832   1.368   0.911  0.0987 -0.0071  0.0915
 5897TIP3   OH239181   6.858   2.716   6.314  0.5497  0.4152 -0.1257
 5897TIP3    H139182   6.789   2.690   6.253  2.4857  2.3047 -3.4454
 5897TIP3    H239183   6.834   2.805   6.341 -0.6681 -0.6621  2.6483
 5898TIP3   OH239184   5.719   0.143  10.688 -0.1045 -0.3614 -1.1949
 5898TIP3    H139185   5.806   0.143  10.727 -0.3278  0.5378 -0.6674
 5898TIP3    H239186   5.733   0.168  10.597  0.2021 -0.3723 -1.1495
 5899TIP3   OH239187   2.476   6.178  14.466 -0.1923  0.1571 -0.2269
 5899TIP3    H139188   2.416   6.110  14.437 -2.2099  0.9807  1.7420
 5899TIP3    H239189   2.499   6.153  14.555  1.5721  0.4561 -0.5641
 5900TIP3   OH239190   3.177   5.967  16.731  0.1190  0.7494  0.4638
 5900TIP3    H139191   3.269   5.963  16.704 -0.1522  0.8619 -0.5148
 5900TIP3    H239192   3.153   5.877  16.749 -0.0237  0.4996 -0.8763
 5901TIP3   OH239193   5.263   2.745   4.755  0.1454 -0.0755 -0.2737
 5901TIP3    H139194   5.343   2.775   4.713 -1.1170  2.8695 -0.8652
 5901TIP3    H239195   5.200   2.739   4.683  0.1590 -4.2429 -0.1616
 5902TIP3   OH239196   5.243   1.324  11.678 -0.1879 -0.5077 -0.0525
 5902TIP3    H139197   5.263   1.250  11.620  1.8677 -0.8020  0.9320
 5902TIP3    H239198   5.183   1.379  11.627  1.0131 -1.0762 -2.2106
 5903TIP3   OH239199   1.983   2.861   0.765 -0.9068 -0.0299  0.3029
 5903TIP3    H139200   1.974   2.886   0.857 -0.6756 -0.9698  0.5847
 5903TIP3    H239201   2.040   2.928   0.728 -0.9866  0.3463  0.8417
 5904TIP3   OH239202   4.405   4.681   4.437  0.0360 -0.2202  0.5459
 5904TIP3    H139203   4.404   4.598   4.389  2.4645 -0.7173  1.1604
 5904TIP3    H239204   4.405   4.749   4.370  0.3599 -0.8181 -0.0682
 5905TIP3   OH239205   5.157   4.261  16.415 -0.7070 -0.0200 -0.0729
 5905TIP3    H139206   5.116   4.347  16.421  1.7482  1.5636 -3.2289
 5905TIP3    H239207   5.092   4.207  16.369 -2.0477  0.1672  1.4659
 5906TIP3   OH239208   0.620   4.046  10.735 -0.6041  0.3011  0.0256
 5906TIP3    H139209   0.714   4.032  10.738 -0.7368 -0.6345  2.6380
 5906TIP3    H239210   0.593   4.013  10.649  1.2077 -1.1694 -0.0383
 5907TIP3   OH239211   4.435   5.535   2.566 -0.0079  0.7493 -0.0567
 5907TIP3    H139212   4.412   5.557   2.656 -0.1764 -0.6276  0.2608
 5907TIP3    H239213   4.352   5.532   2.520 -0.7099 -4.0241  1.0454
 5908TIP3   OH239214   6.495   4.441   6.352 -0.3341 -0.2342  0.0870
 5908TIP3    H139215   6.421   4.388   6.380 -0.7433 -0.3258 -1.0929
 5908TIP3    H239216   6.464   4.531   6.359  0.1926 -0.1389  1.6158
 5909TIP3   OH239217   0.915   4.073   3.128  0.1887  0.5297  0.0501
 5909TIP3    H139218   0.919   3.984   3.093 -1.6187  0.4795 -0.1512
 5909TIP3    H239219   0.919   4.130   3.052  0.6707  0.5907  0.1221
 5910TIP3   OH239220   3.619   5.513   1.008  0.5466 -0.4031  0.1499
 5910TIP3    H139221   3.572   5.588   0.972 -0.2993  0.1393  2.2315
 5910TIP3    H239222   3.553   5.444   1.014  0.1350  0.1163  2.3531
 5911TIP3   OH239223   0.752   0.440   5.931  0.2336 -0.1960 -0.5148
 5911TIP3    H139224   0.744   0.499   6.006  1.4910 -0.7679  0.1126
 5911TIP3    H239225   0.664   0.406   5.917 -0.4119  1.4216 -0.5715
 5912TIP3   OH239226   4.107   1.282  14.877  0.0746  0.6093  0.0885
 5912TIP3    H139227   4.194   1.298  14.914  1.3884  1.3321 -2.9817
 5912TIP3    H239228   4.053   1.354  14.908  1.0546  1.0968  0.6890
 5913TIP3   OH239229   3.138   2.855   0.627  0.0517  0.0635  0.0947
 5913TIP3    H139230   3.128   2.931   0.570  0.7253 -0.4544 -0.7387
 5913TIP3    H239231   3.203   2.882   0.692 -0.8710  0.7266  0.7648
 5914TIP3   OH239232   5.883   0.692   3.586  0.2686 -0.1547  0.4801
 5914TIP3    H139233   5.957   0.736   3.543  0.4710 -1.0019 -0.0554
 5914TIP3    H239234   5.821   0.676   3.515  0.0935 -0.5323  0.7192
 5915TIP3   OH239235   4.087   6.699   1.969  0.3459  0.2124 -0.2678
 5915TIP3    H139236   4.153   6.641   1.932 -0.2833 -1.1098  0.6242
 5915TIP3    H239237   4.138   6.767   2.013  1.1788 -1.3400  1.2766
 5916TIP3   OH239238   1.342   6.207   3.962 -0.2925 -0.0842  0.5006
 5916TIP3    H139239   1.280   6.253   4.017  0.0406 -1.2130  1.8723
 5916TIP3    H239240   1.288   6.161   3.897 -0.8838 -0.7486  1.4398
 5917TIP3   OH239241   1.065   1.116  12.221 -0.3107  0.3148  0.2525
 5917TIP3    H139242   1.154   1.139  12.247  0.2459  0.1548 -1.4465
 5917TIP3    H239243   1.016   1.198  12.230 -0.1948  0.2502  1.8580
 5918TIP3   OH239244   4.823   6.783  15.538  0.1550 -0.4554 -0.1483
 5918TIP3    H139245   4.851   6.832  15.616 -1.6910  1.8045 -0.7944
 5918TIP3    H239246   4.778   6.706  15.573 -0.5173  0.4372  1.0424
 5919TIP3   OH239247   0.810   4.416  12.882  0.0547  0.3032  0.1453
 5919TIP3    H139248   0.750   4.411  12.807 -0.8645 -1.1187  0.9432
 5919TIP3    H239249   0.769   4.478  12.942  1.2742  2.2159 -0.8741
 5920TIP3   OH239250   4.510   1.163   2.920 -0.2318 -0.2455 -0.4765
 5920TIP3    H139251   4.541   1.073   2.936  0.9966 -0.0283 -1.4345
 5920TIP3    H239252   4.588   1.210   2.891 -0.8949  1.1062 -0.1561
 5921TIP3   OH239253   6.783   0.924   4.796  0.1433 -0.2436  0.2922
 5921TIP3    H139254   6.777   0.869   4.874 -0.3930  0.2188  0.5897
 5921TIP3    H239255   6.833   1.001   4.825 -1.5057  0.7278  0.6744
 5922TIP3   OH239256   6.038   1.182   4.895 -0.0672  0.0061  0.1119
 5922TIP3    H139257   6.012   1.242   4.965 -0.2495 -0.7050  0.6611
 5922TIP3    H239258   6.134   1.190   4.891 -0.0111 -0.3207  0.7777
 5923TIP3   OH239259   3.226   5.111   3.841  0.6982  0.2046 -0.1340
 5923TIP3    H139260   3.293   5.164   3.798  1.1713 -1.2558 -1.2885
 5923TIP3    H239261   3.253   5.021   3.824  0.7182 -0.4863  2.9667
 5924TIP3   OH239262   1.099   0.549   4.215 -0.2493 -0.2922  0.0322
 5924TIP3    H139263   1.014   0.512   4.190  0.1175 -1.8505  0.9400
 5924TIP3    H239264   1.158   0.523   4.145 -0.9976  3.3689 -2.2228
 5925TIP3   OH239265   0.536   1.622   0.471  0.2064  0.4254  0.3735
 5925TIP3    H139266   0.582   1.546   0.435 -0.4121  0.0713  0.3079
 5925TIP3    H239267   0.447   1.590   0.486  0.5413  0.4147  2.6281
 5926TIP3   OH239268   5.666   1.422   4.805 -0.3837 -0.1570 -0.2453
 5926TIP3    H139269   5.734   1.457   4.748  1.0873 -2.8037 -0.2695
 5926TIP3    H239270   5.617   1.361   4.748 -0.8210 -0.5532  0.5437
 5927TIP3   OH239271   4.886   2.087  16.234 -0.4077 -0.4364  0.0017
 5927TIP3    H139272   4.860   2.084  16.326 -1.8119  0.0193 -0.3495
 5927TIP3    H239273   4.803   2.088  16.186  0.2013  2.2448 -1.1653
 5928TIP3   OH239274   2.626   1.803  10.851 -0.2518 -0.2642 -0.4080
 5928TIP3    H139275   2.697   1.852  10.809  0.4545  0.2973  1.3400
 5928TIP3    H239276   2.551   1.862  10.849  0.4953  0.8127  1.3580
 5929TIP3   OH239277   2.593   2.775  16.539 -0.3109  0.4297  0.4014
 5929TIP3    H139278   2.512   2.756  16.491 -1.1423 -0.5613  2.0885
 5929TIP3    H239279   2.661   2.730  16.489 -0.5943  1.9974 -1.5407
 5930TIP3   OH239280   3.407   4.316   4.294  0.4696 -0.5186  0.0613
 5930TIP3    H139281   3.360   4.399   4.297 -0.1193 -0.8418 -0.0310
 5930TIP3    H239282   3.353   4.259   4.239 -0.8043 -1.9478  2.5761
 5931TIP3   OH239283   0.963   3.536  14.103  0.2944  0.3850 -0.2309
 5931TIP3    H139284   0.993   3.470  14.040  1.0858  1.8611 -1.4841
 5931TIP3    H239285   1.015   3.520  14.182 -0.9413 -1.7031  0.2252
 5932TIP3   OH239286   3.986   1.152   2.385 -0.0699 -0.3952 -0.1383
 5932TIP3    H139287   4.029   1.067   2.381 -0.3058 -0.5126 -0.2121
 5932TIP3    H239288   4.022   1.194   2.464 -0.7646 -1.0085  0.5175
 5933TIP3   OH239289   2.734   4.278   9.817 -0.4591  0.4329 -0.0196
 5933TIP3    H139290   2.662   4.248   9.872  0.4963 -0.6080  0.7221
 5933TIP3    H239291   2.777   4.346   9.869  0.2229 -0.2942  0.3989
 5934TIP3   OH239292   3.981   6.623  14.040  0.2654 -0.2431 -0.2751
 5934TIP3    H139293   3.936   6.631  14.124  0.0768 -2.9979 -0.0032
 5934TIP3    H239294   4.072   6.603  14.062  0.3801 -0.2585 -0.7350
 5935TIP3   OH239295   3.227   2.233   3.114 -0.2040  0.3884 -0.7636
 5935TIP3    H139296   3.308   2.260   3.156  0.4749 -2.1262 -0.3121
 5935TIP3    H239297   3.233   2.267   3.025 -0.0689  2.7582  0.0695
 5936TIP3   OH239298   2.063   3.315   4.989 -0.8668  0.3282  0.1566
 5936TIP3    H139299   2.155   3.290   4.991 -0.6773  1.0138  1.5004
 5936TIP3    H239300   2.020   3.246   4.939  0.0083 -1.3653  1.6277
 5937TIP3   OH239301   0.266   4.572  11.582  0.2015 -0.4910  0.1594
 5937TIP3    H139302   0.193   4.583  11.644 -1.2313 -0.1077 -1.5191
 5937TIP3    H239303   0.292   4.662  11.561 -0.3354 -0.5591 -0.8884
 5938TIP3   OH239304   5.656   6.052  13.513 -0.0647 -0.1788 -0.2017
 5938TIP3    H139305   5.649   6.139  13.474 -1.1590  0.5936  1.5671
 5938TIP3    H239306   5.617   5.993  13.448  0.9589  0.5735 -1.5411
 5939TIP3   OH239307   5.220   0.295   1.431 -0.1503  0.4657 -0.2111
 5939TIP3    H139308   5.175   0.362   1.380  0.0821  0.5440 -0.3123
 5939TIP3    H239309   5.288   0.261   1.373  0.7518  1.2336  0.3718
 5940TIP3   OH239310   5.536   4.322   5.800  0.1421 -0.1666  0.1111
 5940TIP3    H139311   5.615   4.361   5.838  0.9304  0.2400 -1.8578
 5940TIP3    H239312   5.486   4.397   5.768 -0.1633 -0.5420 -0.2884
 5941TIP3   OH239313   4.110   1.834  16.783  0.3456  0.6592 -0.4418
 5941TIP3    H139314   4.026   1.790  16.791  1.1550 -0.8428  0.1328
 5941TIP3    H239315   4.175   1.766  16.800  1.9135  0.4569 -5.4481
 5942TIP3   OH239316   3.676   2.711  15.289 -0.0151 -0.2378  0.0839
 5942TIP3    H139317   3.644   2.659  15.363 -3.5907 -0.4107 -1.3766
 5942TIP3    H239318   3.721   2.785  15.330  0.4813 -1.6766  2.3317
 5943TIP3   OH239319   0.764   6.209   1.585  0.0943  0.4778  0.1568
 5943TIP3    H139320   0.777   6.115   1.597 -0.5947  0.0022 -2.3503
 5943TIP3    H239321   0.715   6.236   1.663 -2.2885 -1.8192 -0.4096
 5944TIP3   OH239322   2.079   4.415   0.198 -0.5229 -0.5384 -0.4220
 5944TIP3    H139323   1.993   4.444   0.167  0.2042  2.2201 -0.0960
 5944TIP3    H239324   2.061   4.369   0.279 -1.5822  2.6634  1.3343
 5945TIP3   OH239325   1.183   2.924  14.392  0.4754 -0.0001 -0.0583
 5945TIP3    H139326   1.187   3.010  14.435  0.5885 -0.0105 -0.0490
 5945TIP3    H239327   1.129   2.871  14.451  0.9185 -0.1163  0.2456
 5946TIP3   OH239328   1.285   0.027   2.581 -0.0184 -0.0903  0.3673
 5946TIP3    H139329   1.306   0.005   2.672 -1.5123 -0.4503  0.6530
 5946TIP3    H239330   1.294  -0.055   2.534  2.6544  0.4588 -0.2452
 5947TIP3   OH239331   5.549   3.288   0.853  0.0696 -0.3863 -0.1057
 5947TIP3    H139332   5.486   3.352   0.821  0.4043 -0.0158 -0.0377
 5947TIP3    H239333   5.506   3.246   0.927 -0.2684 -0.4549 -0.3400
 5948TIP3   OH239334   5.223   4.916   5.651  0.2833  0.2958 -0.2825
 5948TIP3    H139335   5.256   5.001   5.679  0.5793  0.0107  0.2599
 5948TIP3    H239336   5.289   4.853   5.682 -0.2430 -0.1859 -0.1172
 5949TIP3   OH239337   6.732   5.811  14.558  0.0923  0.5041  0.1437
 5949TIP3    H139338   6.646   5.853  14.554  0.4831  1.3475  0.5285
 5949TIP3    H239339   6.772   5.845  14.638  1.1563  0.8354 -0.5099
 5950TIP3   OH239340   1.988   2.830   2.023 -0.1660  0.5031 -0.9333
 5950TIP3    H139341   2.074   2.834   2.066 -0.1595  0.5678 -0.9526
 5950TIP3    H239342   2.006   2.791   1.937 -0.0091  1.3871 -1.3123
 5951TIP3   OH239343   2.485   1.055  11.974 -0.7236  0.5682 -0.3151
 5951TIP3    H139344   2.512   1.047  11.883  0.2875  1.2027 -0.0971
 5951TIP3    H239345   2.482   0.966  12.007  2.5682  0.4513  0.0098
 5952TIP3   OH239346   1.946   4.339   1.331  0.3007  1.3054  0.1116
 5952TIP3    H139347   1.966   4.346   1.237  1.7162  0.2085  0.2874
 5952TIP3    H239348   1.993   4.412   1.371  0.5138  1.1924  0.0689
 5953TIP3   OH239349   6.840   2.270  11.675  0.0501 -0.1975 -0.4382
 5953TIP3    H139350   6.795   2.186  11.668  0.1151 -0.2534 -0.1811
 5953TIP3    H239351   6.926   2.248  11.710 -0.2915  0.0848  0.6089
 5954TIP3   OH239352   6.041   2.072   4.505  0.6030  0.9096 -0.8076
 5954TIP3    H139353   5.994   2.068   4.588  0.1506 -0.9228 -1.1131
 5954TIP3    H239354   6.132   2.050   4.527  0.4023  0.0214 -0.8405
 5955TIP3   OH239355   1.042   4.963   0.127 -0.1016 -0.2510  0.1296
 5955TIP3    H139356   1.031   4.898   0.057  1.7635 -1.0539  0.5225
 5955TIP3    H239357   1.008   5.044   0.090 -0.7435 -1.0400 -1.0700
 5956TIP3   OH239358   1.372   3.462   5.043  0.1181  0.5441  0.4650
 5956TIP3    H139359   1.371   3.399   5.116  2.3222  0.2714  0.3057
 5956TIP3    H239360   1.281   3.492   5.037 -0.4578 -0.6691  2.2404
 5957TIP3   OH239361   6.655   2.667   2.603  0.1472  0.4513 -0.0637
 5957TIP3    H139362   6.575   2.717   2.616 -0.4837 -0.8599  1.4888
 5957TIP3    H239363   6.726   2.728   2.623 -0.5176  1.2408 -0.0964
 5958TIP3   OH239364   5.297   3.495   2.492 -0.5987  0.1756  0.2243
 5958TIP3    H139365   5.328   3.409   2.463 -1.0064  0.0956  0.0151
 5958TIP3    H239366   5.376   3.544   2.511 -0.3021  0.3145 -1.2754
 5959TIP3   OH239367   3.938   2.516  13.834 -0.2978  0.2681  0.3092
 5959TIP3    H139368   3.927   2.528  13.929 -3.5134  0.0593  0.0758
 5959TIP3    H239369   3.949   2.421  13.824  2.4607  0.4859  0.5557
 5960TIP3   OH239370   1.965   2.956   1.638 -0.1973  0.1491  0.7953
 5960TIP3    H139371   1.870   2.948   1.632 -0.3877  2.6090 -1.2284
 5960TIP3    H239372   1.979   3.027   1.702 -0.0114  2.2915 -1.4484
 5961TIP3   OH239373   1.372   0.712   0.302  0.6744 -0.3126 -0.6728
 5961TIP3    H139374   1.383   0.621   0.275 -1.8536 -1.2305  1.0081
 5961TIP3    H239375   1.282   0.734   0.279  0.3663  0.8241  1.3250
 5962TIP3   OH239376   0.304   3.731  15.771  0.0204  0.2367 -0.2355
 5962TIP3    H139377   0.335   3.715  15.860 -0.6176 -0.6815 -0.1624
 5962TIP3    H239378   0.289   3.643  15.735 -0.4873  0.6125 -0.9724
 5963TIP3   OH239379   1.361   2.026   3.819 -0.1470 -0.2432 -0.1761
 5963TIP3    H139380   1.414   1.988   3.889 -1.2032 -1.0965  0.1792
 5963TIP3    H239381   1.305   1.954   3.789 -0.2520  0.3097 -1.3803
 5964TIP3   OH239382   2.520   0.308  14.532  0.0068 -0.1502 -0.1227
 5964TIP3    H139383   2.517   0.221  14.571 -2.9821  0.7972  2.1526
 5964TIP3    H239384   2.435   0.319  14.490 -0.3138  2.1340  0.9452
 5965TIP3   OH239385   1.386   4.887   5.884 -0.7620 -0.5771  0.5540
 5965TIP3    H139386   1.404   4.981   5.886 -1.5410 -0.4210  0.9006
 5965TIP3    H239387   1.442   4.853   5.815 -1.3106  0.3368 -0.3719
 5966TIP3   OH239388   0.463   2.922  14.966  0.0423 -0.4938 -0.1455
 5966TIP3    H139389   0.415   2.942  15.046 -0.7717 -0.9611 -0.5068
 5966TIP3    H239390   0.546   2.885  14.997  0.2788  0.5356  0.4805
 5967TIP3   OH239391   1.253   3.814   2.820  0.2136  0.0337  0.2717
 5967TIP3    H139392   1.237   3.720   2.829 -1.3689  0.2108 -0.3323
 5967TIP3    H239393   1.326   3.820   2.758 -1.3796 -0.7988 -1.8225
 5968TIP3   OH239394   3.128   4.034  11.950 -0.0766 -0.8101  0.2475
 5968TIP3    H139395   3.060   3.999  11.893 -0.8086  0.5031  0.2819
 5968TIP3    H239396   3.081   4.075  12.022  0.5273  2.4675 -1.0371
 5969TIP3   OH239397   6.626   6.384   0.536  0.3900  0.4089 -0.3344
 5969TIP3    H139398   6.597   6.458   0.589  1.1027  0.2721  0.2626
 5969TIP3    H239399   6.545   6.336   0.517 -0.2176  1.8385 -1.5533
 5970TIP3   OH239400   2.032   3.788   4.783 -0.0980  0.1566 -0.9793
 5970TIP3    H139401   2.088   3.849   4.734 -0.5800  0.5655 -1.0296
 5970TIP3    H239402   1.951   3.837   4.798 -0.4763 -0.4619 -0.9821
 5971TIP3   OH239403   3.706   2.279  14.767 -0.2334  0.0075 -0.4767
 5971TIP3    H139404   3.773   2.213  14.749  0.2988 -0.1024  1.7196
 5971TIP3    H239405   3.627   2.229  14.789 -0.7201  0.1449 -1.7885
 5972TIP3   OH239406   2.848   2.839   5.455 -0.4140 -0.3416 -0.2710
 5972TIP3    H139407   2.794   2.826   5.533 -2.2342  2.5174 -0.9180
 5972TIP3    H239408   2.831   2.762   5.401 -0.0073 -1.8118  1.5840
 5973TIP3   OH239409   6.626   3.565  10.355 -0.6580  0.3633 -0.9652
 5973TIP3    H139410   6.683   3.614  10.296  0.6310 -0.3599 -0.3509
 5973TIP3    H239411   6.547   3.548  10.303  0.0410  0.5952 -2.1404
 5974TIP3   OH239412   3.680   6.161  16.648  0.0798 -0.5119  0.2383
 5974TIP3    H139413   3.710   6.126  16.564  1.1861 -1.7732  1.1103
 5974TIP3    H239414   3.587   6.177  16.636  0.1218 -1.1326 -1.0771
 5975TIP3   OH239415   2.034   2.292  16.423 -0.1455  0.7811 -0.1235
 5975TIP3    H139416   2.046   2.320  16.513 -0.7258  2.2285 -0.4658
 5975TIP3    H239417   2.003   2.370  16.377 -0.3515 -0.0496 -1.4708
 5976TIP3   OH239418   2.035   6.232   5.290 -0.1863  0.0924  0.6229
 5976TIP3    H139419   2.090   6.165   5.249 -0.1946  0.7638 -0.5428
 5976TIP3    H239420   2.097   6.289   5.335 -0.1738 -0.6282  1.5606
 5977TIP3   OH239421   0.230   5.395   4.872  0.2327  0.2285 -0.0193
 5977TIP3    H139422   0.315   5.434   4.850  0.1408 -0.2188 -1.2533
 5977TIP3    H239423   0.252   5.308   4.905  0.3781  0.9390  1.8728
 5978TIP3   OH239424   2.395   5.378   0.958  0.5648 -0.7981 -0.3720
 5978TIP3    H139425   2.407   5.468   0.989 -2.6991 -0.7936  1.3281
 5978TIP3    H239426   2.360   5.388   0.870  0.7505 -0.4305 -0.4069
 5979TIP3   OH239427   5.509   4.490  11.115 -0.3833  0.7135 -0.0008
 5979TIP3    H139428   5.597   4.494  11.152 -0.2638  0.4878 -0.2547
 5979TIP3    H239429   5.452   4.521  11.185 -0.6430 -3.5149  1.9199
 5980TIP3   OH239430   2.766   4.753   0.021 -0.2011  0.3594  0.5610
 5980TIP3    H139431   2.826   4.681   0.002  0.2204  0.2537  2.1535
 5980TIP3    H239432   2.683   4.710   0.040  0.2977  0.1687  2.5134
 5981TIP3   OH239433   5.189   4.559  16.538  0.0843 -0.3457 -0.4901
 5981TIP3    H139434   5.280   4.584  16.525 -0.0758 -0.0804 -1.1393
 5981TIP3    H239435   5.138   4.627  16.493 -0.4602 -0.1434  0.4013
 5982TIP3   OH239436   3.242   5.162  15.963  0.0268 -0.6966 -0.3951
 5982TIP3    H139437   3.250   5.067  15.952  0.8316 -0.7864  0.7936
 5982TIP3    H239438   3.180   5.188  15.896 -1.7170 -2.3514  0.4652
 5983TIP3   OH239439   5.996   5.614   4.893 -0.3087 -0.0813  0.7329
 5983TIP3    H139440   6.001   5.529   4.848 -0.4230  0.2923 -0.0002
 5983TIP3    H239441   6.080   5.621   4.940  0.5037  0.2157 -0.7063
 5984TIP3   OH239442   5.325   0.170   3.888  0.0697  0.2395 -0.5436
 5984TIP3    H139443   5.383   0.209   3.953 -0.8748 -0.3429  0.6666
 5984TIP3    H239444   5.371   0.183   3.805  1.2724  1.0301  0.2168
 5985TIP3   OH239445   0.540   3.797  11.477  0.2306  0.0370  0.0075
 5985TIP3    H139446   0.479   3.840  11.536 -0.0386 -0.1887 -0.1017
 5985TIP3    H239447   0.490   3.725  11.439  1.0494 -1.2109  1.1989
 5986TIP3   OH239448   3.821   3.872  13.277 -0.1915 -0.5458 -0.3499
 5986TIP3    H139449   3.859   3.844  13.360 -2.7474 -1.5510  0.5873
 5986TIP3    H239450   3.896   3.897  13.223  1.6230 -0.9429  1.8442
 5987TIP3   OH239451   4.323   5.280   2.646  0.1675 -0.4448  0.5108
 5987TIP3    H139452   4.286   5.264   2.733 -0.3596  1.1103  0.6126
 5987TIP3    H239453   4.376   5.359   2.657 -1.4679  0.9520 -0.9449
 5988TIP3   OH239454   5.168   1.575  12.393  0.4476  0.2076  0.0486
 5988TIP3    H139455   5.149   1.545  12.304 -1.3545  0.5836  0.2668
 5988TIP3    H239456   5.141   1.503  12.449  1.4020  0.0481  0.3130
 5989TIP3   OH239457   4.958   4.245   2.272 -0.2833  0.7932  0.0203
 5989TIP3    H139458   5.046   4.235   2.308 -0.6253 -1.0960  0.4389
 5989TIP3    H239459   4.971   4.263   2.179  0.5468  2.5703  0.4363
 5990TIP3   OH239460   1.219   1.420  14.494  0.1194 -0.1936  0.5581
 5990TIP3    H139461   1.220   1.509  14.459  1.3121  0.5171  2.2665
 5990TIP3    H239462   1.180   1.429  14.581  0.5072 -1.2958  0.8604
 5991TIP3   OH239463   2.445   6.367  16.838 -0.5580 -0.2726  0.5564
 5991TIP3    H139464   2.418   6.455  16.863  0.5787  0.2741 -0.0348
 5991TIP3    H239465   2.486   6.378  16.752 -0.2609 -1.3520  0.5420
 5992TIP3   OH239466   4.478   3.212   6.486  0.6523 -0.5775 -0.0687
 5992TIP3    H139467   4.444   3.300   6.505  0.5236 -0.5029 -0.6271
 5992TIP3    H239468   4.559   3.207   6.536  1.0019  0.1106 -0.5417
 5993TIP3   OH239469   0.566   3.938  15.927 -0.0680 -0.4893  0.0784
 5993TIP3    H139470   0.622   3.893  15.989 -0.9718 -0.5170  0.9012
 5993TIP3    H239471   0.503   3.872  15.899  0.5525 -0.5765 -1.1681
 5994TIP3   OH239472   4.293   0.139  12.672 -0.1516  0.2504 -0.1319
 5994TIP3    H139473   4.286   0.182  12.758  1.7851  1.4590 -0.5172
 5994TIP3    H239474   4.372   0.085  12.679 -2.1299 -2.8491  0.0878
 5995TIP3   OH239475   3.917   5.532  11.385  0.0940 -0.0671 -0.4442
 5995TIP3    H139476   3.857   5.545  11.312  0.7065 -1.0750 -1.1491
 5995TIP3    H239477   3.957   5.618  11.399 -1.1056  0.4912 -0.2988
 5996TIP3   OH239478   6.872   6.837   5.077  0.5087 -0.6603 -0.5071
 5996TIP3    H139479   6.896   6.756   5.032  2.4772 -1.4197  1.7317
 5996TIP3    H239480   6.908   6.907   5.023  3.0215 -1.5579 -0.0931
 5997TIP3   OH239481   2.487   6.750   9.988  0.2926 -0.0908  0.4157
 5997TIP3    H139482   2.548   6.693   9.941  1.2120 -0.2028  1.6906
 5997TIP3    H239483   2.406   6.747   9.937  1.9360  1.7888 -2.6516
 5998TIP3   OH239484   2.945   1.914  11.492 -0.1102  0.1634  0.1683
 5998TIP3    H139485   2.960   1.889  11.583 -1.2392 -2.3770 -0.2551
 5998TIP3    H239486   2.886   1.989  11.498 -1.0394 -0.6193  1.5625
 5999TIP3   OH239487   0.565   4.641   1.560  0.2624  0.1275 -0.7633
 5999TIP3    H139488   0.621   4.710   1.594  0.6420 -0.4406 -0.2195
 5999TIP3    H239489   0.620   4.595   1.496  0.1237  0.1210 -0.8776
 6000TIP3   OH239490   6.422   1.681  14.299  0.1960  0.2167 -0.0182
 6000TIP3    H139491   6.493   1.732  14.337  0.8844 -2.4959  2.7205
 6000TIP3    H239492   6.345   1.737  14.309  1.0905  1.2171  1.7121
 6001TIP3   OH239493   5.279   6.526   3.010  0.3405 -0.2811 -0.2960
 6001TIP3    H139494   5.315   6.538   3.097 -1.1770 -0.1518  0.3488
 6001TIP3    H239495   5.257   6.433   3.006 -0.4329 -0.1087 -0.1869
 6002TIP3   OH239496   2.075   5.390  11.412  0.2646  0.3832  0.1235
 6002TIP3    H139497   2.000   5.431  11.369 -0.4112  1.1630  1.9360
 6002TIP3    H239498   2.100   5.319  11.354 -2.0391 -0.0599 -0.4267
 6003TIP3   OH239499   2.845   1.011  12.196 -0.2252  0.4574 -0.1757
 6003TIP3    H139500   2.819   1.029  12.106 -1.5014 -0.8188 -0.0954
 6003TIP3    H239501   2.922   1.065  12.210  1.9246 -1.5424 -3.0546
 6004TIP3   OH239502   4.639   5.079  11.654  0.0315 -0.4593  0.4569
 6004TIP3    H139503   4.601   4.996  11.624 -1.5941  0.8641 -1.3931
 6004TIP3    H239504   4.566   5.124  11.696  0.6192  0.4827  0.4945
 6005TIP3   OH239505   1.372   5.768  14.412 -0.2759  0.7940  0.5061
 6005TIP3    H139506   1.458   5.732  14.433 -0.6459 -0.7717 -0.4740
 6005TIP3    H239507   1.390   5.858  14.383  1.4617 -0.3486 -2.4624
 6006TIP3   OH239508   6.353   5.309  13.856  0.4372 -0.2681 -0.1195
 6006TIP3    H139509   6.421   5.245  13.833 -0.0459 -0.3731 -1.3321
 6006TIP3    H239510   6.371   5.330  13.948  0.3088 -2.4975  0.4833
 6007TIP3   OH239511   0.845   3.739  12.494 -0.2634  0.4596 -0.2798
 6007TIP3    H139512   0.854   3.755  12.588 -1.7130  0.9641 -0.2009
 6007TIP3    H239513   0.915   3.676  12.474  0.2696  0.5767  1.0570
 6008TIP3   OH239514   3.431   1.289  16.712  0.2493 -0.6613 -0.0127
 6008TIP3    H139515   3.344   1.320  16.686  0.4557  0.0235  0.0915
 6008TIP3    H239516   3.489   1.318  16.642  0.3596 -1.3009 -0.1836
 6009TIP3   OH239517   3.591   6.607  11.063  0.0842 -0.1417  0.1243
 6009TIP3    H139518   3.599   6.650  11.148  2.1142  1.0916 -0.6165
 6009TIP3    H239519   3.506   6.563  11.066 -1.1272  2.1098  1.7813
 6010TIP3   OH239520   3.927   4.809  16.398  0.2998 -0.7624  0.0937
 6010TIP3    H139521   3.928   4.870  16.324 -0.3020 -1.4899 -0.5291
 6010TIP3    H239522   3.991   4.845  16.460  0.1099  0.3729 -0.3550
 6011TIP3   OH239523   4.963   4.959   2.287  0.1625 -0.3132 -0.4904
 6011TIP3    H139524   4.985   5.049   2.263  0.4886 -0.1391  0.4358
 6011TIP3    H239525   4.902   4.967   2.360  0.3527 -0.8419 -0.2667
 6012TIP3   OH239526   1.326   4.043   1.234 -0.9580 -0.4046  0.2824
 6012TIP3    H139527   1.241   4.011   1.203 -0.0427 -1.9129 -0.8142
 6012TIP3    H239528   1.390   3.991   1.185  0.6018  0.3758  1.4247
 6013TIP3   OH239529   2.068   1.143  12.301 -0.0930  0.4669 -0.3289
 6013TIP3    H139530   2.098   1.234  12.313  1.5500 -0.0971  0.1630
 6013TIP3    H239531   2.053   1.136  12.207  0.0078  1.1850 -0.4104
 6014TIP3   OH239532   6.223   1.955  11.764  0.5063  0.3528 -0.0157
 6014TIP3    H139533   6.247   1.884  11.825  1.1531  0.2670 -0.3527
 6014TIP3    H239534   6.179   1.911  11.692  1.5704  0.1702 -0.5868
 6015TIP3   OH239535   6.168   1.568  12.690  0.5519 -0.0312 -0.1771
 6015TIP3    H139536   6.077   1.574  12.719  0.4906 -0.7199 -0.1906
 6015TIP3    H239537   6.162   1.539  12.599  0.6656  4.1103 -1.6925
 6016TIP3   OH239538   6.266   4.722  16.745 -0.2595 -0.3875  0.4240
 6016TIP3    H139539   6.186   4.773  16.745 -0.5663 -0.8123 -0.8953
 6016TIP3    H239540   6.320   4.759  16.815 -0.9093  1.0014  0.2001
 6017TIP3   OH239541   1.892   2.245   4.640 -0.4186  0.2032 -0.3926
 6017TIP3    H139542   1.909   2.314   4.704 -3.3503  1.5244 -0.8757
 6017TIP3    H239543   1.969   2.247   4.583 -0.2479  2.9205 -0.2094
 6018TIP3   OH239544   0.874   2.463   1.872 -0.3988  0.3460 -0.1289
 6018TIP3    H139545   0.804   2.478   1.808 -0.5902  0.0478  0.0077
 6018TIP3    H239546   0.873   2.542   1.926  0.5617  1.1397 -1.2193
 6019TIP3   OH239547   2.314   2.541   0.568  0.6625 -0.3386  0.4160
 6019TIP3    H139548   2.259   2.507   0.639  1.3210  0.2475  1.2278
 6019TIP3    H239549   2.396   2.563   0.611  0.9761  0.2825 -0.4890
 6020TIP3   OH239550   3.860   2.430  16.482 -0.5516  0.2681 -0.1355
 6020TIP3    H139551   3.824   2.355  16.527  1.2979 -3.3332 -3.9806
 6020TIP3    H239552   3.953   2.430  16.506 -0.7168  2.2057  0.7142
 6021TIP3   OH239553   0.158   6.127   3.495 -0.5193  0.3715 -0.1024
 6021TIP3    H139554   0.177   6.154   3.405 -0.4168  0.3065 -0.1003
 6021TIP3    H239555   0.115   6.042   3.486 -1.8026  1.0025 -0.1680
 6022TIP3   OH239556   2.901   2.043   1.631  0.3199  0.0969  0.1574
 6022TIP3    H139557   2.915   2.109   1.700  0.7225  0.8378 -0.6177
 6022TIP3    H239558   2.978   2.051   1.575 -1.6252  2.0762 -2.4557
 6023TIP3   OH239559   3.854   6.293   1.566  0.0866  0.5197 -0.2274
 6023TIP3    H139560   3.890   6.234   1.633  0.4758  0.0423 -0.8530
 6023TIP3    H239561   3.781   6.243   1.529 -0.2531  0.8646 -0.0270
 6024TIP3   OH239562   4.194   1.629   5.601  0.8436 -0.4140 -0.2168
 6024TIP3    H139563   4.143   1.569   5.654  0.1621  0.0411 -0.3415
 6024TIP3    H239564   4.158   1.620   5.513  1.0676 -0.1865 -0.3335
 6025TIP3   OH239565   4.253   5.843  15.863 -0.1258 -0.0259  0.0056
 6025TIP3    H139566   4.206   5.921  15.893 -0.8042 -0.3796 -0.1227
 6025TIP3    H239567   4.328   5.878  15.815 -0.1180  0.5460  0.4187
 6026TIP3   OH239568   5.669   5.488   0.160  0.1972 -0.3301  0.3012
 6026TIP3    H139569   5.623   5.452   0.236 -0.6615  0.2305  0.0570
 6026TIP3    H239570   5.701   5.573   0.189  1.2286 -0.7693  0.5120
 6027TIP3   OH239571   6.534   4.952   3.324  0.3983  0.0849  0.7920
 6027TIP3    H139572   6.523   4.964   3.418  0.6927 -0.6361  0.9280
 6027TIP3    H239573   6.537   5.041   3.288  0.0528  0.3618  1.4310
 6028TIP3   OH239574   0.910   5.518   4.556 -0.2080 -0.1778 -0.8907
 6028TIP3    H139575   0.965   5.572   4.612  1.1545 -0.8676 -1.5123
 6028TIP3    H239576   0.837   5.491   4.612  0.5982 -0.0460  0.2425
 6029TIP3   OH239577   3.207   5.234   3.302 -0.3780  0.2115 -0.2704
 6029TIP3    H139578   3.259   5.313   3.289 -1.3019  0.6938 -1.1734
 6029TIP3    H239579   3.168   5.245   3.389  0.5378  0.1159  0.1638
 6030TIP3   OH239580   4.172   6.756  13.868  0.2668  0.3473  0.0708
 6030TIP3    H139581   4.206   6.827  13.813  0.7132 -0.2894 -0.4916
 6030TIP3    H239582   4.120   6.801  13.935  0.7153  1.2146 -0.1442
 6031TIP3   OH239583   3.958   2.468   3.222 -0.5940  0.1098 -0.1898
 6031TIP3    H139584   3.901   2.543   3.207 -0.6881  0.0926  0.0854
 6031TIP3    H239585   4.007   2.459   3.140  2.0785  2.7150  0.9311
 6032TIP3   OH239586   1.797   1.672  16.440  0.7983  0.0657 -0.4820
 6032TIP3    H139587   1.821   1.585  16.408  0.7233 -0.1945  0.1530
 6032TIP3    H239588   1.869   1.697  16.498  1.3501  0.8987 -1.5038
 6033TIP3   OH239589   3.214   0.179   5.494  0.1616 -0.2747  0.2722
 6033TIP3    H139590   3.180   0.245   5.554 -0.5739 -0.3191 -0.0768
 6033TIP3    H239591   3.309   0.190   5.497  0.0824  0.3476  0.7277
 6034TIP3   OH239592   0.891   3.072  11.220  0.5110  0.1576  0.4154
 6034TIP3    H139593   0.824   3.136  11.245  0.5222  0.2020  0.3343
 6034TIP3    H239594   0.842   2.991  11.204  0.2871  0.5521 -1.0345
 6035TIP3   OH239595   6.447   3.631  15.337 -0.4869 -0.1309 -0.3188
 6035TIP3    H139596   6.417   3.547  15.371 -0.7566  0.5216  1.1048
 6035TIP3    H239597   6.542   3.630  15.349 -0.5712  0.0647  0.4420
 6036TIP3   OH239598   6.588   0.937  15.126  0.2407  0.5956  0.5068
 6036TIP3    H139599   6.589   0.909  15.035  0.7328  0.9650  0.3946
 6036TIP3    H239600   6.547   1.024  15.125  0.3065  0.6299  0.6246
 6037TIP3   OH239601   5.109   6.314   2.645  0.1022 -0.7364 -0.5046
 6037TIP3    H139602   5.107   6.248   2.575 -0.3116 -0.9811 -0.2688
 6037TIP3    H239603   5.195   6.355   2.637  0.2088 -1.0318 -0.9095
 6038TIP3   OH239604   6.527   3.210  12.927 -0.2839 -0.4111 -0.3736
 6038TIP3    H139605   6.510   3.290  12.878  1.1471  0.7730  0.9369
 6038TIP3    H239606   6.446   3.159  12.921 -1.9802  2.0423  0.4032
 6039TIP3   OH239607   6.378   4.744  12.372  0.4820 -0.3313 -0.5753
 6039TIP3    H139608   6.300   4.707  12.331  0.0698  0.2973 -0.3780
 6039TIP3    H239609   6.405   4.680  12.437 -0.4108 -0.1434 -0.0135
 6040TIP3   OH239610   6.698   1.834  16.637  0.2591  0.7238  0.7823
 6040TIP3    H139611   6.703   1.916  16.686  0.3942  1.1490  0.0735
 6040TIP3    H239612   6.771   1.839  16.575  0.5312 -0.1253  1.0242
 6041TIP3   OH239613   1.038   6.706   2.835 -0.2984 -0.1293  0.5864
 6041TIP3    H139614   1.062   6.713   2.927  0.0796 -0.6156  0.5349
 6041TIP3    H239615   1.014   6.794   2.809  1.9054  0.5171  0.5304
 6042TIP3   OH239616   0.864   3.081   0.838  0.3933 -0.0343  0.1751
 6042TIP3    H139617   0.837   3.060   0.927  0.9020  0.5385  0.4753
 6042TIP3    H239618   0.789   3.058   0.783  0.3937 -1.1997  0.6450
 6043TIP3   OH239619   4.322   1.331   5.935  0.5034  0.2076  0.4215
 6043TIP3    H139620   4.257   1.380   5.985 -0.0626  0.5799 -0.6394
 6043TIP3    H239621   4.293   1.240   5.940 -1.2273  0.5841 -1.6096
 6044TIP3   OH239622   6.879   1.374   5.305  0.0950  0.2328 -0.0301
 6044TIP3    H139623   6.864   1.429   5.382  0.7562  0.8302 -0.3205
 6044TIP3    H239624   6.934   1.427   5.247 -1.9202  0.5715 -1.7765
 6045TIP3   OH239625   0.015   4.287   5.605  0.1517 -0.3026  0.1914
 6045TIP3    H139626  -0.041   4.348   5.555  1.8036  0.8980 -0.2924
 6045TIP3    H239627   0.104   4.312   5.580  0.9351 -1.4903  1.7067
 6046TIP3   OH239628   4.486   2.589   5.403  0.0635 -0.0922  0.0860
 6046TIP3    H139629   4.409   2.601   5.458  0.9048  0.5102  1.1742
 6046TIP3    H239630   4.513   2.499   5.421 -1.0829 -0.7457 -1.2647
 6047TIP3   OH239631   4.562   5.328  10.836 -0.3243  0.1065  0.2254
 6047TIP3    H139632   4.596   5.240  10.822 -0.3632 -0.1022  1.3328
 6047TIP3    H239633   4.608   5.382  10.772  1.5098 -0.3037  1.1333
 6048TIP3   OH239634   6.064   0.986  14.913 -0.5329 -0.0907  0.0093
 6048TIP3    H139635   6.046   1.045  14.986 -1.2116  0.1127 -0.3196
 6048TIP3    H239636   6.091   1.044  14.842 -0.2756 -0.2576 -0.0323
 6049TIP3   OH239637   4.578   5.627  11.590  0.7585 -0.0392  0.2905
 6049TIP3    H139638   4.531   5.687  11.648 -0.3384 -1.0248  0.4667
 6049TIP3    H239639   4.574   5.669  11.504  0.0435  0.1803  0.4215
 6050TIP3   OH239640   3.587   6.626  16.785  0.1846 -0.5183 -0.1496
 6050TIP3    H139641   3.533   6.620  16.706 -0.7654 -1.4969  0.5471
 6050TIP3    H239642   3.576   6.541  16.828  0.1826  0.2121  1.3528
 6051TIP3   OH239643   2.098   4.142  10.996  0.4470 -0.2274 -0.0287
 6051TIP3    H139644   2.066   4.230  11.017  1.6536 -0.0599  1.2194
 6051TIP3    H239645   2.066   4.126  10.907 -0.4813  1.1345  0.0284
 6052TIP3   OH239646   4.841   2.260  16.004 -0.3640 -0.1797  0.9244
 6052TIP3    H139647   4.753   2.234  16.033  0.2318  0.2110  3.3359
 6052TIP3    H239648   4.871   2.319  16.072  1.5750  0.1345 -0.1500
 6053TIP3   OH239649   1.915   1.951   1.068 -0.1771  0.4437 -0.2923
 6053TIP3    H139650   1.835   1.900   1.053 -1.5118  1.5751  2.3560
 6053TIP3    H239651   1.969   1.933   0.991 -1.1167 -3.7866 -0.2416
 6054TIP3   OH239652   1.667   0.987  16.739  0.5327 -0.2426  0.3649
 6054TIP3    H139653   1.604   0.916  16.751 -1.2901  1.2964  0.2664
 6054TIP3    H239654   1.693   1.010  16.828 -2.3524  1.8892  0.7991
 6055TIP3   OH239655   3.681   4.595   4.757  0.2506 -0.0391 -0.2336
 6055TIP3    H139656   3.589   4.589   4.784  0.7120  0.8271  1.6704
 6055TIP3    H239657   3.687   4.676   4.707 -0.0259 -0.1181 -0.3950
 6056TIP3   OH239658   6.763   0.763   0.221 -0.4775 -0.1978  0.5730
 6056TIP3    H139659   6.813   0.702   0.276 -0.0567 -1.2658 -0.9236
 6056TIP3    H239660   6.828   0.821   0.183 -0.6915  0.1173  0.6828
 6057TIP3   OH239661   3.882   6.187   0.858  0.2132  0.0972 -0.0589
 6057TIP3    H139662   3.839   6.106   0.886 -1.4939  1.0217  0.1740
 6057TIP3    H239663   3.954   6.198   0.920  0.7150 -1.4178 -0.3351
 6058TIP3   OH239664   4.925   2.859   0.056 -0.0086  0.1336  0.0281
 6058TIP3    H139665   4.930   2.808  -0.025  0.5213  1.2205 -0.6486
 6058TIP3    H239666   4.981   2.811   0.118  0.0010 -0.4221 -0.4048
 6059TIP3   OH239667   2.149   4.597   3.091  0.1163 -0.1855  0.4040
 6059TIP3    H139668   2.204   4.644   3.029 -1.1659 -1.4057 -1.7766
 6059TIP3    H239669   2.138   4.657   3.165  2.6426  0.8698  0.0346
 6060TIP3   OH239670   6.170   1.044   1.122 -0.6314 -0.2886  0.1222
 6060TIP3    H139671   6.260   1.042   1.089 -0.5871 -1.8955  0.2574
 6060TIP3    H239672   6.173   0.993   1.203 -1.9485 -1.7719 -0.7031
 6061TIP3   OH239673   4.912   2.233  11.871 -0.0803 -0.1997 -0.0608
 6061TIP3    H139674   4.985   2.173  11.855 -1.4621 -1.8355 -0.4748
 6061TIP3    H239675   4.900   2.278  11.787 -0.2161 -0.6940 -0.3101
 6062TIP3   OH239676   6.438   1.779  16.086 -0.0022  0.2124  0.3628
 6062TIP3    H139677   6.428   1.773  15.991 -0.3419 -0.7457  0.4438
 6062TIP3    H239678   6.395   1.861  16.110 -0.9536 -0.1060 -0.1909
 6063TIP3   OH239679   1.000   6.545  12.295  0.2115  0.1676 -0.1357
 6063TIP3    H139680   1.073   6.537  12.358  0.7431 -2.2622 -0.9797
 6063TIP3    H239681   0.923   6.559  12.350  1.1500  2.2001  0.8074
 6064TIP3   OH239682   1.181   5.387   2.975 -0.2050  0.2422  0.0051
 6064TIP3    H139683   1.160   5.436   2.896  3.1451  1.1912 -0.4803
 6064TIP3    H239684   1.148   5.441   3.046 -2.5835 -0.2457 -0.6429
 6065TIP3   OH239685   2.818   0.040  16.564 -0.1499  0.2523 -0.4489
 6065TIP3    H139686   2.778   0.099  16.629  0.9125 -0.4090  0.8674
 6065TIP3    H239687   2.796   0.078  16.480 -0.2982  2.0167  0.3439
 6066TIP3   OH239688   5.760   3.859   3.977 -0.2838  0.2804  0.3126
 6066TIP3    H139689   5.815   3.802   4.031 -0.7924  0.3860  0.9570
 6066TIP3    H239690   5.712   3.913   4.040 -0.4037  0.8659 -0.2675
 6067TIP3   OH239691   6.527   4.375   2.658 -0.4878  0.0017  0.0180
 6067TIP3    H139692   6.444   4.421   2.666 -1.7527 -1.9608 -0.9369
 6067TIP3    H239693   6.541   4.336   2.745 -0.8065 -0.0316  0.0545
 6068TIP3   OH239694   2.495   3.020  11.314  0.3112  0.2353  0.1825
 6068TIP3    H139695   2.440   3.069  11.376  0.5074 -1.2094  1.5600
 6068TIP3    H239696   2.435   2.957  11.275  0.8334 -0.9679  1.2711
 6069TIP3   OH239697   0.230   4.173  11.000 -0.2962 -0.3534 -0.4127
 6069TIP3    H139698   0.138   4.160  10.979 -0.0094 -0.5345 -1.6343
 6069TIP3    H239699   0.278   4.127  10.930  0.7256 -0.7849  0.5278
 6070TIP3   OH239700   5.549   3.655   1.546 -0.2581 -0.0214 -0.3385
 6070TIP3    H139701   5.519   3.740   1.580 -1.8415 -0.7184  0.1171
 6070TIP3    H239702   5.642   3.652   1.568 -0.2459  1.4713 -0.0967
 6071TIP3   OH239703   3.222   6.598  15.979  0.8241 -0.3884 -0.3741
 6071TIP3    H139704   3.174   6.622  15.900  1.5962  0.4244 -0.6233
 6071TIP3    H239705   3.155   6.578  16.044  0.0781  2.0618 -0.2782
 6072TIP3   OH239706   0.977   2.274  16.759 -0.3734 -0.0245 -0.1639
 6072TIP3    H139707   0.989   2.187  16.798  0.0685  0.6529  1.2736
 6072TIP3    H239708   1.003   2.263  16.667  0.3046 -1.2641  0.1573
 6073TIP3   OH239709   0.593   3.225  10.992  0.5692 -0.0528 -0.0079
 6073TIP3    H139710   0.552   3.312  10.989  1.4595  0.3501 -1.4802
 6073TIP3    H239711   0.684   3.241  10.965  0.7762 -1.4376 -0.1881
 6074TIP3   OH239712   6.466   2.515  10.389  0.2115  0.1104 -0.0872
 6074TIP3    H139713   6.521   2.476  10.456  2.2644  2.3945 -0.2775
 6074TIP3    H239714   6.486   2.466  10.309 -0.1865 -0.8580  0.3941
 6075TIP3   OH239715   2.228   1.296  14.381 -0.2318  0.0340 -0.3373
 6075TIP3    H139716   2.185   1.212  14.398 -0.6237  0.3795  0.3891
 6075TIP3    H239717   2.201   1.319  14.292 -0.7439 -0.2320 -0.2534
 6076TIP3   OH239718   2.993   6.596   9.930  0.1186  0.2010 -0.2547
 6076TIP3    H139719   2.956   6.631  10.012  0.5197 -0.4092  0.1939
 6076TIP3    H239720   3.006   6.503   9.948  1.0532  0.2373 -0.7082
 6077TIP3   OH239721   0.611   1.634  16.015 -0.0105 -0.1584  0.0554
 6077TIP3    H139722   0.630   1.625  15.922 -0.7301 -0.6956 -0.0463
 6077TIP3    H239723   0.639   1.723  16.037  1.3595 -0.4677 -0.3754
 6078TIP3   OH239724   5.560   1.564   5.077  0.2737 -0.1329  0.5136
 6078TIP3    H139725   5.521   1.476   5.077  2.3905 -1.1274  0.0401
 6078TIP3    H239726   5.600   1.572   4.991  3.7088 -0.4586  1.9431
 6079TIP3   OH239727   3.548   0.980  12.613  0.6680 -0.5191  0.0100
 6079TIP3    H139728   3.455   0.968  12.595 -0.0865  2.4088  1.2140
 6079TIP3    H239729   3.588   0.993  12.527 -0.2476 -0.6941 -0.4556
 6080TIP3   OH239730   6.396   5.306  15.199  0.1834  0.0758 -0.2925
 6080TIP3    H139731   6.445   5.269  15.126  0.5942 -0.3101  0.1693
 6080TIP3    H239732   6.307   5.273  15.188  0.0251  0.7576 -1.1196
 6081TIP3   OH239733   1.133   4.472  14.819  0.3445  0.3710  0.3301
 6081TIP3    H139734   1.154   4.399  14.877  1.0797  1.3303  1.3146
 6081TIP3    H239735   1.117   4.545  14.879 -1.7848  0.7142 -0.5524
 6082TIP3   OH239736   4.573   3.202   0.850  0.0593 -0.4099  0.3681
 6082TIP3    H139737   4.548   3.123   0.803 -2.2988 -1.0791  2.5519
 6082TIP3    H239738   4.542   3.188   0.940  0.4986  2.5584  1.0966
 6083TIP3   OH239739   1.670   5.584   1.985  0.8086  0.1793 -0.3862
 6083TIP3    H139740   1.655   5.662   1.932 -3.6808 -0.6671 -0.7353
 6083TIP3    H239741   1.679   5.618   2.074 -1.0536  1.2029 -0.5308
 6084TIP3   OH239742   4.547   0.160  12.413 -0.0226 -0.0425  0.3997
 6084TIP3    H139743   4.456   0.149  12.384 -1.0920 -0.3576  3.4506
 6084TIP3    H239744   4.553   0.252  12.439  0.4349 -0.0990  0.4955
 6085TIP3   OH239745   3.987   0.096  15.503  0.2938  0.4432  0.1886
 6085TIP3    H139746   4.018   0.115  15.415  0.5515 -1.0262 -0.0659
 6085TIP3    H239747   4.036   0.156  15.559  3.7113 -1.7172 -0.1894
 6086TIP3   OH239748   3.994   5.619   4.690 -0.4411  0.1795 -0.0871
 6086TIP3    H139749   4.001   5.660   4.604 -0.0165  0.9909  0.3248
 6086TIP3    H239750   3.952   5.535   4.673  1.8927 -0.8128 -1.4539
 6087TIP3   OH239751   2.782   2.235   5.058  0.1239  0.2987 -0.1268
 6087TIP3    H139752   2.739   2.174   5.117 -0.4301  0.9194  0.1227
 6087TIP3    H239753   2.866   2.194   5.038 -0.2101 -0.5077  0.0864
 6088TIP3   OH239754   0.889   3.821  13.144  0.3863  0.0578 -0.4627
 6088TIP3    H139755   0.819   3.760  13.119  0.7277 -0.2954 -0.5582
 6088TIP3    H239756   0.842   3.898  13.177 -0.0513 -0.1403 -0.6065
 6089TIP3   OH239757   4.640   5.215  13.366 -0.3561  0.1161 -0.2582
 6089TIP3    H139758   4.617   5.267  13.289 -0.9693  0.7619  0.3485
 6089TIP3    H239759   4.661   5.128  13.331 -1.1022  0.2621 -1.0961
 6090TIP3   OH239760   4.501   4.826  13.703 -0.3884 -0.4024  0.5674
 6090TIP3    H139761   4.420   4.847  13.657  0.6601  0.9046 -0.8399
 6090TIP3    H239762   4.567   4.822  13.633  1.0413  0.2681  1.8190
 6091TIP3   OH239763   0.398   1.666  14.504  0.0799 -0.9788  0.1124
 6091TIP3    H139764   0.350   1.711  14.434  1.6749  0.0192 -0.3713
 6091TIP3    H239765   0.465   1.728  14.531  0.3990 -1.9147  1.5614
 6092TIP3   OH239766   5.895   2.400   0.209 -0.5699 -0.0745 -0.4209
 6092TIP3    H139767   5.927   2.486   0.181 -0.5623  1.1169  2.8009
 6092TIP3    H239768   5.800   2.403   0.195 -0.4443  0.0058 -1.3079
 6093TIP3   OH239769   6.584   1.038  12.238 -0.0607  0.1801  0.3789
 6093TIP3    H139770   6.637   0.991  12.302 -1.2682 -2.4849 -0.4437
 6093TIP3    H239771   6.507   1.067  12.286  0.9056  1.8722  0.9989
 6094TIP3   OH239772   1.017   6.006  15.865  0.2097  0.0487 -0.0106
 6094TIP3    H139773   0.986   5.925  15.906 -1.0967  0.4696 -0.1321
 6094TIP3    H239774   1.056   6.056  15.936 -0.5282  0.0511  0.3982
 6095TIP3   OH239775   4.816   4.543   2.228  0.7054  0.1561 -0.4706
 6095TIP3    H139776   4.787   4.609   2.291 -0.8857 -1.5081  0.6699
 6095TIP3    H239777   4.837   4.466   2.281  1.3381 -0.6519 -1.8203
 6096TIP3   OH239778   4.726   2.277  14.147 -0.2560 -0.1076 -0.2024
 6096TIP3    H139779   4.803   2.334  14.150 -0.3312 -0.0113 -0.0823
 6096TIP3    H239780   4.651   2.336  14.159 -0.3240 -0.2471  0.0745
 6097TIP3   OH239781   5.033   6.155   1.195 -0.2140  0.5520 -0.1968
 6097TIP3    H139782   5.090   6.217   1.240  1.6850  0.3413 -2.1300
 6097TIP3    H239783   4.945   6.176   1.225  0.5261  3.1242  0.4139
 6098TIP3   OH239784   3.877   4.019  14.687 -0.0926 -0.1932  0.5828
 6098TIP3    H139785   3.903   4.077  14.615  1.3953  0.7392  1.8006
 6098TIP3    H239786   3.800   4.060  14.725 -0.4601 -0.3063 -0.0314
 6099TIP3   OH239787   2.434   3.251  16.662 -0.2577 -0.7620  0.2233
 6099TIP3    H139788   2.463   3.205  16.583  2.0437 -1.2282  1.2758
 6099TIP3    H239789   2.401   3.335  16.629 -0.2139 -1.3128 -1.3074
 6100TIP3   OH239790   1.334   2.287  13.417  0.5965 -0.3338  0.2368
 6100TIP3    H139791   1.373   2.374  13.412  0.1844 -0.1247  0.6314
 6100TIP3    H239792   1.250   2.295  13.374 -0.6140  0.1522  2.5120
 6101TIP3   OH239793   0.458   3.069  12.715  0.0753  0.2547  0.1892
 6101TIP3    H139794   0.397   3.041  12.782  1.1767  0.5946  1.3775
 6101TIP3    H239795   0.460   3.164  12.722  0.8904  0.2402  0.3300
 6102TIP3   OH239796   3.209   1.907  14.196  0.0638  0.5772  0.2713
 6102TIP3    H139797   3.202   1.893  14.101 -1.7851  1.1722  0.2847
 6102TIP3    H239798   3.118   1.911  14.226  0.5999 -1.3198  2.3675
 6103TIP3   OH239799   1.825   2.508   3.511 -0.1314  0.0099  0.3289
 6103TIP3    H139800   1.840   2.576   3.445  0.4766  0.4579  0.9250
 6103TIP3    H239801   1.777   2.440   3.464 -1.3806  1.1487 -0.1093
 6104TIP3   OH239802   3.589   0.300  11.841  0.0126  0.0881  0.1005
 6104TIP3    H139803   3.641   0.268  11.767  1.3281  1.7250  0.2538
 6104TIP3    H239804   3.648   0.294  11.916 -0.1720  1.4995  0.3884
 6105TIP3   OH239805   2.720   0.829   3.889  0.2049 -0.4030  0.2597
 6105TIP3    H139806   2.666   0.764   3.934  1.1598 -1.3899  0.0119
 6105TIP3    H239807   2.658   0.874   3.831 -0.4037 -1.3738  0.1290
 6106TIP3   OH239808   2.069   5.222   0.798 -0.5949  0.2569 -0.4988
 6106TIP3    H139809   2.125   5.287   0.755 -0.9622  0.7245 -0.2793
 6106TIP3    H239810   1.990   5.271   0.822 -0.3281  0.0529  0.8722
 6107TIP3   OH239811   1.483   1.159   5.120 -0.1042 -0.3792  1.0929
 6107TIP3    H139812   1.536   1.196   5.050 -0.5700  0.2633  1.0744
 6107TIP3    H239813   1.540   1.162   5.197  0.9191 -2.3821  0.4813
 6108TIP3   OH239814   4.153   5.460  12.163  0.2567 -0.1258 -0.4958
 6108TIP3    H139815   4.130   5.368  12.180 -0.4344 -0.0708 -1.0616
 6108TIP3    H239816   4.232   5.475  12.214 -0.6301 -0.5156  1.0747
 6109TIP3   OH239817   4.442   5.007  10.346  0.0034  0.0828 -0.4184
 6109TIP3    H139818   4.369   5.047  10.298  0.1026  0.0587 -0.5923
 6109TIP3    H239819   4.462   5.069  10.416 -0.4861 -0.1325 -0.0887
 6110TIP3   OH239820   3.787   0.969   5.179 -0.1352  0.2956  0.8065
 6110TIP3    H139821   3.845   0.925   5.116  0.1794  2.0276 -0.1987
 6110TIP3    H239822   3.703   0.924   5.170 -0.1268  0.5639 -0.9839
 6111TIP3   OH239823   4.759   4.260  13.162 -0.2904 -0.2506 -0.6477
 6111TIP3    H139824   4.786   4.343  13.202 -0.9845 -0.3917  0.1216
 6111TIP3    H239825   4.664   4.269  13.151 -0.2298 -0.5459 -1.5094
 6112TIP3   OH239826   0.044   3.127  13.724  0.3318 -0.1701  0.0706
 6112TIP3    H139827   0.015   3.058  13.665  0.3624 -1.1529  1.1783
 6112TIP3    H239828   0.135   3.107  13.742 -0.7000 -2.4172  3.7466
 6113TIP3   OH239829   4.322   3.261  14.052  0.2980 -0.0606  0.7178
 6113TIP3    H139830   4.404   3.214  14.036  0.0790 -0.0667 -0.4923
 6113TIP3    H239831   4.254   3.200  14.024  0.0333  1.2774 -1.9265
 6114TIP3   OH239832   1.333   4.180  16.759 -0.0944  0.0151 -0.0179
 6114TIP3    H139833   1.320   4.193  16.665 -1.8172  0.5416  0.2485
 6114TIP3    H239834   1.315   4.266  16.798 -0.7699 -0.5115  0.8945
 6115TIP3   OH239835   3.740   4.425   0.276  0.0565  0.2711  0.7583
 6115TIP3    H139836   3.829   4.390   0.272  1.0404  2.6303  0.0118
 6115TIP3    H239837   3.709   4.404   0.364  0.3883 -2.6337  0.2710
 6116TIP3   OH239838   2.815   0.839  16.534 -0.0118 -0.3381  0.6045
 6116TIP3    H139839   2.828   0.929  16.565  2.8567 -0.1715 -0.8089
 6116TIP3    H239840   2.880   0.788  16.582 -1.1215 -1.5684  0.8465
 6117TIP3   OH239841   5.148   6.266   3.069 -0.3139  0.5512 -0.4291
 6117TIP3    H139842   5.066   6.234   3.032  0.1882 -0.3246 -0.8449
 6117TIP3    H239843   5.210   6.195   3.052  0.0313  0.2550  1.8179
 6118TIP3   OH239844   5.221   3.210  13.053 -0.1949  0.2134 -0.8055
 6118TIP3    H139845   5.239   3.139  12.990 -0.4187  0.6260 -1.3444
 6118TIP3    H239846   5.278   3.281  13.025 -0.3816  0.4392 -0.6121
 6119TIP3   OH239847   1.803   2.027   1.725  0.5885 -0.0086  0.1970
 6119TIP3    H139848   1.866   1.955   1.721 -1.5237 -2.2003  2.6569
 6119TIP3    H239849   1.739   2.006   1.657  0.7279  0.3623 -0.0503
 6120TIP3   OH239850   6.450   0.331  10.260  0.0442  0.4183  0.3271
 6120TIP3    H139851   6.440   0.391  10.186 -1.6756 -1.8681 -1.4308
 6120TIP3    H239852   6.520   0.271  10.233 -0.9916 -0.7860  0.2523
 6121TIP3   OH239853   4.244   1.880  11.510 -0.0944  0.6823  0.4284
 6121TIP3    H139854   4.163   1.904  11.555 -0.3605 -1.4726  1.2207
 6121TIP3    H239855   4.314   1.913  11.567 -0.4204  0.6052  0.8754
 6122TIP3   OH239856   6.809   5.334   0.791  0.1453  0.0467 -0.0880
 6122TIP3    H139857   6.734   5.365   0.740  0.1017  0.6551  0.3357
 6122TIP3    H239858   6.811   5.239   0.776  0.6350  0.3102 -1.8781
 6123TIP3   OH239859   2.491   0.042  14.635 -0.6052  1.0808  0.1530
 6123TIP3    H139860   2.401   0.009  14.633 -0.9365  1.9798 -1.0720
 6123TIP3    H239861   2.538  -0.016  14.575 -0.8838  1.9597 -0.9404
 6124TIP3   OH239862   2.625   5.712   4.644 -0.2375  0.2208  0.3356
 6124TIP3    H139863   2.710   5.743   4.675  0.1802  0.2155 -0.7717
 6124TIP3    H239864   2.568   5.789   4.648  0.6044  1.0212 -1.7080
 6125TIP3   OH239865   3.437   4.037  14.219 -0.7103 -0.3767 -0.6228
 6125TIP3    H139866   3.475   4.097  14.155 -0.8306  0.8977  0.4339
 6125TIP3    H239867   3.347   4.068  14.231  0.0044  1.0455  1.9303
 6126TIP3   OH239868   4.586   3.158  14.040 -0.1556 -0.4726 -0.1184
 6126TIP3    H139869   4.599   3.074  14.084  0.4646  0.7689  2.2264
 6126TIP3    H239870   4.596   3.223  14.109 -1.8395  1.5050 -1.6157
 6127TIP3   OH239871   1.233   5.749   3.573  0.1061 -0.3814  0.0275
 6127TIP3    H139872   1.263   5.658   3.571  2.6924  0.4014 -0.3254
 6127TIP3    H239873   1.234   5.772   3.666  1.7657 -0.0583 -0.0424
 6128TIP3   OH239874   3.828   6.788  13.876 -0.4044  0.8596 -0.7329
 6128TIP3    H139875   3.873   6.741  13.946 -0.8854  0.3964 -0.7267
 6128TIP3    H239876   3.736   6.763  13.886 -0.7649  2.2589 -0.3715
 6129TIP3   OH239877   4.334   4.137   4.753 -0.0279  0.2642  0.3270
 6129TIP3    H139878   4.254   4.152   4.703 -0.5348 -0.0637  1.0253
 6129TIP3    H239879   4.404   4.144   4.688 -0.6304  0.3550 -0.3312
 6130TIP3   OH239880   6.155   2.241   0.170 -0.0085 -0.0342  0.4295
 6130TIP3    H139881   6.100   2.231   0.248  0.7261  2.1051  1.2931
 6130TIP3    H239882   6.159   2.153   0.133 -2.3260 -0.6575  1.4543
 6131TIP3   OH239883   1.965   3.350  15.019 -0.7128  0.5741 -0.1577
 6131TIP3    H139884   1.992   3.377  14.932  0.2210 -0.9192 -0.3766
 6131TIP3    H239885   2.017   3.404  15.079 -0.1345  0.4764 -0.5600
 6132TIP3   OH239886   2.478   1.325  13.458  0.1856  0.2278 -0.2142
 6132TIP3    H139887   2.490   1.322  13.363 -1.0659 -0.7998 -0.3683
 6132TIP3    H239888   2.452   1.415  13.476  2.3212  0.9553 -0.5699
 6133TIP3   OH239889   4.556   0.536  10.559 -0.4185 -0.3172 -0.1312
 6133TIP3    H139890   4.465   0.513  10.542 -0.6452  1.3040 -1.3563
 6133TIP3    H239891   4.601   0.518  10.477  0.2771 -0.5602  0.2896
 6134TIP3   OH239892   5.179   5.961   3.298  0.0019 -0.3394 -0.1042
 6134TIP3    H139893   5.204   6.029   3.361 -1.4934  1.4885 -1.3777
 6134TIP3    H239894   5.221   5.987   3.216  0.8026 -1.9345 -0.2425
 6135TIP3   OH239895   6.340   2.069   4.597  0.8475  0.4062 -0.2487
 6135TIP3    H139896   6.337   2.123   4.676 -0.5095  0.8339 -0.5622
 6135TIP3    H239897   6.380   1.987   4.625  0.8299  0.7355  0.7676
 6136TIP3   OH239898   0.194   2.488  11.808 -0.0143  0.2149 -0.0162
 6136TIP3    H139899   0.275   2.482  11.757 -0.1233  0.5517 -0.2305
 6136TIP3    H239900   0.147   2.561  11.769 -0.2324  0.2842  0.3788
 6137TIP3   OH239901   1.821   2.400  11.835 -0.4014  0.0975  0.4660
 6137TIP3    H139902   1.834   2.338  11.763 -1.7055 -0.7339  0.9039
 6137TIP3    H239903   1.881   2.370  11.903 -0.4794 -0.2347  0.3911
 6138TIP3   OH239904   5.857   3.234   4.038  0.5330  0.2189 -0.1727
 6138TIP3    H139905   5.867   3.192   4.123  2.0080  2.0123  0.6072
 6138TIP3    H239906   5.765   3.220   4.014  0.2923 -0.9436  1.3600
 6139TIP3   OH239907   2.466   6.709  14.920  0.2465 -0.8450  0.5610
 6139TIP3    H139908   2.408   6.708  14.996  0.3727 -4.0341  0.7531
 6139TIP3    H239909   2.546   6.750  14.950  0.1099 -1.5994  2.0326
 6140TIP3   OH239910   2.714   6.356   2.322  0.0582  0.0277 -0.4372
 6140TIP3    H139911   2.723   6.261   2.327  5.2531  0.1464 -2.0423
 6140TIP3    H239912   2.713   6.385   2.414  1.4267 -1.5057  0.1080
 6141TIP3   OH239913   0.270   2.561   4.279  0.0465 -0.5152  0.3539
 6141TIP3    H139914   0.348   2.548   4.332  0.7159 -1.8730 -0.9099
 6141TIP3    H239915   0.291   2.635   4.222  1.4760 -2.4133 -1.7500
 6142TIP3   OH239916   4.758   2.865   5.139 -0.8799 -0.1957  0.0601
 6142TIP3    H139917   4.753   2.942   5.082 -1.2468 -0.5470 -0.3879
 6142TIP3    H239918   4.667   2.846   5.161 -0.8499 -0.9761 -0.4784
 6143TIP3   OH239919   0.801   1.934  11.230  0.3281 -0.2070  0.1094
 6143TIP3    H139920   0.816   1.844  11.260 -1.5173 -0.5571  0.0815
 6143TIP3    H239921   0.839   1.937  11.143  0.2353 -1.0337  0.0324
 6144TIP3   OH239922   0.461   5.091   3.512  0.1301  0.0524  0.2045
 6144TIP3    H139923   0.467   5.186   3.521  3.0192 -0.0218  0.0568
 6144TIP3    H239924   0.520   5.070   3.439 -0.9181 -1.8068 -0.1530
 6145TIP3   OH239925   4.282   2.702  15.418  0.9056 -0.1627  0.9317
 6145TIP3    H139926   4.353   2.763  15.402  0.9355 -0.0239  1.5658
 6145TIP3    H239927   4.320   2.615  15.405  0.6416 -0.0483 -0.8546
 6146TIP3   OH239928   1.036   6.669   4.318 -0.3443  0.2977  0.6713
 6146TIP3    H139929   0.949   6.630   4.309  0.1713 -1.0324  1.2148
 6146TIP3    H239930   1.038   6.701   4.408 -0.0124 -0.3376  0.8912
 6147TIP3   OH239931   0.234   5.281   0.984 -0.4558 -0.1312  0.0578
 6147TIP3    H139932   0.325   5.260   1.003 -0.3631  1.1794  1.1983
 6147TIP3    H239933   0.232   5.296   0.889  0.6121  0.2735  0.0869
 6148TIP3   OH239934   5.679   6.880  14.656  0.6210 -0.5151 -0.2278
 6148TIP3    H139935   5.695   6.871  14.562 -2.6813  0.4331 -1.0152
 6148TIP3    H239936   5.636   6.798  14.681  0.7165 -0.4171  0.2677
 6149TIP3   OH239937   3.784   3.850   2.491 -0.1880 -0.0094  0.1896
 6149TIP3    H139938   3.800   3.940   2.463 -0.5278 -0.1338 -0.4158
 6149TIP3    H239939   3.850   3.798   2.445 -0.1213 -0.1007  0.3824
 6150TIP3   OH239940   2.938   1.237   2.384 -0.3279  0.4376 -0.0387
 6150TIP3    H139941   2.970   1.152   2.354  0.6510  1.0083 -0.6440
 6150TIP3    H239942   2.845   1.222   2.401 -0.6510 -0.2441 -2.1177
 6151TIP3   OH239943   5.609   4.483   4.716  0.0201  0.1916 -0.3733
 6151TIP3    H139944   5.568   4.528   4.642  1.9310  3.0894  0.1549
 6151TIP3    H239945   5.581   4.532   4.793  0.1159 -1.1649  0.5572
 6152TIP3   OH239946   5.071   0.133   2.175 -0.2923  0.2412 -0.3379
 6152TIP3    H139947   5.090   0.061   2.235  0.9387 -0.2119 -1.2578
 6152TIP3    H239948   5.036   0.202   2.232 -0.9233 -0.8484  0.6336
 6153TIP3   OH239949   3.140   6.193   3.211  0.2050 -0.3967  0.6275
 6153TIP3    H139950   3.087   6.271   3.229 -0.3811  0.0912 -2.5537
 6153TIP3    H239951   3.225   6.213   3.250  0.9074  3.1545 -2.1150
 6154TIP3   OH239952   5.855   3.352  14.429 -0.0955 -0.0225  0.1482
 6154TIP3    H139953   5.820   3.336  14.517 -1.2010  0.0708 -0.2510
 6154TIP3    H239954   5.777   3.365  14.375  0.5939  0.7860 -0.6822
 6155TIP3   OH239955   0.337   1.652  15.170 -0.2370 -0.0471  0.2722
 6155TIP3    H139956   0.378   1.604  15.241 -0.0387  1.1685  1.0056
 6155TIP3    H239957   0.403   1.715  15.141 -1.0054  0.8377  0.3854
 6156TIP3   OH239958   3.985   4.821  15.590 -0.2239  0.1608  0.0501
 6156TIP3    H139959   4.061   4.790  15.541  0.8294  3.3685 -0.5388
 6156TIP3    H239960   4.019   4.839  15.678 -1.9270 -4.7786  2.0758
 6157TIP3   OH239961   0.181   1.415  10.373  0.4044  0.6089  0.5078
 6157TIP3    H139962   0.127   1.461  10.437  1.0053  2.6654 -0.4058
 6157TIP3    H239963   0.132   1.420  10.291  0.8202  0.2537  0.2301
 6158TIP3   OH239964   1.897   6.029  10.480  0.4151 -0.3889 -0.0353
 6158TIP3    H139965   1.843   5.985  10.546 -0.3177 -1.6320 -1.3791
 6158TIP3    H239966   1.857   6.115  10.469 -2.8103 -1.9392 -2.4544
 6159TIP3   OH239967   6.175   4.779   5.144  0.2971  0.3090  0.1613
 6159TIP3    H139968   6.098   4.794   5.088  0.4716  0.0288 -0.1562
 6159TIP3    H239969   6.145   4.717   5.210  0.0175  0.8320  0.5342
 6160TIP3   OH239970   1.247   3.545  11.532 -0.1927  0.1140  0.4942
 6160TIP3    H139971   1.324   3.561  11.585  0.2251 -1.5810  0.4439
 6160TIP3    H239972   1.274   3.479  11.468 -0.9829  1.3078 -1.1647
 6161TIP3   OH239973   1.415   0.478   1.895 -0.2291  0.0796 -0.4676
 6161TIP3    H139974   1.501   0.455   1.859 -1.0986 -3.1994 -0.7052
 6161TIP3    H239975   1.367   0.516   1.821  0.0588 -0.7944 -1.1156
 6162TIP3   OH239976   6.304   3.566   4.173  0.0935  0.4530 -0.5066
 6162TIP3    H139977   6.258   3.611   4.243  1.6085  0.6228  0.4340
 6162TIP3    H239978   6.240   3.557   4.103 -1.8381 -0.7666  1.3116
 6163TIP3   OH239979   2.558   0.576  12.093  0.6533 -0.5552  0.3332
 6163TIP3    H139980   2.593   0.633  12.162 -0.2010 -0.0137  0.3464
 6163TIP3    H239981   2.633   0.552  12.040  0.9714  1.0145  0.0363
 6164TIP3   OH239982   1.977   1.816   1.748 -0.6427 -0.3506 -0.0158
 6164TIP3    H139983   2.054   1.829   1.802  0.0507 -0.0023 -1.0497
 6164TIP3    H239984   2.005   1.752   1.682 -0.9969  0.3205 -0.8350
 6165TIP3   OH239985   2.859   0.891   4.514  0.3562 -0.2395  0.5818
 6165TIP3    H139986   2.892   0.827   4.452 -0.0531 -0.7936  0.9288
 6165TIP3    H239987   2.938   0.930   4.553  0.6056 -0.5928  0.4346
 6166TIP3   OH239988   1.177   2.220   0.781  0.5969 -0.6005  0.0281
 6166TIP3    H139989   1.258   2.270   0.769  0.1125 -0.3695 -3.0564
 6166TIP3    H239990   1.195   2.135   0.740 -0.2472 -1.1258  0.7176
 6167TIP3   OH239991   0.643   1.968   1.355  0.6476  0.8212  0.0676
 6167TIP3    H139992   0.632   2.056   1.318 -0.1209  0.2120 -1.2511
 6167TIP3    H239993   0.635   1.909   1.279  0.5336 -0.4137  1.0062
 6168TIP3   OH239994   2.537   3.354  15.770  0.5203  0.3707  0.4276
 6168TIP3    H139995   2.541   3.292  15.842 -0.9418  1.4084  1.4516
 6168TIP3    H239996   2.570   3.305  15.694  0.2144 -1.3666  1.3688
 6169TIP3   OH239997   3.892   3.736   0.270 -0.4630  0.1717  0.0827
 6169TIP3    H139998   3.881   3.766   0.179 -0.8905 -0.1296  0.0302
 6169TIP3    H239999   3.804   3.710   0.297 -0.1144 -1.0667  0.1088
 6170TIP3   OH240000   5.247   2.532   3.753  0.5099  0.1591  0.1974
 6170TIP3    H140001   5.221   2.492   3.671  1.9260 -3.0500  1.1576
 6170TIP3    H240002   5.313   2.597   3.729  0.2395 -0.0687 -1.2361
 6171TIP3   OH240003   6.431   5.974   3.914  0.4021 -0.3670  0.2753
 6171TIP3    H140004   6.488   6.034   3.963 -0.3439  0.4693  0.1429
 6171TIP3    H240005   6.342   6.003   3.935 -0.1103  2.4186 -4.2002
 6172TIP3   OH240006   2.499   6.537  16.593 -0.0894  0.3816 -0.6943
 6172TIP3    H140007   2.541   6.609  16.640 -1.2838  0.9564 -0.4608
 6172TIP3    H240008   2.559   6.517  16.521  0.9895  0.5770  0.1273
 6173TIP3   OH240009   6.398   2.666  12.638  0.5792 -0.0386 -0.0174
 6173TIP3    H140010   6.456   2.647  12.712  1.4761  1.3614 -0.3285
 6173TIP3    H240011   6.324   2.606  12.650  0.4725  0.4331  2.2799
 6174TIP3   OH240012   5.279   4.964  11.628 -0.5856  0.0729 -0.5678
 6174TIP3    H140013   5.243   5.034  11.575  0.5031  0.1906 -1.1940
 6174TIP3    H240014   5.343   4.921  11.571  1.9730  1.3413  1.1490
 6175TIP3   OH240015   5.061   6.190   2.227 -0.1643 -0.1159 -0.0130
 6175TIP3    H140016   5.124   6.201   2.298  0.2162  0.3285 -0.4138
 6175TIP3    H240017   5.062   6.274   2.180 -0.7768 -0.2313 -0.2505
 6176TIP3   OH240018   5.450   4.333  13.767 -0.2025  0.9234  0.2190
 6176TIP3    H140019   5.390   4.262  13.790  0.5466 -0.1356 -0.9698
 6176TIP3    H240020   5.393   4.402  13.732 -0.8603  0.5404  0.5161
 6177TIP3   OH240021   1.964   5.220   1.373  0.2283  0.0016 -0.1823
 6177TIP3    H140022   1.966   5.292   1.436  0.5349 -1.2921  1.3306
 6177TIP3    H240023   2.019   5.251   1.301 -0.6426  1.7736 -0.1609
 6178TIP3   OH240024   6.708   4.790  16.875  0.0907  0.0578 -0.3398
 6178TIP3    H140025   6.732   4.712  16.925  0.7737 -0.4496 -1.4328
 6178TIP3    H240026   6.735   4.770  16.785 -2.9074  0.0869 -1.3825
 6179TIP3   OH240027   2.035   3.433  10.206 -0.0394  0.7880  0.4728
 6179TIP3    H140028   2.067   3.478  10.284  0.5776  1.3982 -0.1161
 6179TIP3    H240029   1.940   3.445  10.208  0.0174  1.1943  0.8793
 6180TIP3   OH240030   5.480   5.830   1.553 -0.6487 -0.1321  0.8643
 6180TIP3    H140031   5.450   5.837   1.643 -0.0286 -0.9201  1.1428
 6180TIP3    H240032   5.572   5.806   1.560 -0.6734 -0.5081  0.0242
 6181TIP3   OH240033   1.420   1.026  12.247 -0.5799 -0.4253  1.1457
 6181TIP3    H140034   1.461   1.113  12.248  0.1727 -0.6922 -0.8157
 6181TIP3    H240035   1.481   0.970  12.293  0.4663 -0.4638 -0.2133
 6182TIP3   OH240036   1.829   0.827  12.528  0.0610  0.5512 -0.1504
 6182TIP3    H140037   1.902   0.879  12.493 -0.2832  1.2321  0.1297
 6182TIP3    H240038   1.833   0.842  12.622  1.1868 -1.5301  0.1829
 6183TIP3   OH240039   6.638   6.365   5.005 -0.0300  0.7360 -0.3861
 6183TIP3    H140040   6.577   6.314   4.952  0.2856  1.5430 -1.5654
 6183TIP3    H240041   6.590   6.384   5.086  0.4074 -2.8214  0.8770
 6184TIP3   OH240042   1.618   1.196   3.291 -0.4537 -0.3942 -0.0388
 6184TIP3    H140043   1.564   1.251   3.233 -0.4059  0.5566  0.7857
 6184TIP3    H240044   1.556   1.134   3.329 -0.7873  0.0480  0.1461
 6185TIP3   OH240045   5.530   0.137   6.052  0.2974 -0.2169  0.3405
 6185TIP3    H140046   5.477   0.063   6.022  0.7523 -0.2330 -0.4668
 6185TIP3    H240047   5.592   0.099   6.113  1.0909 -0.6736 -0.7216
 6186TIP3   OH240048   5.363   3.330   1.951  0.3055 -0.5574  0.2296
 6186TIP3    H140049   5.338   3.421   1.968  1.5643  0.0403 -0.9531
 6186TIP3    H240050   5.452   3.336   1.918 -0.6729 -1.9100 -3.0097
 6187TIP3   OH240051   5.701   3.123   3.530 -0.5107  0.3163  0.0131
 6187TIP3    H140052   5.707   3.216   3.508 -2.4094  0.7280  1.0046
 6187TIP3    H240053   5.608   3.102   3.519 -0.2527 -1.2557  0.5962
 6188TIP3   OH240054   0.311   0.103   1.138  0.4805 -0.5107  0.1911
 6188TIP3    H140055   0.220   0.088   1.166  0.3128 -1.6477 -0.8788
 6188TIP3    H240056   0.320   0.052   1.058  2.0162 -0.2468  0.1704
 6189TIP3   OH240057   5.257   1.760  11.616 -0.4423 -0.4339  0.3255
 6189TIP3    H140058   5.283   1.832  11.558  1.2407 -0.9828  0.3289
 6189TIP3    H240059   5.218   1.695  11.557 -1.5549  0.2556  0.2625
 6190TIP3   OH240060   5.697   3.412  14.643 -0.5334  0.2477  0.2129
 6190TIP3    H140061   5.753   3.445  14.713  0.0280  0.2061 -0.2123
 6190TIP3    H240062   5.622   3.374  14.689  1.0106 -2.0968  0.9629
 6191TIP3   OH240063   2.450   4.534  16.294 -0.2185  0.0768 -0.3415
 6191TIP3    H140064   2.439   4.445  16.329 -0.1753  1.1015  2.5446
 6191TIP3    H240065   2.537   4.561  16.324  1.0488  0.1621 -3.6573
 6192TIP3   OH240066   1.268   3.082  11.646 -0.2737 -0.4629 -0.8284
 6192TIP3    H140067   1.178   3.113  11.648 -0.5829 -1.2469 -1.7871
 6192TIP3    H240068   1.312   3.132  11.714 -1.6249 -0.6715  0.2552
 6193TIP3   OH240069   2.834   2.510  13.904  0.0960  0.4827 -0.1462
 6193TIP3    H140070   2.811   2.464  13.824  0.0450  1.6503 -0.8225
 6193TIP3    H240071   2.757   2.564  13.924 -0.8245 -1.4031  1.9553
 6194TIP3   OH240072   2.308   4.922   0.393  0.3181  0.0016  0.3836
 6194TIP3    H140073   2.365   4.972   0.452  1.8756 -1.3369  0.0981
 6194TIP3    H240074   2.321   4.962   0.307  0.1754  0.2387  0.4734
 6195TIP3   OH240075   5.027   5.210   3.042  0.1966 -0.4854 -0.0078
 6195TIP3    H140076   5.017   5.123   3.003  0.7442 -0.4530 -0.2261
 6195TIP3    H240077   5.115   5.238   3.016 -0.3253  0.5348 -0.7579
 6196TIP3   OH240078   5.339   0.582   1.332 -0.3430  0.3564  0.1534
 6196TIP3    H140079   5.397   0.523   1.284  2.0048  2.1283  0.6370
 6196TIP3    H240080   5.263   0.594   1.275 -0.0558 -1.6622 -0.7245
 6197TIP3   OH240081   1.054   0.764   2.994  0.0686  0.3073  0.1396
 6197TIP3    H140082   1.041   0.859   3.004  1.0315  0.5921 -1.0836
 6197TIP3    H240083   0.984   0.725   3.046 -0.7814  1.6953  0.0896
 6198TIP3   OH240084   0.070   0.139   2.752 -0.2921 -0.4368 -0.2594
 6198TIP3    H140085   0.134   0.108   2.688  1.1766 -0.1811  1.0090
 6198TIP3    H240086   0.008   0.190   2.701  1.3144  0.4867 -1.3916
 6199TIP3   OH240087   6.407   6.472   0.319 -0.1429 -0.3330  0.3006
 6199TIP3    H140088   6.485   6.499   0.368 -1.2138  1.0287  1.3674
 6199TIP3    H240089   6.436   6.399   0.265  1.5704 -0.6677  1.5820
 6200TIP3   OH240090   4.968   1.046  13.468 -0.0329 -0.0394  0.1907
 6200TIP3    H140091   4.918   1.121  13.502 -0.5199 -0.5215  0.5597
 6200TIP3    H240092   5.052   1.050  13.515  0.1228  0.5364 -0.1301
 6201TIP3   OH240093   5.900   2.782  16.658 -0.2236 -0.4290 -0.0928
 6201TIP3    H140094   5.954   2.706  16.636 -0.3704 -0.1549 -1.4773
 6201TIP3    H240095   5.952   2.857  16.629 -1.3587 -0.1652 -1.4998
 6202TIP3   OH240096   1.443   2.631   0.937  0.0281  0.3116  0.2508
 6202TIP3    H140097   1.375   2.589   0.884 -0.9359  1.5117  0.4766
 6202TIP3    H240098   1.397   2.704   0.980  0.7955 -0.5316  2.6323
 6203TIP3   OH240099   0.831   4.556   3.828 -0.4777 -1.0311  0.1031
 6203TIP3    H140100   0.864   4.598   3.908  2.8066 -1.4911 -0.8525
 6203TIP3    H240101   0.802   4.469   3.857  0.8718 -1.2746  0.8096
 6204TIP3   OH240102   6.471   3.697  12.767  0.3402 -0.1871 -0.1541
 6204TIP3    H140103   6.403   3.710  12.701  0.1002 -0.9807 -0.0702
 6204TIP3    H240104   6.481   3.602  12.773 -0.1872 -0.1641  1.5046
 6205TIP3   OH240105   3.494   3.576   4.010 -0.2299 -0.0594 -0.5773
 6205TIP3    H140106   3.435   3.577   4.086 -1.1898  1.7693 -1.3087
 6205TIP3    H240107   3.444   3.534   3.941  0.1759 -0.5434 -0.5890
 6206TIP3   OH240108   6.761   2.976   2.509  0.0070  0.2381 -0.3024
 6206TIP3    H140109   6.666   2.970   2.522  0.2103 -0.3505  1.0495
 6206TIP3    H240110   6.774   2.941   2.420 -0.7875 -2.4821  0.5401
 6207TIP3   OH240111   1.552   0.042  15.988 -0.3533 -0.0734  0.3129
 6207TIP3    H140112   1.597   0.125  15.979 -0.7008  0.0473 -0.4579
 6207TIP3    H240113   1.608  -0.010  16.046  0.3436  0.3599  0.0425
 6208TIP3   OH240114   2.802   2.293  15.545 -0.1822 -0.3645 -0.8806
 6208TIP3    H140115   2.787   2.223  15.482  0.6021 -1.3205 -0.0295
 6208TIP3    H240116   2.719   2.303  15.590 -0.2302 -0.9133 -0.8429
 6209TIP3   OH240117   2.207   2.594  15.282  0.2394  0.0685  0.1128
 6209TIP3    H140118   2.242   2.668  15.233 -2.2562 -0.2260 -2.3678
 6209TIP3    H240119   2.202   2.523  15.218 -0.3568 -1.3052  1.6048
 6210TIP3   OH240120   0.015   1.647  12.944 -0.6320  0.5853  0.3012
 6210TIP3    H140121   0.013   1.560  12.903 -0.3696  0.3982  0.6756
 6210TIP3    H240122   0.028   1.629  13.037 -1.4998  0.9974  0.5120
 6211TIP3   OH240123   1.641   2.605  14.400  1.0364 -0.2768  0.1316
 6211TIP3    H140124   1.703   2.665  14.441  0.3372 -0.3698  1.3746
 6211TIP3    H240125   1.566   2.659  14.377 -0.0994 -0.7973  2.3297
 6212TIP3   OH240126   5.690   6.798  10.248  0.2315 -0.4074 -0.2918
 6212TIP3    H140127   5.638   6.718  10.239  0.4712 -0.4583 -1.3475
 6212TIP3    H240128   5.759   6.775  10.311  0.0178 -0.8821 -0.2282
 6213TIP3   OH240129   0.090   0.501  12.861 -0.4699  0.3519  0.1829
 6213TIP3    H140130   0.166   0.546  12.823 -0.2072 -0.7207 -0.6303
 6213TIP3    H240131   0.055   0.562  12.925  0.7940  1.0690  0.2218
 6214TIP3   OH240132   0.424   3.627  10.884  0.3446  0.9503 -0.5701
 6214TIP3    H140133   0.460   3.716  10.881 -0.6737  1.4585  1.1161
 6214TIP3    H240134   0.453   3.592  10.968 -0.7342  0.3313 -0.4357
 6215TIP3   OH240135   5.214   2.853   5.311  0.3855 -1.0646  0.3196
 6215TIP3    H140136   5.182   2.859   5.221  1.3600 -2.2645 -0.1490
 6215TIP3    H240137   5.145   2.891   5.365 -1.8688 -3.5357 -0.6048
 6216TIP3   OH240138   0.219   2.570   6.175 -0.2348  0.2696  0.2387
 6216TIP3    H140139   0.240   2.611   6.259  0.2277 -1.0947  0.8167
 6216TIP3    H240140   0.177   2.639   6.124 -0.9939  0.9880  1.7852
 6217TIP3   OH240141   2.376   6.716   3.089  0.1891 -0.1251 -0.2789
 6217TIP3    H140142   2.436   6.641   3.096 -1.1847 -1.0945  2.5310
 6217TIP3    H240143   2.406   6.776   3.157 -2.2201 -0.8873  1.5929
 6218TIP3   OH240144   2.948   3.718   0.839 -0.1021 -0.1290 -0.1326
 6218TIP3    H140145   2.890   3.763   0.900  1.6853  2.0831  0.0774
 6218TIP3    H240146   2.929   3.758   0.754  0.0656 -0.4665 -0.3284
 6219TIP3   OH240147   5.942   5.679   0.270 -0.0587 -0.6756  0.4463
 6219TIP3    H140148   5.965   5.592   0.303  1.7090 -0.7878 -0.9686
 6219TIP3    H240149   5.967   5.677   0.178  0.6053  1.5314  0.5367
 6220TIP3   OH240150   1.367   1.514   4.372 -0.0096 -0.1755 -0.1168
 6220TIP3    H140151   1.410   1.465   4.443 -2.7210 -1.7100  0.6118
 6220TIP3    H240152   1.396   1.604   4.385  1.7216 -0.8487  1.2306
 6221TIP3   OH240153   3.359   3.695  15.385 -0.7279  0.8704  0.5386
 6221TIP3    H140154   3.286   3.695  15.446 -0.8330 -0.2339  0.4257
 6221TIP3    H240155   3.436   3.674  15.439 -0.8927 -0.6158  0.2415
 6222TIP3   OH240156   5.853   4.212   0.387  0.3718 -0.5104  0.6836
 6222TIP3    H140157   5.876   4.244   0.475  0.4636 -2.2901  1.3349
 6222TIP3    H240158   5.922   4.150   0.365 -1.3928 -2.6518  0.8251
 6223TIP3   OH240159   1.650   2.045  14.276  0.3525 -0.7650  0.1619
 6223TIP3    H140160   1.684   2.130  14.246 -1.4096 -0.1315 -0.1969
 6223TIP3    H240161   1.705   1.980  14.232  1.9592  0.1612  0.7082
 6224TIP3   OH240162   0.140   2.261   0.725 -0.6242  0.5575 -0.4570
 6224TIP3    H140163   0.112   2.170   0.740 -0.6830  0.7465  0.7132
 6224TIP3    H240164   0.063   2.303   0.686 -0.8678  0.2871 -0.2808
 6225TIP3   OH240165   3.067   6.142  15.533 -0.2533 -0.0231 -0.2745
 6225TIP3    H140166   3.064   6.219  15.590  0.1447 -0.0273 -0.2482
 6225TIP3    H240167   3.053   6.068  15.592  2.5019 -0.2342  0.2307
 6226TIP3   OH240168   2.524   2.409   2.611 -0.5780  0.6447 -0.3569
 6226TIP3    H140169   2.487   2.443   2.692 -3.0465  0.6446 -1.4149
 6226TIP3    H240170   2.553   2.320   2.634 -0.0491  1.0935  0.8023
 6227TIP3   OH240171   3.444   0.656  11.056  0.0043 -0.1579  0.0709
 6227TIP3    H140172   3.479   0.571  11.031 -0.4691  0.3371 -2.7044
 6227TIP3    H240173   3.352   0.653  11.029 -0.2638  0.9230  0.7864
 6228TIP3   OH240174   2.826   6.179  16.450  0.3831 -0.3805 -0.7190
 6228TIP3    H140175   2.907   6.128  16.458  0.5090 -0.1962 -0.8160
 6228TIP3    H240176   2.811   6.215  16.537  1.6975  1.5427 -1.2272
 6229TIP3   OH240177   4.715   6.449   3.470  0.0772  0.0940 -0.0647
 6229TIP3    H140178   4.749   6.388   3.535 -0.9769 -1.5195 -0.9474
 6229TIP3    H240179   4.734   6.536   3.505  2.0251 -0.7169  1.0463
 6230TIP3   OH240180   5.397   1.349   5.135  0.1237  0.6844  0.2047
 6230TIP3    H140181   5.349   1.390   5.207 -1.3787  0.2373 -0.5219
 6230TIP3    H240182   5.416   1.260   5.166 -0.4245  0.5290  0.1062
 6231TIP3   OH240183   3.252   0.050  10.000 -0.3072  0.4622  0.4872
 6231TIP3    H140184   3.169   0.026   9.960 -0.5568 -1.8621  2.1602
 6231TIP3    H240185   3.309  -0.025   9.984  1.9318  2.4565 -1.5905
 6232TIP3   OH240186   3.067   0.764   2.821  0.0781  0.2242 -0.6064
 6232TIP3    H140187   3.033   0.689   2.772 -0.5705 -0.0042  0.1656
 6232TIP3    H240188   2.990   0.818   2.839  0.2632  0.1943  0.3313
 6233TIP3   OH240189   2.798   5.280   4.545  0.5687  0.0409  0.0269
 6233TIP3    H140190   2.724   5.248   4.597  0.4567  0.6931  0.2785
 6233TIP3    H240191   2.766   5.360   4.504  0.3450 -0.9249 -1.8035
 6234TIP3   OH240192   4.527   5.842  10.678  0.5211  0.0774  0.0305
 6234TIP3    H140193   4.575   5.924  10.667  1.6178 -0.5379  0.0794
 6234TIP3    H240194   4.556   5.808  10.763 -0.8233  0.2106  0.5722
 6235TIP3   OH240195   5.993   2.351   3.839  0.2745  0.0564 -0.5977
 6235TIP3    H140196   5.975   2.371   3.931 -3.5626 -0.2543 -1.0827
 6235TIP3    H240197   6.033   2.431   3.805  1.9537  0.1164  1.2961
 6236TIP3   OH240198   0.819   1.250   5.138 -0.0654 -0.4321  0.4104
 6236TIP3    H140199   0.873   1.309   5.085 -0.4972 -0.0380  0.4099
 6236TIP3    H240200   0.820   1.167   5.090  0.1931 -0.3060  0.1953
 6237TIP3   OH240201   4.233   6.728   3.682 -0.4587 -0.2505 -0.4114
 6237TIP3    H140202   4.250   6.658   3.620 -0.1785  1.5838 -2.5432
 6237TIP3    H240203   4.319   6.754   3.713 -0.6337 -1.6861  1.4972
 6238TIP3   OH240204   4.886   2.230   5.711 -0.1758  0.0478  0.7485
 6238TIP3    H140205   4.851   2.192   5.792  0.7004  1.4315  1.8419
 6238TIP3    H240206   4.975   2.257   5.735  0.3704 -0.2025 -0.9192
 6239TIP3   OH240207   5.168   3.067  14.044 -0.4296  0.0157  0.1619
 6239TIP3    H140208   5.168   3.158  14.013  1.5019 -0.2452 -0.7680
 6239TIP3    H240209   5.077   3.038  14.036 -0.3742  0.4556 -3.9659
 6240TIP3   OH240210   6.054   4.121   5.281 -0.2570  0.1667 -0.2118
 6240TIP3    H140211   6.052   4.203   5.233 -3.5440  1.3634  1.6315
 6240TIP3    H240212   5.990   4.065   5.238  0.7343 -0.8353 -0.4391
 6241TIP3   OH240213   6.076   3.645   3.749 -0.3731  0.0443  0.0705
 6241TIP3    H140214   6.033   3.730   3.758 -0.0100  0.1914  0.4727
 6241TIP3    H240215   6.166   3.661   3.777  0.1247 -0.1102 -1.3365
 6242TIP3   OH240216   2.620   1.261  16.667 -0.3779  0.7047 -0.3496
 6242TIP3    H140217   2.601   1.339  16.719 -1.1325  1.2685 -1.4496
 6242TIP3    H240218   2.540   1.210  16.669 -0.0446  0.1862 -0.0441
 6243TIP3   OH240219   4.619   5.969  11.602  0.5788  0.2389  0.1791
 6243TIP3    H140220   4.560   5.903  11.639 -1.0779  0.9888 -0.9704
 6243TIP3    H240221   4.567   6.050  11.602  1.5058  0.8773 -1.1140
 6244TIP3   OH240222   1.256   3.662  15.645 -0.0816 -0.3966 -0.0238
 6244TIP3    H140223   1.162   3.652  15.630  0.0664 -2.2222  0.0607
 6244TIP3    H240224   1.278   3.593  15.708  1.3693 -0.2063 -0.2841
 6245TIP3   OH240225   1.314   2.916   1.656 -0.4085 -0.0937  0.2998
 6245TIP3    H140226   1.311   2.880   1.744 -1.8745 -1.6828 -0.3542
 6245TIP3    H240227   1.380   2.864   1.610 -1.6667 -1.1950 -0.3075
 6246TIP3   OH240228   5.973   4.351   5.433 -0.4603  0.1359 -0.5119
 6246TIP3    H140229   6.028   4.351   5.511  0.5064 -0.2855 -1.1719
 6246TIP3    H240230   5.959   4.258   5.414 -1.8461  0.2360 -0.0633
 6247TIP3   OH240231   4.257   1.801  16.180 -0.0763 -0.2376  0.1801
 6247TIP3    H140232   4.293   1.716  16.155  0.9205  0.1176  0.3486
 6247TIP3    H240233   4.175   1.809  16.131 -0.0330 -1.1654 -0.0502
 6248TIP3   OH240234   4.578   2.968   5.437  0.2925 -0.3733  0.3155
 6248TIP3    H140235   4.572   2.928   5.351  0.2734 -0.2392  0.2545
 6248TIP3    H240236   4.489   2.966   5.472 -0.7912  3.9361 -1.6287
 6249TIP3   OH240237   0.425   6.274  16.448  0.1910 -0.6469 -0.3133
 6249TIP3    H140238   0.435   6.364  16.415  0.1980 -0.5817 -0.1364
 6249TIP3    H240239   0.513   6.250  16.478 -0.0441 -0.2894  0.7009
 6250TIP3   OH240240   1.459   0.743  13.323 -0.5675  0.4141 -0.7801
 6250TIP3    H140241   1.546   0.721  13.356 -0.4439  1.1460 -0.6141
 6250TIP3    H240242   1.400   0.719  13.394 -0.3149  1.8509 -0.0520
 6251TIP3   OH240243   4.844   4.250   1.354  0.1147 -0.1323 -0.3754
 6251TIP3    H140244   4.843   4.344   1.333 -2.1239  0.6586  2.5774
 6251TIP3    H240245   4.868   4.247   1.447  2.3657 -2.7516 -0.8913
 6252TIP3   OH240246   2.450   1.872   2.605  0.6567 -0.2094 -0.5180
 6252TIP3    H140247   2.519   1.905   2.546 -0.4783  2.0791 -0.6964
 6252TIP3    H240248   2.413   1.797   2.559  0.4633  0.9227 -2.3315
 6253TIP3   OH240249   2.127   5.220  10.230 -0.2307 -0.4016  0.2078
 6253TIP3    H140250   2.041   5.178  10.237 -1.4986  2.1438  0.8025
 6253TIP3    H240251   2.163   5.187  10.147 -2.0010 -1.0965 -0.3271
 6254TIP3   OH240252   6.770   6.274   1.516  0.2992  0.5213 -0.3922
 6254TIP3    H140253   6.722   6.356   1.502 -0.7748 -0.0632 -0.2443
 6254TIP3    H240254   6.725   6.210   1.461  1.9133  0.2916 -1.4883
 6255TIP3   OH240255   5.269   2.674   2.094  0.6703 -0.3938  0.1845
 6255TIP3    H140256   5.281   2.748   2.033 -0.4847 -0.5270 -0.2307
 6255TIP3    H240257   5.308   2.600   2.048 -0.3634 -0.5348 -0.5199
 6256TIP3   OH240258   0.467   0.367  11.222  0.1839  0.2851  0.3340
 6256TIP3    H140259   0.532   0.398  11.160  0.3913 -2.8854 -1.2629
 6256TIP3    H240260   0.386   0.360  11.172  0.1638 -1.5841  0.5411
 6257TIP3   OH240261   6.426   2.835  16.345  0.1577  0.1379 -0.0062
 6257TIP3    H140262   6.493   2.779  16.305 -1.8087 -1.7374 -0.8754
 6257TIP3    H240263   6.388   2.883  16.272  0.4430  1.1136  0.4698
 6258TIP3   OH240264   5.377   3.880   5.840 -0.7434 -0.2712 -0.2509
 6258TIP3    H140265   5.428   3.823   5.782  1.3425 -0.6998  1.8534
 6258TIP3    H240266   5.296   3.832   5.855  0.2540 -1.9337  0.1130
 6259TIP3   OH240267   6.067   2.928  10.886  0.5260  0.6019  0.2464
 6259TIP3    H140268   6.157   2.900  10.867  0.7751  0.1698  1.8702
 6259TIP3    H240269   6.027   2.852  10.929 -1.1578  0.2100 -1.8876
 6260TIP3   OH240270   4.448   2.946   2.754  0.4696 -0.6740  0.0308
 6260TIP3    H140271   4.479   2.865   2.794  3.2695 -0.6149 -1.7696
 6260TIP3    H240272   4.479   2.942   2.663 -0.8240  1.6502 -0.6071
 6261TIP3   OH240273   0.209   2.546  14.544  0.1066  0.2556 -0.0264
 6261TIP3    H140274   0.135   2.502  14.502  0.5591 -0.9821  0.4358
 6261TIP3    H240275   0.267   2.569  14.471 -0.0831  0.0072 -0.2586
 6262TIP3   OH240276   1.820   4.439   0.092  0.3560 -0.0372 -0.3558
 6262TIP3    H140277   1.772   4.364   0.057  0.1900  0.2277 -0.7103
 6262TIP3    H240278   1.758   4.512   0.086  0.7545  0.2798 -0.6979
 6263TIP3   OH240279   5.234   0.953   1.161 -0.0025  0.6096 -0.0475
 6263TIP3    H140280   5.245   1.036   1.114  1.6506 -0.0887 -0.9631
 6263TIP3    H240281   5.139   0.939   1.159 -0.2279  1.9409 -0.8263
 6264TIP3   OH240282   5.668   1.860  14.933  0.0325  0.4504  0.2878
 6264TIP3    H140283   5.655   1.897  14.846 -0.6200  1.6781  0.8786
 6264TIP3    H240284   5.723   1.783  14.919 -2.3453 -1.0244 -1.5425
 6265TIP3   OH240285   3.690   0.961   1.739  0.0340  0.3148  0.3718
 6265TIP3    H140286   3.745   0.962   1.817  1.9886  0.6601 -0.9414
 6265TIP3    H240287   3.745   0.923   1.671 -1.9824 -1.0166 -0.6276
 6266TIP3   OH240288   2.461   0.518   3.751 -0.3192 -0.0025  0.4043
 6266TIP3    H140289   2.458   0.564   3.667  1.3209  0.8300  0.7717
 6266TIP3    H240290   2.553   0.496   3.763 -0.7241 -1.3083  1.3695
 6267TIP3   OH240291   3.296   4.279  12.452 -0.0495 -0.3608  0.1987
 6267TIP3    H140292   3.373   4.298  12.398 -2.4891 -0.2385 -3.6387
 6267TIP3    H240293   3.289   4.183  12.451 -0.5101 -0.3272 -0.4076
 6268TIP3   OH240294   3.427   6.730  11.449  0.0460  0.4167  0.2633
 6268TIP3    H140295   3.404   6.637  11.450 -0.3762  0.5150  1.2820
 6268TIP3    H240296   3.357   6.772  11.501 -0.8524  1.5607 -1.7587
 6269TIP3   OH240297   2.289   2.279   4.142 -0.2800  0.1217 -0.4041
 6269TIP3    H140298   2.210   2.230   4.163 -0.8317  1.9624  2.4833
 6269TIP3    H240299   2.360   2.215   4.148 -1.2821 -1.0017 -0.2166
 6270TIP3   OH240300   4.245   3.350  15.244 -0.3430 -0.0471 -0.4724
 6270TIP3    H140301   4.302   3.325  15.317 -0.4903 -0.4725 -0.4988
 6270TIP3    H240302   4.247   3.445  15.243  0.3331 -0.0592 -0.4461
 6271TIP3   OH240303   2.653   6.391  12.418 -0.0089  0.5408  0.0452
 6271TIP3    H140304   2.638   6.328  12.489  1.5221  0.1871  0.0901
 6271TIP3    H240305   2.718   6.451  12.453  0.5961  0.4994 -0.9696
 6272TIP3   OH240306   6.588   2.142   2.649  0.2259  0.3204 -0.0177
 6272TIP3    H140307   6.640   2.099   2.717  1.4513  0.3238 -0.9249
 6272TIP3    H240308   6.627   2.229   2.641  0.7789 -0.0391 -1.4398
 6273TIP3   OH240309   2.004   4.656  14.397 -0.3499 -0.0793 -0.1722
 6273TIP3    H140310   1.917   4.616  14.392 -0.4362  0.1727 -0.7826
 6273TIP3    H240311   1.991   4.744  14.362 -0.5874  1.2427  2.9305
 6274TIP3   OH240312   1.971   0.023  10.943 -0.1788 -0.3144 -0.2701
 6274TIP3    H140313   1.965  -0.012  10.854 -0.6036 -0.2690 -0.2635
 6274TIP3    H240314   2.055   0.067  10.947 -0.3749  0.1165 -0.8092
 6275TIP3   OH240315   2.094   4.922   3.815  0.5885  0.1397  0.2836
 6275TIP3    H140316   2.187   4.915   3.795  0.6322 -0.5317  0.6994
 6275TIP3    H240317   2.076   4.848   3.873 -0.2321  0.1977  0.1127
 6276TIP3   OH240318   0.443   2.548  11.722  0.2168  0.3526 -0.4132
 6276TIP3    H140319   0.505   2.499  11.776  0.3737  0.3927 -0.5553
 6276TIP3    H240320   0.484   2.553  11.636 -0.5754 -0.7535 -0.8801
 6277TIP3   OH240321   3.904   6.797  16.096  0.6713 -0.2417  0.5193
 6277TIP3    H140322   3.880   6.758  16.012  0.5904  0.5838  0.1599
 6277TIP3    H240323   3.930   6.886  16.075 -0.4508  0.3413  1.5235
 6278TIP3   OH240324   0.381   2.876   5.968 -0.5247  0.1398 -0.2140
 6278TIP3    H140325   0.358   2.954   6.018  0.3322  1.0187 -1.1407
 6278TIP3    H240326   0.477   2.876   5.967 -0.4277 -1.9914  1.3670
 6279TIP3   OH240327   2.927   5.801  11.446  0.8888 -0.1834  0.9257
 6279TIP3    H140328   2.938   5.728  11.506 -2.1787  0.0744  1.9642
 6279TIP3    H240329   2.835   5.799  11.422  1.3091  1.7187 -1.2239
 6280TIP3   OH240330   5.528   3.877   6.060 -0.2681 -0.0167  0.1426
 6280TIP3    H140331   5.491   3.875   5.972 -0.5193  0.0619  0.2451
 6280TIP3    H240332   5.471   3.937   6.109  0.9388  1.4163 -0.1246
 6281TIP3   OH240333   6.736   3.943   1.797 -0.0517  0.2244 -0.3647
 6281TIP3    H140334   6.694   3.957   1.712 -0.2186 -1.1420 -0.5329
 6281TIP3    H240335   6.782   4.025   1.815  1.1701  0.0655 -2.4414
 6282TIP3   OH240336   4.632   1.242   1.733 -0.1209 -0.1122  0.1781
 6282TIP3    H140337   4.613   1.267   1.643 -1.8159  0.0132  0.5253
 6282TIP3    H240338   4.655   1.149   1.728 -0.9853 -0.3114 -0.3091
 6283TIP3   OH240339   5.575   5.450  14.257  0.1823 -0.2715 -0.1029
 6283TIP3    H140340   5.585   5.544  14.271 -0.9228 -0.0200 -0.8430
 6283TIP3    H240341   5.563   5.414  14.345  1.1991  0.1934  0.2352
 6284TIP3   OH240342   6.542   6.590   0.708  0.1902  0.8390  0.0050
 6284TIP3    H140343   6.528   6.683   0.720  0.7847  0.7412  1.6495
 6284TIP3    H240344   6.504   6.549   0.785  0.9234 -0.1817 -0.1523
 6285TIP3   OH240345   5.087   0.418  15.379 -0.3981 -0.5932 -0.3363
 6285TIP3    H140346   5.063   0.435  15.288  0.2968 -0.1365 -0.4417
 6285TIP3    H240347   5.079   0.323  15.388 -1.4968 -0.5376 -0.5640
 6286TIP3   OH240348   2.536   1.525   2.896 -0.2002  0.2404 -1.0078
 6286TIP3    H140349   2.563   1.512   2.806  0.4970  0.4204 -0.8281
 6286TIP3    H240350   2.617   1.523   2.947 -0.5274  0.6477 -0.4480
 6287TIP3   OH240351   2.883   3.893  15.913 -0.2482 -0.8024  0.6905
 6287TIP3    H140352   2.838   3.832  15.972  0.2815 -1.9612 -0.0637
 6287TIP3    H240353   2.883   3.848  15.828 -1.9513  1.2704 -0.5145
 6288TIP3   OH240354   1.676   1.074   0.339 -0.2876 -0.5890 -0.0234
 6288TIP3    H140355   1.713   1.155   0.374 -0.7863  0.5776 -2.0162
 6288TIP3    H240356   1.629   1.035   0.413 -1.0584  1.5783  0.7126
 6289TIP3   OH240357   0.040   6.698  13.395 -0.2655  0.2073  0.0256
 6289TIP3    H140358  -0.000   6.654  13.470 -1.5224  0.4351 -0.4890
 6289TIP3    H240359  -0.023   6.766  13.370 -0.8708 -1.1357 -2.4674
 6290TIP3   OH240360   5.676   6.133  11.017  0.0530 -0.1876 -1.0384
 6290TIP3    H140361   5.726   6.202  11.060  0.2267 -0.3561 -0.9676
 6290TIP3    H240362   5.652   6.170  10.932  3.6391 -1.4239 -2.8019
 6291TIP3   OH240363   0.460   4.439  14.542  0.4679  0.0421 -0.2519
 6291TIP3    H140364   0.470   4.477  14.629 -1.9631 -0.8779  0.5027
 6291TIP3    H240365   0.387   4.378  14.550  0.6798 -0.6679 -2.7599
 6292TIP3   OH240366   1.674   3.190   1.385 -0.3580 -0.1049  0.4109
 6292TIP3    H140367   1.613   3.180   1.312 -1.1080  0.6811  0.9149
 6292TIP3    H240368   1.642   3.130   1.452  0.0402 -0.4581  0.2918
 6293TIP3   OH240369   4.498   0.284  16.021 -0.2790 -0.5235 -1.2153
 6293TIP3    H140370   4.421   0.340  16.035 -0.7278 -0.8141 -2.4069
 6293TIP3    H240371   4.474   0.200  16.059 -0.7842 -0.7738 -2.0513
 6294TIP3   OH240372   6.402   1.374  12.216  0.3682 -0.4294  0.7430
 6294TIP3    H140373   6.410   1.454  12.268  0.0092  0.6022 -0.7262
 6294TIP3    H240374   6.337   1.322  12.262  1.9981 -0.8057  2.8034
 6295TIP3   OH240375   2.469   3.141  10.283  0.2589  0.0479  0.4331
 6295TIP3    H140376   2.420   3.084  10.223 -1.1024  1.3310  0.2673
 6295TIP3    H240377   2.509   3.207  10.226  1.1308 -0.2402  0.7013
 6296TIP3   OH240378   4.934   2.539   4.875  0.4550  0.1900  0.7555
 6296TIP3    H140379   4.982   2.464   4.910 -0.8051 -1.1797 -0.3259
 6296TIP3    H240380   4.842   2.513   4.880  0.0915  0.8713 -1.4124
 6297TIP3   OH240381   3.677   6.580  14.608  0.0821  0.3334  0.4482
 6297TIP3    H140382   3.691   6.644  14.678 -1.6268  0.5168  0.6583
 6297TIP3    H240383   3.743   6.601  14.542  0.2499  1.6032  1.0077
 6298TIP3   OH240384   0.064   1.655  14.399 -0.0383  0.1424 -0.1610
 6298TIP3    H140385   0.129   1.719  14.371 -0.1010  0.2964  0.0466
 6298TIP3    H240386   0.078   1.645  14.493  1.2039 -1.5383 -0.4787
 6299TIP3   OH240387   5.314   2.120  16.666  0.1188  0.4881 -0.4410
 6299TIP3    H140388   5.372   2.183  16.709  0.7987 -0.0337 -0.5556
 6299TIP3    H240389   5.273   2.072  16.738  1.0130 -0.1695 -0.3428
 6300TIP3   OH240390   6.857   4.680  16.413  0.1849  0.0671 -0.3956
 6300TIP3    H140391   6.947   4.679  16.380  0.9133 -0.6678  1.4371
 6300TIP3    H240392   6.847   4.595  16.457 -0.9270  0.7069  0.6456
 6301TIP3   OH240393   6.878   0.134  13.912 -0.3246  0.2715 -0.3450
 6301TIP3    H140394   6.894   0.071  13.982 -1.3861  0.4684  0.0900
 6301TIP3    H240395   6.783   0.142  13.908 -0.2747  0.4403 -1.6605
 6302TIP3   OH240396   5.548   4.050   5.286 -0.2485  0.1572  0.1688
 6302TIP3    H140397   5.512   3.967   5.317 -2.6784  0.4730 -1.5392
 6302TIP3    H240398   5.490   4.116   5.323  1.2998  1.1184  0.9948
 6303TIP3   OH240399   2.875   2.090  11.065  0.1460 -0.2664 -0.0702
 6303TIP3    H140400   2.885   2.181  11.094 -3.3767 -0.1532  1.2579
 6303TIP3    H240401   2.962   2.052  11.078  1.4968  2.6370  0.2479
 6304TIP3   OH240402   2.365   5.214  12.538 -0.1424 -0.5850 -0.1140
 6304TIP3    H140403   2.432   5.267  12.494 -0.0425 -0.9537 -0.4013
 6304TIP3    H240404   2.383   5.227  12.632  0.6850 -1.1347 -0.1907
 6305TIP3   OH240405   2.689   4.454   2.782  0.0567 -0.2657 -0.0301
 6305TIP3    H140406   2.717   4.532   2.736 -0.7560  1.3916  2.1210
 6305TIP3    H240407   2.604   4.432   2.743 -0.2806  0.6738  0.1441
 6306TIP3   OH240408   2.348   3.168   3.270 -0.3669 -0.0738 -0.3635
 6306TIP3    H140409   2.398   3.209   3.199 -0.7407 -0.8817 -1.1096
 6306TIP3    H240410   2.414   3.118   3.319 -0.0626  0.6970  0.0225
 6307TIP3   OH240411   2.574   4.544   0.102  0.4135  0.2727  0.1196
 6307TIP3    H140412   2.482   4.535   0.125  0.3306  1.6261  0.3952
 6307TIP3    H240413   2.622   4.506   0.176  0.1115 -1.7167 -0.6256
 6308TIP3   OH240414   1.042   2.024   4.281 -0.1219 -0.8849  0.0414
 6308TIP3    H140415   1.063   1.940   4.240  0.4036 -1.3155  1.1513
 6308TIP3    H240416   0.950   2.015   4.307 -0.6797 -0.3477 -1.5970
 6309TIP3   OH240417   1.256   0.472   1.470 -0.2220 -0.3416  0.2012
 6309TIP3    H140418   1.261   0.566   1.453  0.5313 -0.2542  0.8207
 6309TIP3    H240419   1.230   0.465   1.562 -0.3406 -0.7344  0.1398
 6310TIP3   OH240420   5.727   1.532  16.785  0.0339 -0.2367 -0.1894
 6310TIP3    H140421   5.696   1.487  16.706 -0.0534 -1.0642  0.2959
 6310TIP3    H240422   5.818   1.555  16.765  0.0979 -0.6833 -0.4396
 6311TIP3   OH240423   3.595   1.903  13.282 -0.1583  0.0407 -0.0585
 6311TIP3    H140424   3.604   1.823  13.229 -0.4976 -0.4080  0.5627
 6311TIP3    H240425   3.506   1.900  13.316  0.5518 -0.5080  1.8655
 6312TIP3   OH240426   2.004   1.484  15.090 -0.1259 -0.2212  0.1744
 6312TIP3    H140427   2.024   1.552  15.027  2.0569 -0.3295  0.6680
 6312TIP3    H240428   2.072   1.491  15.156 -1.6013 -0.9305  1.8797
 6313TIP3   OH240429   1.588   0.317  10.703  0.2260  0.4726  0.5652
 6313TIP3    H140430   1.552   0.348  10.787 -1.1066 -1.5555  0.8219
 6313TIP3    H240431   1.591   0.222  10.713 -0.5950  0.1287 -1.9197
 6314TIP3   OH240432   1.782   0.951  13.237  0.3599  0.0089  0.3370
 6314TIP3    H140433   1.774   0.864  13.199 -1.6300  0.0539  0.5103
 6314TIP3    H240434   1.742   1.009  13.171  0.3500  0.5975  0.8533
 6315TIP3   OH240435   5.934   6.728  14.261  0.7733  0.3491 -0.1566
 6315TIP3    H140436   5.981   6.698  14.338 -0.1143  0.8400  0.5883
 6315TIP3    H240437   6.001   6.770  14.207  1.3441  0.2487  0.4650
 6316TIP3   OH240438   1.791   1.306  14.485  0.9748  1.1459 -0.1558
 6316TIP3    H140439   1.800   1.230  14.428  4.1467  2.1312 -1.1788
 6316TIP3    H240440   1.825   1.277  14.569 -0.7709  0.6018  0.4042
 6317TIP3   OH240441   6.288   0.911  15.630  0.1995 -0.0669 -0.1472
 6317TIP3    H140442   6.339   0.836  15.663  0.1893 -0.5393 -1.1619
 6317TIP3    H240443   6.204   0.904  15.675  0.2511 -0.5737 -0.1209
 6318TIP3   OH240444   2.717   1.642   4.834 -0.0524  0.0634  0.3277
 6318TIP3    H140445   2.718   1.548   4.815  1.7342 -0.0171  0.6124
 6318TIP3    H240446   2.731   1.683   4.748 -0.3617  0.0489  0.2702
 6319TIP3   OH240447   6.372   0.118  13.888  0.3713  0.0933  0.4237
 6319TIP3    H140448   6.325   0.038  13.866 -0.1520  0.4980  0.0260
 6319TIP3    H240449   6.459   0.107  13.851  0.4494 -0.4735  0.7626
 6320TIP3   OH240450   1.280   6.573   0.416  0.4802 -0.1996 -0.0870
 6320TIP3    H140451   1.350   6.566   0.481  2.0112  2.4594 -1.3131
 6320TIP3    H240452   1.201   6.587   0.468  1.4404  0.4496  1.2694
 6321TIP3   OH240453   0.969   3.093   0.416 -0.4033  0.0948 -0.4795
 6321TIP3    H140454   0.896   3.134   0.370  0.6533  1.6454 -0.8679
 6321TIP3    H240455   0.999   3.159   0.478  0.2432 -0.7677  0.1645
 6322TIP3   OH240456   4.766   2.634   2.791 -0.1802  0.2789  0.2430
 6322TIP3    H140457   4.795   2.707   2.845 -0.5465  0.4713  0.1907
 6322TIP3    H240458   4.840   2.615   2.734  0.0940  0.2816  0.5982
 6323TIP3   OH240459   5.701   1.565  11.170  0.1852 -0.1681 -0.2014
 6323TIP3    H140460   5.742   1.487  11.133  0.0414  0.6536 -2.2606
 6323TIP3    H240461   5.766   1.602  11.229  0.2501 -1.8163  0.8083
 6324TIP3   OH240462   2.410   5.592   1.650  0.1967  0.2679  0.2206
 6324TIP3    H140463   2.431   5.607   1.743 -0.6945  1.1910  0.2834
 6324TIP3    H240464   2.321   5.623   1.640  0.3528  0.3575 -1.0029
 6325TIP3   OH240465   6.410   4.584  15.544 -1.2588  0.1143 -0.2624
 6325TIP3    H140466   6.385   4.505  15.591  0.0840 -1.2762 -1.7330
 6325TIP3    H240467   6.397   4.561  15.452  2.8212  0.0968 -1.0093
 6326TIP3   OH240468   4.970   1.647  15.710  0.1793 -0.2294 -0.1917
 6326TIP3    H140469   4.916   1.665  15.633  0.8329 -0.0172 -0.6025
 6326TIP3    H240470   5.031   1.720  15.715  0.5748 -0.5776  0.1452
 6327TIP3   OH240471   5.848   0.934   0.439 -0.5009  0.2799  0.1163
 6327TIP3    H140472   5.833   0.961   0.348  0.4865  2.0609  0.4460
 6327TIP3    H240473   5.942   0.943   0.452 -0.5604 -0.4135  1.2006
 6328TIP3   OH240474   0.504   2.736  14.031 -0.3696  0.0498 -0.6638
 6328TIP3    H140475   0.577   2.771  13.980 -0.5641  0.4715 -0.6619
 6328TIP3    H240476   0.506   2.642  14.015 -0.9120  0.2516 -2.1006
 6329TIP3   OH240477   3.105   0.922  12.456  0.0233 -0.3822 -0.7711
 6329TIP3    H140478   3.063   0.899  12.373 -0.3723 -1.5057 -0.2837
 6329TIP3    H240479   3.162   0.847  12.476  0.3279 -0.0006 -0.1751
 6330TIP3   OH240480   4.100   5.259  14.976  0.1790  0.1691 -0.0856
 6330TIP3    H140481   4.042   5.335  14.975  0.5874  0.4784 -0.7346
 6330TIP3    H240482   4.115   5.242  15.069 -2.2939 -0.9556  0.2006
 6331TIP3   OH240483   4.619   6.597  14.791 -0.0111  0.6271 -0.3239
 6331TIP3    H140484   4.614   6.655  14.715 -1.8916  0.5920 -0.2614
 6331TIP3    H240485   4.680   6.528  14.763  0.7118  1.5546 -1.1234
 6332TIP3   OH240486   1.290   4.226  14.895  0.1883 -0.1551  0.1355
 6332TIP3    H140487   1.271   4.191  14.808 -1.1965 -1.9766  1.1059
 6332TIP3    H240488   1.385   4.243  14.894  0.2920 -0.6844 -1.5186
 6333TIP3   OH240489   2.575   1.257  15.908  0.1823 -0.2525 -0.1356
 6333TIP3    H140490   2.596   1.201  15.983 -2.2448 -1.8659 -0.5161
 6333TIP3    H240491   2.582   1.346  15.941  1.0221 -0.8679  1.4495
 6334TIP3   OH240492   3.579   4.424  10.801 -0.3610 -0.5035  0.0536
 6334TIP3    H140493   3.556   4.360  10.869  2.4837 -0.8159  0.8511
 6334TIP3    H240494   3.574   4.374  10.720 -2.0129 -0.6088  0.1707
 6335TIP3   OH240495   2.765   6.708  11.511 -0.2293 -0.2024 -0.0239
 6335TIP3    H140496   2.825   6.767  11.555 -1.9539  1.5492  0.1238
 6335TIP3    H240497   2.722   6.659  11.581 -0.5234  0.1301  0.0335
 6336TIP3   OH240498   4.518   2.854  12.937  0.1473  0.0186  0.0962
 6336TIP3    H140499   4.510   2.872  12.843  0.2430  0.9676  0.2703
 6336TIP3    H240500   4.514   2.758  12.942 -1.8798  0.0103 -0.6865
 6337TIP3   OH240501   6.487   4.075  16.829 -0.4785  0.5685 -0.1784
 6337TIP3    H140502   6.453   4.082  16.740 -1.1652  0.8635  0.0973
 6337TIP3    H240503   6.410   4.082  16.885  0.0819  1.7289  0.4813
 6338TIP3   OH240504   2.611   1.997  11.697  0.3526 -0.2321  0.2143
 6338TIP3    H140505   2.522   2.027  11.678  0.2855  0.2539  1.2589
 6338TIP3    H240506   2.661   2.019  11.618 -0.2896  0.1553 -0.0907
 6339TIP3   OH240507   3.690   5.786  15.157  0.3445 -0.0026 -0.0195
 6339TIP3    H140508   3.679   5.881  15.161  1.4840  0.1195  0.6479
 6339TIP3    H240509   3.673   5.756  15.247  2.1715 -0.1493  0.3086
 6340TIP3   OH240510   6.731   1.600   2.993  0.1804  0.6846 -0.1721
 6340TIP3    H140511   6.750   1.554   3.075  2.5284  1.1735 -0.3744
 6340TIP3    H240512   6.653   1.557   2.959 -0.4761  0.0517  1.9889
 6341TIP3   OH240513   6.658   0.655  16.343  0.2525 -0.3666 -0.2299
 6341TIP3    H140514   6.717   0.626  16.273  0.3825 -0.7842  0.0531
 6341TIP3    H240515   6.710   0.648  16.423 -0.2700 -1.0083  0.0586
 6342TIP3   OH240516   5.805   2.680   2.086  0.5930 -0.2521  0.6875
 6342TIP3    H140517   5.876   2.743   2.074  0.5854 -0.3713  0.0099
 6342TIP3    H240518   5.849   2.599   2.112  1.0356 -1.2253 -2.6938
 6343TIP3   OH240519   1.815   5.126  11.399 -0.2340 -0.1736  0.0857
 6343TIP3    H140520   1.893   5.071  11.388 -0.4521 -0.4209 -0.2395
 6343TIP3    H240521   1.832   5.175  11.480  1.8171  2.3158 -1.6786
 6344TIP3   OH240522   3.529   2.193  16.829 -0.1612 -0.5284  0.0614
 6344TIP3    H140523   3.522   2.167  16.737  1.0673 -0.3713 -0.0867
 6344TIP3    H240524   3.597   2.260  16.830 -2.0151  1.4479  0.7106
 6345TIP3   OH240525   5.685   5.921  11.768 -0.1953  0.0969  0.6021
 6345TIP3    H140526   5.698   5.875  11.685 -0.7203 -1.6237  1.4391
 6345TIP3    H240527   5.624   5.992  11.746 -0.5102 -0.4727 -0.4394
 6346TIP3   OH240528   1.130   3.176  14.527 -0.0294  0.5258 -1.1125
 6346TIP3    H140529   1.041   3.211  14.533 -0.2386 -0.2275  1.5511
 6346TIP3    H240530   1.184   3.241  14.572  0.1683 -0.6721  0.4595
 6347TIP3   OH240531   6.732   1.151  11.156 -0.1486 -0.0760 -0.7497
 6347TIP3    H140532   6.755   1.224  11.098 -0.2787  1.4398  1.0261
 6347TIP3    H240533   6.661   1.185  11.210  1.7189 -0.4412  2.1363
 6348TIP3   OH240534   4.510   4.537   0.440  0.0399  0.3428  0.1013
 6348TIP3    H140535   4.587   4.481   0.431 -0.2079  0.1861 -1.4033
 6348TIP3    H240536   4.543   4.619   0.478  0.9285  0.2127 -0.3690
 6349TIP3   OH240537   2.058   3.332   4.458  0.1097  0.0149  0.0689
 6349TIP3    H140538   2.085   3.390   4.387 -0.9330  0.0635 -0.2998
 6349TIP3    H240539   1.963   3.344   4.465  0.3036  0.8419  2.2118
 6350TIP3   OH240540   6.041   0.758  11.507  0.0466 -0.1920  0.6957
 6350TIP3    H140541   6.006   0.727  11.590 -1.5754  1.0780  0.5387
 6350TIP3    H240542   6.035   0.682  11.449 -0.0857 -0.7064  1.3709
 6351TIP3   OH240543   4.823   6.845   5.179  0.3819  0.5460 -0.3554
 6351TIP3    H140544   4.754   6.900   5.215  0.8163  0.7419  0.2019
 6351TIP3    H240545   4.900   6.867   5.232  0.2891 -1.4693  0.7247
 6352TIP3   OH240546   5.822   2.089   1.754  0.3242 -0.3022  0.2816
 6352TIP3    H140547   5.849   2.165   1.703 -1.7896 -0.1958 -0.7919
 6352TIP3    H240548   5.869   2.015   1.714 -0.5394 -0.0722 -1.2145
 6353TIP3   OH240549   2.721   5.081   2.937 -0.7586 -0.1322  0.6515
 6353TIP3    H140550   2.802   5.037   2.911 -0.0647  1.7208 -0.5533
 6353TIP3    H240551   2.677   5.019   2.994  1.0966 -1.5490  0.6339
 6354TIP3   OH240552   6.553   2.636  11.670 -0.2388  0.1638  0.4031
 6354TIP3    H140553   6.583   2.617  11.759  0.3678 -0.8343  0.0092
 6354TIP3    H240554   6.625   2.608  11.614 -0.9526 -0.0312 -0.4491
 6355TIP3   OH240555   2.744   0.429  12.493 -0.0779 -0.0178 -0.0054
 6355TIP3    H140556   2.768   0.337  12.507 -3.3120 -0.9894 -0.0615
 6355TIP3    H240557   2.757   0.470  12.578  1.4320 -0.4919  0.0166
 6356TIP3   OH240558   0.294   0.516   2.217 -0.8452  0.6192 -0.2505
 6356TIP3    H140559   0.377   0.476   2.243 -1.6695 -1.4643 -0.6308
 6356TIP3    H240560   0.234   0.496   2.289 -1.3176  1.0847 -0.5090
 6357TIP3   OH240561   6.211   3.129  12.040  0.4251 -0.5219 -0.0370
 6357TIP3    H140562   6.248   3.167  11.960  1.6957  0.2379  0.8853
 6357TIP3    H240563   6.166   3.050  12.010  2.0675 -1.0161 -1.3339
 6358TIP3   OH240564   5.174   2.843   0.709  0.3895 -0.2415 -0.6622
 6358TIP3    H140565   5.130   2.802   0.634  2.3022  0.2658 -2.1457
 6358TIP3    H240566   5.217   2.770   0.754  0.8944 -0.2991 -1.2360
 6359TIP3   OH240567   2.760   2.547   3.784 -0.3474 -0.5196  0.0890
 6359TIP3    H140568   2.669   2.519   3.793 -0.1208 -1.0458  0.7683
 6359TIP3    H240569   2.757   2.616   3.718 -1.3706  0.0821  0.7337
 6360TIP3   OH240570   4.545   6.599   0.139  0.4989  0.3497  0.4674
 6360TIP3    H140571   4.540   6.683   0.184  0.0497  0.2256  0.6596
 6360TIP3    H240572   4.549   6.534   0.209 -0.0579  0.1613  0.3304
 6361TIP3   OH240573   6.262   0.396  10.448 -0.5368  0.5413 -0.3971
 6361TIP3    H140574   6.253   0.317  10.501  2.5321  1.6577  2.1285
 6361TIP3    H240575   6.320   0.370  10.376  1.7131  0.6619  1.2491
 6362TIP3   OH240576   5.105   0.197  14.547 -0.0154 -0.7914  0.8290
 6362TIP3    H140577   5.017   0.177  14.580 -0.3846 -0.8205 -0.1238
 6362TIP3    H240578   5.089   0.232  14.460  0.5900  3.4670  2.2308
 6363TIP3   OH240579   5.980   6.708  13.513  0.1859 -0.0483 -0.4258
 6363TIP3    H140580   6.038   6.667  13.449  0.6258  1.3482 -0.9567
 6363TIP3    H240581   6.015   6.796  13.524 -0.7314  0.1988  0.6815
 6364TIP3   OH240582   1.177   1.242  10.524  0.0003  0.3871  0.3196
 6364TIP3    H140583   1.212   1.161  10.488  0.2929  0.1717  1.0588
 6364TIP3    H240584   1.088   1.219  10.552  0.1111  0.2944  0.6017
 6365TIP3   OH240585   5.973   4.339  14.151 -0.1288 -0.1723  0.2156
 6365TIP3    H140586   5.930   4.278  14.092 -0.1099 -0.9950  1.0215
 6365TIP3    H240587   6.049   4.370  14.103 -1.2420  0.8051 -0.9838
 6366TIP3   OH240588   2.131   6.177   1.339 -0.0349 -0.1369 -0.7494
 6366TIP3    H140589   2.180   6.206   1.263  1.3858  1.8188  0.8155
 6366TIP3    H240590   2.047   6.223   1.333  0.4657  0.8056 -0.6284
 6367TIP3   OH240591   1.936   1.232   1.482 -0.0474  0.6160  0.1840
 6367TIP3    H140592   1.945   1.207   1.390 -0.3453 -0.3416  0.3971
 6367TIP3    H240593   2.024   1.257   1.509  0.4864 -1.1167  0.1751
 6368TIP3   OH240594   1.983   2.489  14.501 -0.1004  0.0352  0.1138
 6368TIP3    H140595   2.003   2.396  14.503 -3.0637 -0.7081 -0.6211
 6368TIP3    H240596   1.961   2.507  14.410  0.0467  1.3853  0.3182
 6369TIP3   OH240597   2.707   3.342   1.948  0.4438  0.1750  0.1148
 6369TIP3    H140598   2.755   3.260   1.940  0.8939  0.4090  0.3703
 6369TIP3    H240599   2.617   3.316   1.967  0.6439 -0.2546  0.4753
 6370TIP3   OH240600   1.148   0.590  14.348  0.5620 -0.2879 -0.0121
 6370TIP3    H140601   1.201   0.534  14.405  2.4653  0.0702 -1.3507
 6370TIP3    H240602   1.169   0.679  14.375  0.8394 -0.1344 -0.7150
 6371TIP3   OH240603   3.212   1.271   2.466 -0.2099 -0.0242  0.9409
 6371TIP3    H140604   3.202   1.348   2.523 -0.3406  0.5698  0.1354
 6371TIP3    H240605   3.124   1.255   2.432  0.0957  0.4596 -0.1279
 6372TIP3   OH240606   0.868   1.807   4.020 -0.2514  0.1702 -0.0695
 6372TIP3    H140607   0.812   1.848   4.086  1.2964  1.7951  0.3109
 6372TIP3    H240608   0.909   1.880   3.975 -0.3698 -0.9403 -2.0723
 6373TIP3   OH240609   4.300   6.791  15.584  0.2684 -0.5860 -0.6898
 6373TIP3    H140610   4.395   6.789  15.592  0.1760  0.2114  1.4373
 6373TIP3    H240611   4.283   6.808  15.492  2.3629  3.7941 -0.5109
 6374TIP3   OH240612   1.053   2.154  14.596 -0.4281  0.0414  0.4013
 6374TIP3    H140613   0.979   2.095  14.592 -1.0904  0.6526  2.3218
 6374TIP3    H240614   1.024   2.233  14.551 -0.0604 -0.5331 -0.8936
 6375TIP3   OH240615   6.047   1.107  16.753  0.2338  0.6443 -0.1520
 6375TIP3    H140616   5.955   1.087  16.767  0.1779  0.9819 -0.0104
 6375TIP3    H240617   6.082   1.031  16.707 -0.3257  0.8905 -1.0229
 6376TIP3   OH240618   3.274   1.529  15.475 -0.0600 -0.0723  0.3204
 6376TIP3    H140619   3.181   1.532  15.456 -0.0057 -0.1911  0.0310
 6376TIP3    H240620   3.290   1.438  15.500  0.3067 -0.5171 -1.3736
 6377TIP3   OH240621   0.908   4.173  12.963 -0.1178  0.3194  0.2329
 6377TIP3    H140622   0.861   4.256  12.967 -0.6418 -0.0020  0.8304
 6377TIP3    H240623   0.924   4.160  12.869 -0.8141  0.6613  0.0557
 6378TIP3   OH240624   0.015   5.608   5.000  0.2202 -0.1768 -0.0135
 6378TIP3    H140625   0.065   5.687   5.018 -1.7014  1.5473 -1.6736
 6378TIP3    H240626   0.023   5.595   4.906 -1.3264 -0.6004 -0.1225
 6379TIP3   OH240627   1.719   3.552   3.381  0.0823 -0.6967  0.0704
 6379TIP3    H140628   1.699   3.645   3.388 -0.2024 -0.7431 -0.1040
 6379TIP3    H240629   1.684   3.513   3.461 -0.8840 -0.8359 -0.4047
 6380TIP3   OH240630   1.651   6.674   0.692 -0.2304  0.0051 -0.1413
 6380TIP3    H140631   1.643   6.746   0.630 -2.8392 -0.5971 -0.6071
 6380TIP3    H240632   1.689   6.714   0.770 -0.3462  1.5815 -0.8655
 6381TIP3   OH240633   3.929   6.259  13.756  0.1318  0.1990 -0.0804
 6381TIP3    H140634   3.923   6.164  13.761 -0.1103  0.2592  1.4352
 6381TIP3    H240635   3.844   6.286  13.720  0.9458 -0.2133 -2.5171
 6382TIP3   OH240636   1.264   3.572  10.535  0.0499  0.3105 -0.2979
 6382TIP3    H140637   1.223   3.638  10.479 -0.9241  1.8960  2.1054
 6382TIP3    H240638   1.203   3.499  10.533 -1.0372  1.1635  0.2481
 6383TIP3   OH240639   3.063   6.496   3.908  0.0519 -0.5401  0.2104
 6383TIP3    H140640   3.152   6.467   3.930  0.5747 -0.8623 -2.0189
 6383TIP3    H240641   3.024   6.421   3.862 -1.0859 -0.1100  0.4356
 6384TIP3   OH240642   2.965   1.372  11.257  0.6533 -0.2554  0.1701
 6384TIP3    H140643   2.980   1.278  11.247 -2.7811 -0.8320 -0.9654
 6384TIP3    H240644   2.975   1.407  11.168 -2.3028 -0.4319 -0.3477
 6385TIP3   OH240645   0.611   2.977   0.382 -0.3843 -0.2480  0.1363
 6385TIP3    H140646   0.533   2.927   0.408  1.0777 -1.8600  1.6495
 6385TIP3    H240647   0.622   2.957   0.289 -2.1102  0.5498 -0.2914
 6386TIP3   OH240648   1.085   4.761  10.854  0.1802 -0.0105  0.5794
 6386TIP3    H140649   1.026   4.833  10.875  0.1520  0.7148 -1.6760
 6386TIP3    H240650   1.142   4.753  10.931  0.9958  3.2913  0.4688
 6387TIP3   OH240651   6.203   0.438   2.584  0.2804  0.2066  0.1670
 6387TIP3    H140652   6.260   0.508   2.615 -0.7595 -0.1346  3.2014
 6387TIP3    H240653   6.247   0.357   2.610  0.3999 -0.2249 -1.2956
 6388TIP3   OH240654   2.086   0.050  16.784  0.1497  0.0179  0.2280
 6388TIP3    H140655   2.052   0.112  16.720 -0.8342 -0.2663  0.4655
 6388TIP3    H240656   2.042  -0.032  16.765  0.2893 -0.2175  0.8959
 6389TIP3   OH240657   1.820   5.758  15.934  0.3969  0.1276  0.0748
 6389TIP3    H140658   1.728   5.737  15.919  0.8160 -0.9948 -1.1103
 6389TIP3    H240659   1.837   5.832  15.876 -0.5069  2.5138  2.6199
 6390TIP3   OH240660   6.666   3.928   4.407  0.6003 -0.0133  0.2360
 6390TIP3    H140661   6.638   4.006   4.455 -0.1205 -0.2062  0.1484
 6390TIP3    H240662   6.649   3.949   4.315  0.2957 -0.3040  0.2199
 6391TIP3   OH240663   0.699   2.046  15.487 -0.0624  0.1166  0.3469
 6391TIP3    H140664   0.607   2.030  15.467  0.6051 -1.3700 -2.0099
 6391TIP3    H240665   0.700   2.128  15.535 -2.5024  0.8849 -0.7741
 6392TIP3   OH240666   0.489   3.317  13.501  0.2420 -0.0973 -0.7966
 6392TIP3    H140667   0.523   3.266  13.574 -1.7285  1.4691  1.3267
 6392TIP3    H240668   0.420   3.261  13.464 -1.3643  0.6140  1.0146
 6393TIP3   OH240669   6.803   6.440   2.448 -0.1965  0.0511  0.7451
 6393TIP3    H140670   6.871   6.373   2.457 -0.8962 -0.4686  2.7100
 6393TIP3    H240671   6.837   6.500   2.382  0.8478 -1.7556 -0.4468
 6394TIP3   OH240672   4.896   5.074  11.508 -0.2644 -0.1554  0.3238
 6394TIP3    H140673   4.840   5.148  11.529  1.0919  0.6952  1.0346
 6394TIP3    H240674   4.887   5.015  11.583 -0.1185  0.0283  0.4845
 6395TIP3   OH240675   1.867   0.482  13.421  0.0827 -0.3825 -0.4864
 6395TIP3    H140676   1.826   0.414  13.367 -0.5734 -0.9917  0.7473
 6395TIP3    H240677   1.955   0.450  13.438 -0.2803 -1.0145  0.2323
 6396TIP3   OH240678   5.659   3.413   2.880  0.4589  0.0714 -0.3738
 6396TIP3    H140679   5.695   3.483   2.826 -0.1561  0.0626 -0.8070
 6396TIP3    H240680   5.592   3.456   2.935 -0.7569 -0.3501 -1.4710
 6397TIP3   OH240681   2.564   4.061  16.473 -0.3590  0.2334 -0.7406
 6397TIP3    H140682   2.573   4.074  16.379 -0.5185  0.5861 -0.7077
 6397TIP3    H240683   2.562   4.149  16.510 -2.5912  0.1902 -0.6231
 6398TIP3   OH240684   3.093   2.204   0.890  0.6912  0.0606  0.4465
 6398TIP3    H140685   3.095   2.288   0.844 -0.3185  0.2521  0.7149
 6398TIP3    H240686   3.118   2.139   0.824 -0.1746  0.3902 -0.2288
 6399TIP3   OH240687   4.776   0.034   5.731 -0.1670 -0.0079  0.5809
 6399TIP3    H140688   4.805  -0.054   5.757 -1.2186 -0.7214 -0.5590
 6399TIP3    H240689   4.847   0.067   5.676 -0.4780 -0.8376 -0.3502
 6400TIP3   OH240690   4.866   5.997  14.734  0.2500 -0.1516  0.0987
 6400TIP3    H140691   4.787   6.048  14.719 -1.1346 -2.4159 -0.8935
 6400TIP3    H240692   4.841   5.933  14.801  1.3082 -0.7754 -0.0803
 6401TIP3   OH240693   2.532   2.444  14.435 -0.2375  0.1560 -0.2908
 6401TIP3    H140694   2.504   2.533  14.457 -1.3495  0.1843 -1.6426
 6401TIP3    H240695   2.570   2.452  14.348  3.2712 -0.0781  1.0781
 6402TIP3   OH240696   5.382   0.773   5.824  0.5859  0.4803  0.0702
 6402TIP3    H140697   5.472   0.783   5.792  0.0326  0.7444 -1.4355
 6402TIP3    H240698   5.346   0.700   5.774  0.2254 -0.2326  1.3205
 6403TIP3   OH240699   4.531   1.034   5.169 -0.1672  0.3238 -0.1344
 6403TIP3    H140700   4.607   0.977   5.183  1.4792  1.7063 -2.6934
 6403TIP3    H240701   4.520   1.036   5.074 -0.8859  3.3073 -0.0819
 6404TIP3   OH240702   2.258   3.434  15.759  0.6246  0.3536 -0.5351
 6404TIP3    H140703   2.339   3.386  15.739  0.6519 -0.1798  0.7400
 6404TIP3    H240704   2.188   3.379  15.724  0.5460 -1.4765  2.1981
 6405TIP3   OH240705   2.274   3.408   1.464  0.0037 -0.2486  0.4384
 6405TIP3    H140706   2.252   3.488   1.417  3.3445  0.4941 -0.1153
 6405TIP3    H240707   2.189   3.370   1.488 -1.7897  1.3741 -2.7059
 6406TIP3   OH240708   2.914   5.836   0.066 -0.5016  0.1535  0.6651
 6406TIP3    H140709   2.843   5.773   0.081  0.7121 -1.6665 -0.7572
 6406TIP3    H240710   2.967   5.795  -0.003  0.6625  2.5164  0.0830
 6407TIP3   OH240711   1.354   3.011   5.678  0.4562 -0.3620 -0.1159
 6407TIP3    H140712   1.424   3.022   5.743  0.1048  0.9502  0.0652
 6407TIP3    H240713   1.298   2.943   5.716  0.7993 -0.3249  0.4766
 6408TIP3   OH240714   0.875   4.767  15.260 -0.6324  0.3411  0.0390
 6408TIP3    H140715   0.866   4.862  15.271  1.3160  0.3057  2.8937
 6408TIP3    H240716   0.863   4.731  15.348 -1.4184 -2.1125 -0.9934
 6409TIP3   OH240717   0.691   0.987  14.787  0.4123  0.2959  1.0473
 6409TIP3    H140718   0.734   1.019  14.708 -0.9383  0.7702  0.4672
 6409TIP3    H240719   0.722   1.047  14.856  1.0783  0.2947  0.7610
 6410TIP3   OH240720   0.172   0.096  14.670 -0.6629  0.1737 -0.4559
 6410TIP3    H140721   0.203   0.180  14.703 -2.3076  2.0452 -3.2994
 6410TIP3    H240722   0.168   0.040  14.748  0.6490  2.6062  1.5245
 6411TIP3   OH240723   6.852   5.101  16.016  0.5862  0.1575 -0.3261
 6411TIP3    H140724   6.831   5.050  16.095 -1.0097  0.3798 -0.5598
 6411TIP3    H240725   6.823   5.190  16.037 -1.6268 -0.1346 -1.7579
 6412TIP3   OH240726   1.826   3.738  16.876  0.0027 -0.5264  0.3049
 6412TIP3    H140727   1.732   3.738  16.857  0.7119 -0.4883 -4.3367
 6412TIP3    H240728   1.854   3.828  16.861  1.2165 -1.1967 -1.8394
 6413TIP3   OH240729   5.467   0.406  10.937  0.1524 -0.2464  0.2627
 6413TIP3    H140730   5.398   0.402  10.871 -0.4993 -2.7908  0.9857
 6413TIP3    H240731   5.422   0.432  11.017  0.7655  1.8506 -0.0222
 6414TIP3   OH240732   1.875   1.258  11.461  0.6176 -0.4010  0.4612
 6414TIP3    H140733   1.959   1.300  11.480  0.1985  1.1123 -0.8297
 6414TIP3    H240734   1.810   1.319  11.495  0.0111 -1.2896  0.9262
 6415TIP3   OH240735   3.595   6.727   0.820 -0.6005 -0.5227  0.3056
 6415TIP3    H140736   3.601   6.635   0.845  0.4638 -0.8806 -1.1639
 6415TIP3    H240737   3.681   6.748   0.784 -0.9968  0.9026  0.1345
 6416TIP3   OH240738   5.128   0.484   1.732  0.8416 -0.5082  0.3611
 6416TIP3    H140739   5.137   0.410   1.792  1.5952 -0.9881 -0.3089
 6416TIP3    H240740   5.054   0.461   1.676  0.3840 -0.2416  0.8559
 6417TIP3   OH240741   3.877   6.077  10.070 -0.3414 -0.1096 -0.2321
 6417TIP3    H140742   3.796   6.083  10.020 -1.4625  0.0608  1.5573
 6417TIP3    H240743   3.874   6.150  10.131 -0.7182 -2.2674  2.5062
 6418TIP3   OH240744   1.212   3.330  13.719  0.4265 -0.0229 -0.1235
 6418TIP3    H140745   1.217   3.264  13.651 -1.2545 -0.2428 -0.0870
 6418TIP3    H240746   1.267   3.402  13.687  0.6830 -0.6347 -1.0907
 6419TIP3   OH240747   0.637   6.304   2.367  0.6239 -0.3840  0.5876
 6419TIP3    H140748   0.650   6.258   2.284 -0.8476 -0.3986  0.3477
 6419TIP3    H240749   0.724   6.338   2.389  1.0408 -0.3693 -0.9598
 6420TIP3   OH240750   5.936   4.287   1.341  0.6417  0.4243 -0.3270
 6420TIP3    H140751   5.964   4.197   1.357  1.1147  0.6363  0.0602
 6420TIP3    H240752   5.846   4.278   1.308  0.1789 -0.1340  0.9921
 6421TIP3   OH240753   1.542   3.245   2.774  0.5753  0.1745 -0.1586
 6421TIP3    H140754   1.476   3.266   2.840 -0.3412  1.4163 -1.4161
 6421TIP3    H240755   1.624   3.277   2.812  0.1006  0.6895  0.4607
 6422TIP3   OH240756   4.244   5.181  12.579  0.1406 -0.3295  0.7923
 6422TIP3    H140757   4.296   5.183  12.659  1.2857 -1.0350  0.0962
 6422TIP3    H240758   4.153   5.190  12.609  0.6332  0.7933  2.0427
 6423TIP3   OH240759   4.875   2.504   5.511  0.3598  0.3502  0.1482
 6423TIP3    H140760   4.913   2.569   5.453  1.0223 -1.7765 -1.9316
 6423TIP3    H240761   4.946   2.477   5.568  0.1407  1.2266  0.8616
 6424TIP3   OH240762   4.391   2.352  13.479 -0.1405  0.1817  0.4823
 6424TIP3    H140763   4.469   2.399  13.507  1.1767 -1.6394  0.0606
 6424TIP3    H240764   4.371   2.293  13.552 -0.4225 -0.1638  0.1337
 6425TIP3   OH240765   4.573   5.431  12.053  0.4127 -0.0456  0.0021
 6425TIP3    H140766   4.495   5.438  11.997 -0.3624 -1.1823  0.8805
 6425TIP3    H240767   4.637   5.384  11.999  0.3714  0.5802 -0.6025
 6426TIP3   OH240768   4.625   0.565   0.175 -0.5208  0.1853 -0.4670
 6426TIP3    H140769   4.554   0.515   0.216 -0.5745  0.7489  0.1526
 6426TIP3    H240770   4.615   0.653   0.210 -0.4063  0.6257 -1.5147
 6427TIP3   OH240771   3.937   5.361  12.565  0.0796 -0.0266 -0.8693
 6427TIP3    H140772   4.003   5.400  12.507  0.2844  1.0798  0.0782
 6427TIP3    H240773   3.973   5.275  12.587  0.9331  0.3347 -0.8189
 6428TIP3   OH240774   3.600   3.242   1.572  0.6611 -0.3613 -0.0640
 6428TIP3    H140775   3.689   3.223   1.544  1.0064  0.8228  0.1769
 6428TIP3    H240776   3.599   3.222   1.665  0.6041 -0.5752 -0.1084
 6429TIP3   OH240777   6.224   1.458  11.584 -0.2942  0.2209  0.0371
 6429TIP3    H140778   6.152   1.445  11.646 -1.3288 -0.3876 -1.2363
 6429TIP3    H240779   6.185   1.508  11.512  0.8725  0.9126 -0.1451
 6430TIP3   OH240780   6.309   5.310  13.524  0.2745 -0.8786  0.1935
 6430TIP3    H140781   6.305   5.346  13.613 -0.6312  0.2122 -0.2671
 6430TIP3    H240782   6.245   5.361  13.475 -0.8284 -2.9073 -0.5917
 6431TIP3   OH240783   3.771   1.357   3.343  0.2012  0.1242  0.2463
 6431TIP3    H140784   3.783   1.447   3.374  0.3882  0.2035 -0.0460
 6431TIP3    H240785   3.725   1.367   3.259  0.4090 -0.0393  0.1116
 6432TIP3   OH240786   4.137   3.054   2.467 -0.1011 -0.1090 -0.5422
 6432TIP3    H140787   4.222   3.089   2.493  0.9828  0.0566 -3.8596
 6432TIP3    H240788   4.079   3.129   2.468  0.3889  0.2760 -0.5643
 6433TIP3   OH240789   6.576   1.287   3.877  0.2495  0.0895  0.1506
 6433TIP3    H140790   6.577   1.240   3.794 -1.6581  0.5067 -0.1475
 6433TIP3    H240791   6.666   1.319   3.887  0.5315  0.0138 -1.7257
 6434TIP3   OH240792   2.671   6.119  10.702  0.0468  0.8084 -0.5241
 6434TIP3    H140793   2.597   6.116  10.763 -0.5558  0.6235 -1.2454
 6434TIP3    H240794   2.679   6.029  10.669  0.6157  0.8197 -0.4255
 6435TIP3   OH240795   5.037   2.974  14.677  0.4900 -0.1165  0.6795
 6435TIP3    H140796   5.027   2.883  14.651  0.0608 -0.1570  0.9746
 6435TIP3    H240797   5.005   2.977  14.767  0.4968  0.3280  0.6685
 6436TIP3   OH240798   5.296   0.095   5.119 -0.6126  0.4477  0.1009
 6436TIP3    H140799   5.244   0.023   5.084  0.9385 -0.0558 -1.3222
 6436TIP3    H240800   5.284   0.166   5.055  1.3378 -0.0868 -0.9532
 6437TIP3   OH240801   6.753   6.087   6.119  0.3023 -0.1548 -0.0821
 6437TIP3    H140802   6.758   6.162   6.060 -0.6576 -0.5294 -0.6553
 6437TIP3    H240803   6.724   6.125   6.202  0.1187  0.1507 -0.2806
 6438TIP3   OH240804   3.865   4.494   2.564 -0.3210 -0.1217  0.2856
 6438TIP3    H140805   3.872   4.481   2.659  1.3600 -0.5802  0.1322
 6438TIP3    H240806   3.933   4.558   2.543  0.1510 -0.9285 -0.7622
 6439TIP3   OH240807   0.982   4.719   2.761 -0.3142  0.1175  0.3609
 6439TIP3    H140808   1.054   4.692   2.818 -0.2680  0.3484  0.4142
 6439TIP3    H240809   1.013   4.800   2.720 -0.9123  0.7429  1.1104
 6440TIP3   OH240810   1.415   1.807   4.324 -0.1168  0.1305  0.8000
 6440TIP3    H140811   1.356   1.840   4.256 -0.8019  0.6961  1.6549
 6440TIP3    H240812   1.391   1.855   4.403 -0.0322 -1.2433  1.6974
 6441TIP3   OH240813   3.797   3.949  13.862  0.5111  0.2047 -0.0157
 6441TIP3    H140814   3.715   3.901  13.866  1.1764 -0.9769  0.0007
 6441TIP3    H240815   3.835   3.924  13.777  1.5267 -0.4243  0.6106
 6442TIP3   OH240816   3.839   6.668   5.466 -0.5084 -0.0563  0.4866
 6442TIP3    H140817   3.885   6.689   5.384 -1.2635 -1.3302 -0.2999
 6442TIP3    H240818   3.770   6.607   5.439 -1.7380  0.6765  1.8554
 6443TIP3   OH240819   5.558   0.898  14.875  0.3753  0.0833 -0.1770
 6443TIP3    H140820   5.563   0.972  14.815 -0.6714  0.1745 -0.1789
 6443TIP3    H240821   5.649   0.877  14.896  0.6884  2.0950  0.7305
 6444TIP3   OH240822   2.242   6.114   4.754 -0.1193  0.4703 -0.5698
 6444TIP3    H140823   2.314   6.152   4.805  0.8170  0.5544 -1.9067
 6444TIP3    H240824   2.175   6.183   4.753 -0.2487  0.3882  0.6926
 6445TIP3   OH240825   2.459   1.804   5.696  0.1380  0.6099  0.1613
 6445TIP3    H140826   2.406   1.776   5.771 -0.5785  2.0741  0.2252
 6445TIP3    H240827   2.528   1.858   5.734  0.2920  0.6367 -0.1536
 6446TIP3   OH240828   2.560   4.808  14.360  0.1444  0.0394 -0.5136
 6446TIP3    H140829   2.524   4.726  14.395 -1.9320  0.9536 -0.4038
 6446TIP3    H240830   2.651   4.786  14.338  0.4692 -1.5717  1.9911
 6447TIP3   OH240831   0.159   0.850   9.904  0.2266 -0.1135 -0.3226
 6447TIP3    H140832   0.182   0.908   9.977 -0.5765  1.8718 -1.5692
 6447TIP3    H240833   0.232   0.859   9.842 -0.0333 -0.2282 -0.6482
 6448TIP3   OH240834   4.123   4.520  16.319 -0.3913  0.1098  0.0429
 6448TIP3    H140835   4.050   4.574  16.290 -0.3127 -1.0519 -2.7085
 6448TIP3    H240836   4.089   4.468  16.391 -2.4435 -0.5912 -1.3397
 6449TIP3   OH240837   2.974   0.528   3.901  0.3194 -0.1829 -0.0298
 6449TIP3    H140838   2.883   0.497   3.900  1.0679 -2.8387  1.8928
 6449TIP3    H240839   2.975   0.601   3.840 -2.5389 -1.7234 -2.1821
 6450TIP3   OH240840   4.240   0.538   3.994 -0.3585 -0.1823  0.1820
 6450TIP3    H140841   4.170   0.474   4.004 -0.2158 -0.5304 -0.8841
 6450TIP3    H240842   4.316   0.486   3.967 -0.0447  0.3489  0.0299
 6451TIP3   OH240843   2.338   2.792  15.730  0.0796 -0.7910 -0.2882
 6451TIP3    H140844   2.247   2.767  15.711 -0.4824  0.8295  0.0877
 6451TIP3    H240845   2.376   2.714  15.770 -1.5487 -1.1055  0.7650
 6452TIP3   OH240846   3.455   6.533   4.225 -0.1658 -0.1758 -0.0106
 6452TIP3    H140847   3.401   6.523   4.147  0.1567  1.1290 -0.4153
 6452TIP3    H240848   3.518   6.601   4.203  0.1225  0.0043  1.2845
 6453TIP3   OH240849   4.292   3.632   2.941 -0.4187 -0.4740 -0.4610
 6453TIP3    H140850   4.260   3.555   2.895  2.1467 -2.0855  0.2684
 6453TIP3    H240851   4.365   3.664   2.887 -0.1842  0.2546  0.2596
 6454TIP3   OH240852   1.157   2.297  12.899  0.1145 -0.3889 -0.1340
 6454TIP3    H140853   1.232   2.328  12.949  1.3821 -0.5273 -1.8669
 6454TIP3    H240854   1.178   2.205  12.879 -0.1539 -0.2155 -1.2603
 6455TIP3   OH240855   4.564   5.017   3.291  0.4051 -0.0793  0.0132
 6455TIP3    H140856   4.555   5.101   3.336  0.0062 -0.0849 -0.0517
 6455TIP3    H240857   4.614   4.963   3.352  1.1954  0.3895 -0.1996
 6456TIP3   OH240858   2.349   3.104   0.374 -0.0600  0.2306 -0.2394
 6456TIP3    H140859   2.294   3.174   0.338 -1.3405 -1.1425 -1.0570
 6456TIP3    H240860   2.409   3.082   0.303 -0.2153 -0.0594 -0.2819
 6457TIP3   OH240861   0.695   3.674   4.404 -0.3622 -0.4810 -0.1929
 6457TIP3    H140862   0.671   3.708   4.490 -3.1848 -1.0255 -0.6851
 6457TIP3    H240863   0.790   3.663   4.408 -0.0526  2.1730  1.8504
 6458TIP3   OH240864   3.120   3.768   2.345  0.5848 -0.1058  0.3029
 6458TIP3    H140865   3.116   3.834   2.275 -0.1085 -0.9873 -0.5084
 6458TIP3    H240866   3.072   3.693   2.311 -0.5845 -0.2366  2.0813
 6459TIP3   OH240867   1.597   5.239   4.623 -0.2235  0.1797  0.1616
 6459TIP3    H140868   1.606   5.192   4.706  1.9239 -0.5715 -0.4350
 6459TIP3    H240869   1.637   5.324   4.640 -2.6613  1.3107  0.7618
 6460TIP3   OH240870   1.936   2.697   1.150  0.3604  0.4597  0.5507
 6460TIP3    H140871   1.964   2.776   1.104  1.6300 -1.5122 -2.3534
 6460TIP3    H240872   1.868   2.659   1.093  1.7159 -1.8812  0.3686
 6461TIP3   OH240873   0.200   0.650   1.243 -0.2817 -0.1139 -0.1577
 6461TIP3    H140874   0.113   0.613   1.228 -1.1844  1.5988  0.5220
 6461TIP3    H240875   0.227   0.685   1.158 -0.6719  0.1634 -0.1697
 6462TIP3   OH240876   1.998   3.433  15.536 -0.3710 -0.0468  0.1930
 6462TIP3    H140877   1.992   3.481  15.619  1.8397  1.3395 -0.3435
 6462TIP3    H240878   2.038   3.349  15.559 -1.2845 -0.3444  0.7261
 6463TIP3   OH240879   0.586   4.775  16.674  0.3206 -0.2470  0.5690
 6463TIP3    H140880   0.583   4.816  16.588 -0.2323  0.7506  1.0440
 6463TIP3    H240881   0.494   4.761  16.697  0.4346  0.0314  1.2350
 6464TIP3   OH240882   1.925   1.021   6.017 -0.3325  0.3037 -0.4199
 6464TIP3    H140883   2.011   1.064   6.011 -0.6338  0.9254 -0.4507
 6464TIP3    H240884   1.874   1.079   6.075  0.3401 -1.8559  2.5409
 6465TIP3   OH240885   0.464   5.540   0.137 -0.3186  0.4681  0.0075
 6465TIP3    H140886   0.554   5.535   0.169 -1.2348  2.3286  3.4010
 6465TIP3    H240887   0.469   5.597   0.061  1.2345  1.7501  0.9991
 6466TIP3   OH240888   0.312   5.514  14.360 -0.1075 -0.1264  0.3757
 6466TIP3    H140889   0.239   5.484  14.306 -0.0471  0.6994 -0.1907
 6466TIP3    H240890   0.286   5.495  14.450 -1.3237  0.8040  0.2310
 6467TIP3   OH240891   3.539   6.858  11.943  0.2735 -0.0814  0.0271
 6467TIP3    H140892   3.491   6.936  11.916 -0.5493 -0.1155  1.3486
 6467TIP3    H240893   3.525   6.851  12.037 -0.9890 -2.6842 -0.2485
 6468TIP3   OH240894   5.654   0.496  10.510 -0.2863 -0.4580 -0.3136
 6468TIP3    H140895   5.667   0.401  10.512 -0.4779 -0.4955 -0.7443
 6468TIP3    H240896   5.635   0.516  10.418 -0.8646 -0.0874 -0.1233
 6469TIP3   OH240897   4.365   4.012  12.104  0.5981  0.1243 -0.1234
 6469TIP3    H140898   4.360   3.956  12.181 -0.9934  1.0378  0.4905
 6469TIP3    H240899   4.405   4.093  12.135 -1.0174  0.9037  0.0656
 6470TIP3   OH240900   5.685   6.684  15.857  0.4260  0.0836  0.4898
 6470TIP3    H140901   5.739   6.646  15.787 -1.2121 -0.5621 -0.4956
 6470TIP3    H240902   5.726   6.654  15.938  2.6533  1.2379 -0.1431
 6471TIP3   OH240903   2.908   2.876  10.764  0.1941 -0.3505 -0.2123
 6471TIP3    H140904   2.940   2.786  10.761 -0.1123 -0.4313 -1.9800
 6471TIP3    H240905   2.813   2.868  10.770  0.0093 -0.2098 -2.2741
 6472TIP3   OH240906   5.107   1.273   2.909  0.9576  0.0429  0.0930
 6472TIP3    H140907   5.044   1.342   2.929  0.4904 -0.8917  2.1273
 6472TIP3    H240908   5.158   1.263   2.989  1.1929 -1.7803 -0.2274
 6473TIP3   OH240909   5.123   1.315  10.321  0.6579  0.5123 -0.1446
 6473TIP3    H140910   5.161   1.257  10.256 -0.8009 -1.6202  0.7657
 6473TIP3    H240911   5.087   1.388  10.271  1.8024  0.2159 -1.4379
 6474TIP3   OH240912   1.545   5.312  12.546  0.3634 -0.1478 -0.7243
 6474TIP3    H140913   1.461   5.359  12.550  0.2008 -0.5076  0.6712
 6474TIP3    H240914   1.609   5.375  12.578  0.1413 -0.8171  1.1725
 6475TIP3   OH240915   6.701   0.015   3.440 -0.2159  0.2871 -0.4992
 6475TIP3    H140916   6.677   0.015   3.347  2.0515  2.6182 -1.2086
 6475TIP3    H240917   6.670   0.099   3.473  0.1518  0.0489  0.4979
 6476TIP3   OH240918   4.071   2.489   2.043 -0.0239  0.1335 -0.6961
 6476TIP3    H140919   3.980   2.463   2.056 -0.2799  1.8322  1.3968
 6476TIP3    H240920   4.120   2.407   2.049 -1.3556 -0.8113 -1.8559
 6477TIP3   OH240921   6.508   2.688   4.291  0.8012  0.1960 -0.1511
 6477TIP3    H140922   6.416   2.710   4.304  0.5647 -0.3578 -0.8193
 6477TIP3    H240923   6.520   2.606   4.337  0.8723  0.0915 -0.3544
 6478TIP3   OH240924   0.367   4.961  13.638 -0.1224 -1.0690  0.3621
 6478TIP3    H140925   0.376   4.974  13.732  2.0360 -2.4288  0.4180
 6478TIP3    H240926   0.402   5.041  13.599 -1.1523 -0.4412  0.6729
 6479TIP3   OH240927   5.705   3.060   5.586  0.0411  0.1714 -0.0898
 6479TIP3    H140928   5.796   3.087   5.591  0.1957 -0.2438 -0.5224
 6479TIP3    H240929   5.659   3.115   5.650  0.9886 -1.3089  1.9650
 6480TIP3   OH240930   3.846   5.185  11.303  0.4754  0.0774 -0.2315
 6480TIP3    H140931   3.858   5.262  11.358  0.6711 -0.0167 -0.1413
 6480TIP3    H240932   3.933   5.165  11.271  0.4977 -0.3628  0.0925
 6481TIP3   OH240933   3.414   2.148  13.407 -0.7962 -0.0082  0.1847
 6481TIP3    H140934   3.352   2.080  13.433  0.3686 -0.3659  2.2459
 6481TIP3    H240935   3.485   2.142  13.471  0.8981  1.0477 -1.4756
 6482TIP3   OH240936   0.111   6.479  15.109  0.1880 -0.4654  0.5786
 6482TIP3    H140937   0.016   6.469  15.118  0.3094 -0.8011  1.5043
 6482TIP3    H240938   0.148   6.420  15.173  1.0421 -0.5965 -0.0231
 6483TIP3   OH240939   1.689   5.071   5.929 -0.5170  0.1922  0.0881
 6483TIP3    H140940   1.737   5.109   5.855  1.2238  0.0872  1.0984
 6483TIP3    H240941   1.712   4.978   5.927 -0.9480  0.0791  0.4023
 6484TIP3   OH240942   1.125   5.776  10.380  0.2044 -0.1245 -0.1508
 6484TIP3    H140943   1.174   5.718  10.320 -0.3841  0.1349 -0.9017
 6484TIP3    H240944   1.076   5.834  10.322 -2.1867 -1.3407  0.5101
 6485TIP3   OH240945   1.966   3.726   2.779  0.0360  0.1337  0.6905
 6485TIP3    H140946   1.903   3.675   2.830 -0.8678  0.6242  0.0893
 6485TIP3    H240947   1.938   3.714   2.688  1.2069 -0.1615  0.3472
 6486TIP3   OH240948   2.444   5.952   1.520  0.0509  0.1981 -0.0237
 6486TIP3    H140949   2.475   5.907   1.441  0.8180  1.0553 -0.2219
 6486TIP3    H240950   2.366   5.904   1.545  0.9264 -1.3651 -0.1415
 6487TIP3   OH240951   2.810   0.463   3.526  0.5184 -0.4135  0.1260
 6487TIP3    H140952   2.720   0.430   3.532  0.7795 -1.0574  0.5294
 6487TIP3    H240953   2.845   0.422   3.446  0.4775 -0.2140  0.0047
 6488TIP3   OH240954   0.345   3.084  15.172 -0.6075  0.3676 -0.2303
 6488TIP3    H140955   0.385   3.166  15.202 -0.4529 -0.3337  1.5806
 6488TIP3    H240956   0.313   3.042  15.252 -1.6695 -0.8372 -1.2471
 6489TIP3   OH240957   6.743   4.071   6.018 -0.4297 -0.1956 -0.4571
 6489TIP3    H140958   6.803   4.138   6.051 -0.6504 -1.8874  3.9671
 6489TIP3    H240959   6.801   4.003   5.982  0.2217 -0.5862  1.2470
 6490TIP3   OH240960   3.113   2.208  11.249  0.0451 -0.0274  0.4512
 6490TIP3    H140961   3.042   2.259  11.211  1.3189  2.2044  0.8623
 6490TIP3    H240962   3.180   2.205  11.180 -0.1506 -1.5532  0.2896
 6491TIP3   OH240963   5.202   5.136  10.205 -0.4116 -0.2580 -0.3967
 6491TIP3    H140964   5.166   5.071  10.144  0.3757  0.2864 -1.4705
 6491TIP3    H240965   5.134   5.202  10.214 -1.3613 -1.3767  0.9798
 6492TIP3   OH240966   0.884   2.944   1.590  0.5792  0.1795  0.0265
 6492TIP3    H140967   0.896   2.989   1.673 -2.0366 -0.0586  0.6236
 6492TIP3    H240968   0.959   2.885   1.584  1.5083  1.1380  1.5726
 6493TIP3   OH240969   0.195   4.701  12.153 -0.3857 -0.2604  0.3252
 6493TIP3    H140970   0.238   4.619  12.129  0.2226  0.3834 -0.8280
 6493TIP3    H240971   0.260   4.769  12.135 -1.0181  0.5109  0.9046
 6494TIP3   OH240972   2.968   4.026  14.095  0.0631 -0.3781 -0.1861
 6494TIP3    H140973   2.933   4.115  14.090  0.2815 -0.3574 -2.4233
 6494TIP3    H240974   2.918   3.985  14.166  0.1235  1.5526  1.0563
 6495TIP3   OH240975   6.426   1.689  10.168 -0.5983 -0.2527 -0.7228
 6495TIP3    H140976   6.403   1.682  10.076 -2.5340  1.1497 -0.3998
 6495TIP3    H240977   6.455   1.780  10.178 -1.2533 -0.1346  0.2049
 6496TIP3   OH240978   2.318   5.585  13.820  0.1855 -0.0064 -0.0972
 6496TIP3    H140979   2.300   5.528  13.895  2.3800  0.3852  0.8225
 6496TIP3    H240980   2.280   5.669  13.845  0.6471  0.0433  0.4740
 6497TIP3   OH240981   4.240   6.726  16.332 -0.7039 -0.6534 -0.0869
 6497TIP3    H140982   4.278   6.639  16.349  0.0643 -0.1003  1.1019
 6497TIP3    H240983   4.237   6.731  16.236 -3.0392 -2.9370 -0.2498
 6498TIP3   OH240984   0.217   2.062   5.711 -0.4648 -0.2544 -0.0357
 6498TIP3    H140985   0.154   1.990   5.705  0.5413 -1.1840  0.1745
 6498TIP3    H240986   0.290   2.035   5.654  0.0405  0.4766  0.2423
 6499TIP3   OH240987   3.506   3.247  14.088 -0.0061 -0.0352  0.2071
 6499TIP3    H140988   3.558   3.243  14.007  0.7480 -1.7166  0.7471
 6499TIP3    H240989   3.515   3.338  14.117  0.4588  0.3644 -1.1145
 6500TIP3   OH240990   3.690   5.885   4.464  0.1446 -0.0625  0.2413
 6500TIP3    H140991   3.760   5.930   4.510  0.0551 -1.2488  1.5878
 6500TIP3    H240992   3.679   5.802   4.511 -0.3646 -1.0662 -1.5528
 6501TIP3   OH240993   6.027   0.670  12.567 -0.2245  0.5923 -0.2826
 6501TIP3    H140994   6.104   0.614  12.552  0.0542  1.0116 -0.4376
 6501TIP3    H240995   6.001   0.698  12.479 -1.3293 -0.5605 -0.3455
 6502TIP3   OH240996   4.258   5.312  16.753  0.2564 -0.2743  0.4565
 6502TIP3    H140997   4.219   5.232  16.788  0.1898  0.9768  3.4692
 6502TIP3    H240998   4.185   5.358  16.710  0.3490 -1.8301 -1.5272
 6503TIP3   OH240999   2.993   1.708  14.837 -0.5604  0.1992  0.3192
 6503TIP3    H141000   2.911   1.674  14.802  0.3200  0.5201 -2.2820
 6503TIP3    H241001   3.029   1.637  14.890 -0.3011 -1.8192 -2.3637
 6504TIP3   OH241002   3.238   3.299   5.705  0.1174  0.1739  0.0965
 6504TIP3    H141003   3.182   3.319   5.630  0.3497  0.9717  0.1363
 6504TIP3    H241004   3.185   3.324   5.781  0.2009  0.1371  0.1669
 6505TIP3   OH241005   2.936   0.784   1.381  0.2480 -0.0282 -0.2774
 6505TIP3    H141006   2.894   0.745   1.304 -0.9907 -0.0782  0.3873
 6505TIP3    H241007   3.024   0.746   1.382  0.2613 -0.0844 -1.6089
 6506TIP3   OH241008   1.509   2.926  15.764 -0.2378  0.1295  0.0286
 6506TIP3    H141009   1.515   2.995  15.698  0.5733  0.8510  0.8321
 6506TIP3    H241010   1.414   2.911  15.773 -0.3913  0.5550 -0.7313
 6507TIP3   OH241011   0.750   4.144  15.856  0.2054 -0.3202  0.4112
 6507TIP3    H141012   0.754   4.129  15.761  0.6771 -0.4288  0.4444
 6507TIP3    H241013   0.685   4.081  15.887  0.3107 -0.5351  0.2028
 6508TIP3   OH241014   6.879   5.889  11.019  0.0146 -0.2470 -0.1984
 6508TIP3    H141015   6.923   5.915  11.100 -0.9949  1.4382 -0.1254
 6508TIP3    H241016   6.836   5.806  11.040  2.4372 -1.5506 -0.0619
 6509TIP3   OH241017   0.626   2.173   5.342  0.0958  0.4016 -0.3163
 6509TIP3    H141018   0.653   2.206   5.428 -0.1838  1.1385 -0.5049
 6509TIP3    H241019   0.693   2.206   5.282 -0.3620  0.8942 -0.5546
 6510TIP3   OH241020   5.622   1.124   2.457  0.6833  0.1856 -0.1077
 6510TIP3    H141021   5.690   1.066   2.422  0.5460  0.3550 -0.6639
 6510TIP3    H241022   5.643   1.210   2.422 -0.7219 -0.0401 -1.6231
 6511TIP3   OH241023   4.003   1.829  13.168  0.2136  0.6371 -0.3058
 6511TIP3    H141024   3.973   1.899  13.111  1.0567  0.4697 -0.9716
 6511TIP3    H241025   3.946   1.835  13.245 -1.2916  0.5216 -1.3718
 6512TIP3   OH241026   1.288   1.303   5.768 -0.2602  0.3345  0.3081
 6512TIP3    H141027   1.220   1.236   5.777 -0.8643  0.4577 -2.4280
 6512TIP3    H241028   1.360   1.272   5.823 -0.4990 -2.6263 -0.8692
 6513TIP3   OH241029   2.468   4.746   1.824  0.7570  0.0744 -0.1949
 6513TIP3    H141030   2.467   4.719   1.732  0.2457 -0.8195  0.0648
 6513TIP3    H241031   2.524   4.681   1.867  1.9135  1.1284 -0.0487
 6514TIP3   OH241032   5.032   0.492  12.168 -0.8258  0.4091 -0.5222
 6514TIP3    H141033   5.067   0.463  12.084  1.6661 -0.8149  0.7922
 6514TIP3    H241034   5.082   0.442  12.233 -1.1291  2.8123  1.7438
 6515TIP3   OH241035   6.662   3.101  10.409  0.0616  0.1729  0.0749
 6515TIP3    H141036   6.585   3.153  10.384  0.0011 -0.7187 -1.7655
 6515TIP3    H241037   6.636   3.010  10.393  2.1917 -0.0458 -2.8206
 6516TIP3   OH241038   0.083   3.518  12.999  0.0054  0.4150  0.6934
 6516TIP3    H141039   0.016   3.504  13.065  0.2613  0.8860  1.0617
 6516TIP3    H241040   0.089   3.613  12.991 -0.3898  0.3684 -0.3850
 6517TIP3   OH241041   0.701   3.179   4.830 -0.1535 -0.4839  0.6949
 6517TIP3    H141042   0.706   3.216   4.742 -0.5071  1.6244  1.4839
 6517TIP3    H241043   0.655   3.246   4.881  0.5657 -1.3829  2.6184
 6518TIP3   OH241044   3.111   4.792  13.220 -0.0247  1.1792 -0.0031
 6518TIP3    H141045   3.065   4.869  13.253  0.8986  1.9896 -0.5596
 6518TIP3    H241046   3.111   4.731  13.294 -1.7311  1.2544  0.0854
 6519TIP3   OH241047   2.040   0.939   0.092  0.3583  0.0924  0.5832
 6519TIP3    H141048   2.043   0.952   0.187  0.3601  0.0949  0.5827
 6519TIP3    H241049   2.127   0.905   0.070 -0.1227 -1.3811  0.8130
 6520TIP3   OH241050   2.661   1.130   3.500 -0.6501  0.4260 -0.3954
 6520TIP3    H141051   2.739   1.183   3.517 -0.7407  0.1489  1.0923
 6520TIP3    H241052   2.679   1.084   3.419  0.5258  0.7354 -0.3222
 6521TIP3   OH241053   5.696   5.833  10.692 -0.4164 -0.3515 -0.1263
 6521TIP3    H141054   5.765   5.777  10.727  1.6634  2.1572  0.0233
 6521TIP3    H241055   5.730   5.865  10.609 -0.9964  1.5832  0.3301
 6522TIP3   OH241056   4.143   0.032   0.287 -0.0012 -0.3153 -0.4045
 6522TIP3    H141057   4.115  -0.055   0.315 -0.6222 -0.1307 -0.4289
 6522TIP3    H241058   4.115   0.038   0.195 -1.5136  0.5294  0.0683
 6523TIP3   OH241059   1.678   2.007  10.075 -0.6092 -0.4717  0.9294
 6523TIP3    H141060   1.586   1.980  10.077 -0.6630 -0.7896 -1.7370
 6523TIP3    H241061   1.726   1.926  10.058  0.4264 -0.6013  3.8329
 6524TIP3   OH241062   4.345   0.117  14.118  0.0258  0.2629 -0.5136
 6524TIP3    H141063   4.256   0.152  14.126 -0.5959 -0.8743 -2.0650
 6524TIP3    H241064   4.342   0.035  14.168  0.8111  1.1574  1.1029
 6525TIP3   OH241065   3.780   1.271  16.333 -0.4064 -0.0027 -0.9708
 6525TIP3    H141066   3.874   1.251  16.341 -0.2712  0.2346 -1.8681
 6525TIP3    H241067   3.758   1.244  16.244 -0.7354  1.7303 -1.4413
 6526TIP3   OH241068   5.178   5.530  10.036 -0.2564  0.1802  0.2575
 6526TIP3    H141069   5.124   5.474  10.092  0.7096 -1.9724 -0.8551
 6526TIP3    H241070   5.124   5.546   9.958 -0.3300  0.3658  0.3460
 6527TIP3   OH241071   5.752   0.314  16.757 -0.9116  0.2954  0.1701
 6527TIP3    H141072   5.689   0.328  16.827  0.2011 -0.6483  1.3977
 6527TIP3    H241073   5.704   0.335  16.677 -2.4414  0.6445  1.1488
 6528TIP3   OH241074   0.793   3.751  15.055  0.2268  0.3251 -0.2467
 6528TIP3    H141075   0.771   3.690  15.126 -1.3685 -0.4867 -1.3888
 6528TIP3    H241076   0.872   3.715  15.016 -1.0599 -1.4371 -1.3258
 6529TIP3   OH241077   5.876   0.400   5.406 -0.1732 -0.3770 -0.0856
 6529TIP3    H141078   5.945   0.395   5.339 -0.2427  0.7631 -0.2686
 6529TIP3    H241079   5.834   0.485   5.390 -0.2819 -0.1443  1.3207
 6530TIP3   OH241080   0.121   0.659  13.598  0.1427  0.8100  0.4608
 6530TIP3    H141081   0.109   0.734  13.539  0.1977 -0.2686 -0.9821
 6530TIP3    H241082   0.116   0.696  13.686 -0.5726  2.3867 -0.2115
 6531TIP3   OH241083   4.610   0.971  11.297  0.3867  0.2308 -0.0106
 6531TIP3    H141084   4.540   0.938  11.242 -0.5571  0.9133  0.7582
 6531TIP3    H241085   4.681   0.908  11.287 -1.1899 -1.8207  1.0971
 6532TIP3   OH241086   6.573   5.802   1.548  0.9086 -0.0397 -0.2377
 6532TIP3    H141087   6.524   5.883   1.537  1.0769  0.0905 -0.0309
 6532TIP3    H241088   6.594   5.798   1.641  0.2356 -0.7070 -0.1075
 6533TIP3   OH241089   0.931   6.859  12.738  0.2840 -0.0066 -0.3381
 6533TIP3    H141090   0.918   6.910  12.818 -1.2260 -0.6399 -0.1437
 6533TIP3    H241091   1.018   6.820  12.748  0.9662  1.5464  0.0420
 6534TIP3   OH241092   5.233   3.086  15.024 -0.4333 -0.2235 -0.1237
 6534TIP3    H141093   5.280   3.003  15.026 -0.6292 -0.3198  0.6579
 6534TIP3    H241094   5.285   3.142  14.966  0.0323 -0.6912 -0.1587
 6535TIP3   OH241095   5.780   3.203  12.746 -0.3628  0.0143  0.0072
 6535TIP3    H141096   5.872   3.215  12.771 -0.5885 -0.8249  1.4009
 6535TIP3    H241097   5.780   3.124  12.693 -0.1860  0.4425 -0.6351
 6536TIP3   OH241098   3.064   4.087  15.530  0.4586 -0.0224 -0.4669
 6536TIP3    H141099   3.043   4.159  15.471 -1.0353  0.8480  1.0319
 6536TIP3    H241100   3.129   4.035  15.483 -0.1559  0.9996 -2.5510
 6537TIP3   OH241101   0.451   6.136  14.368  0.2046  0.4727  0.1175
 6537TIP3    H141102   0.536   6.180  14.364 -0.4455  1.6939 -1.3847
 6537TIP3    H241103   0.399   6.179  14.300 -2.2254  1.0166  2.1833
 6538TIP3   OH241104   0.413   2.024  15.657 -0.3157 -0.3807  0.2279
 6538TIP3    H141105   0.413   2.027  15.561  3.5947 -0.2837  0.0569
 6538TIP3    H241106   0.389   2.113  15.684  1.5866  0.5397 -0.8651
 6539TIP3   OH241107   0.825   6.814  13.152 -0.2572 -0.6735 -0.2274
 6539TIP3    H141108   0.855   6.893  13.106 -1.6775  1.3967  2.1659
 6539TIP3    H241109   0.732   6.808  13.132 -0.6526 -0.3843  1.3889
 6540TIP3   OH241110   0.760   1.060  15.221  0.3404 -0.2458  0.8980
 6540TIP3    H141111   0.667   1.081  15.220  0.5099  0.8897  2.8119
 6540TIP3    H241112   0.763   0.967  15.245 -0.2887 -0.2164  1.1182
 6541TIP3   OH241113   1.626   0.441  12.379 -0.5100 -0.5787  0.3832
 6541TIP3    H141114   1.552   0.411  12.327 -0.3183 -1.6888  0.7212
 6541TIP3    H241115   1.701   0.394  12.343  0.0127  0.4035  0.1562
 6542TIP3   OH241116   1.135   2.377   4.582  0.4360  0.4586 -0.4055
 6542TIP3    H141117   1.072   2.313   4.549  0.4086  0.7599 -0.9420
 6542TIP3    H241118   1.141   2.444   4.513  2.3052 -0.2014 -0.9356
 6543TIP3   OH241119   0.763   0.163   2.982  0.1464  0.4571 -0.5402
 6543TIP3    H141120   0.795   0.156   3.072  0.5076 -0.0821 -0.7029
 6543TIP3    H241121   0.668   0.154   2.989  0.2207 -0.1598 -0.2641
 6544TIP3   OH241122   2.842   5.552  13.133  0.3486 -0.4552  0.1200
 6544TIP3    H141123   2.804   5.523  13.216  1.2189  1.7791  1.3565
 6544TIP3    H241124   2.771   5.540  13.070 -0.7237 -1.1133  1.3932
 6545TIP3   OH241125   6.870   3.362   4.359  0.8955 -0.4410  0.4538
 6545TIP3    H141126   6.926   3.373   4.282  1.0029 -0.0820  0.5836
 6545TIP3    H241127   6.781   3.378   4.327  0.7943 -1.5063  0.1313
 6546TIP3   OH241128   1.948   4.384  11.604 -0.3242  0.7308  0.1754
 6546TIP3    H141129   2.016   4.415  11.664 -1.1781  4.5692 -0.5478
 6546TIP3    H241130   1.866   4.401  11.650 -0.8912  1.0134 -0.9059
 6547TIP3   OH241131   5.999   1.749   2.733  0.1375  0.2660  0.0952
 6547TIP3    H141132   5.989   1.677   2.671 -2.8881  0.5414  0.1072
 6547TIP3    H241133   5.991   1.708   2.819  1.7240  0.2369  0.2609
 6548TIP3   OH241134   1.324   4.203  16.446 -0.1525  0.3310 -0.3150
 6548TIP3    H141135   1.280   4.147  16.382  1.7359 -1.6385  0.0034
 6548TIP3    H241136   1.417   4.183  16.436  0.5132  2.5520  0.6972
 6549TIP3   OH241137   3.184   5.910   4.571  0.1221 -0.0799 -0.5954
 6549TIP3    H141138   3.258   5.870   4.525 -0.7125 -0.5944 -1.5255
 6549TIP3    H241139   3.109   5.897   4.512 -1.0834 -1.1298  1.0719
 6550TIP3   OH241140   6.541   4.886  11.771 -0.2798  0.0191  0.1644
 6550TIP3    H141141   6.622   4.851  11.807  0.0731 -0.3182 -0.9331
 6550TIP3    H241142   6.551   4.981  11.778  0.3388 -0.0126 -0.2282
 6551TIP3   OH241143   2.817   0.175   3.599 -0.2320  0.0399 -0.0465
 6551TIP3    H141144   2.738   0.189   3.547 -0.0494 -2.4099 -1.1484
 6551TIP3    H241145   2.878   0.133   3.538  1.0260 -0.3522  1.4129
 6552TIP3   OH241146   0.710   4.199  12.167 -0.5105 -0.4412  0.1453
 6552TIP3    H141147   0.638   4.158  12.214  0.1449 -1.7701  0.0144
 6552TIP3    H241148   0.721   4.147  12.087  1.8941 -1.5822  1.1086
 6553TIP3   OH241149   6.823   2.780  16.841 -0.3337  0.4771 -0.0099
 6553TIP3    H141150   6.807   2.717  16.912 -1.2943  0.4070 -0.2756
 6553TIP3    H241151   6.917   2.776  16.826 -0.3345 -0.6345  0.2171
 6554TIP3   OH241152   5.564   4.136   5.580 -0.6427 -0.0031 -0.7654
 6554TIP3    H141153   5.521   4.189   5.648 -2.4222  0.6711 -2.3162
 6554TIP3    H241154   5.502   4.136   5.508  0.3141 -2.3807 -1.6732
 6555TIP3   OH241155   0.795   1.830  14.265 -0.3531  0.3384 -0.3077
 6555TIP3    H141156   0.779   1.737  14.249  1.0329  0.2503 -1.4062
 6555TIP3    H241157   0.761   1.873  14.187  2.0861  0.3799 -1.4466
 6556TIP3   OH241158   3.302   0.807  15.413 -0.3703  0.3869 -0.1789
 6556TIP3    H141159   3.330   0.772  15.328 -0.0681  0.6686 -0.1974
 6556TIP3    H241160   3.230   0.750  15.439  0.7909 -0.9338  0.3063
 6557TIP3   OH241161   1.660   0.182  14.431 -1.0755  0.1977  0.0110
 6557TIP3    H141162   1.610   0.195  14.512 -0.3219  1.5408  0.3043
 6557TIP3    H241163   1.628   0.099  14.396 -0.7917 -0.9219  2.1752
 6558TIP3   OH241164   0.619   6.773  10.917 -0.1213 -0.5919  0.2914
 6558TIP3    H141165   0.545   6.814  10.872  0.7778  1.4875  0.5970
 6558TIP3    H241166   0.686   6.762  10.849  0.2521  0.0131  0.5618
 6559TIP3   OH241167   2.177   2.838   4.891 -0.0408 -0.0340 -0.1709
 6559TIP3    H141168   2.163   2.815   4.982  1.1131 -1.3905 -0.2954
 6559TIP3    H241169   2.250   2.900   4.892  0.5880 -0.7572 -0.2141
 6560TIP3   OH241170   3.331   4.822   1.389 -0.2812  0.2587 -0.0482
 6560TIP3    H141171   3.351   4.766   1.315 -1.4152  0.4623 -0.5356
 6560TIP3    H241172   3.322   4.762   1.463  0.0688 -0.0261 -0.2323
 6561TIP3   OH241173   3.664   6.264  12.054  0.3994 -0.5812 -0.4863
 6561TIP3    H141174   3.646   6.187  12.108  0.7650 -1.2275 -1.2559
 6561TIP3    H241175   3.759   6.271  12.053  0.3457  0.9545  1.0111
 6562TIP3   OH241176   1.770   3.242  11.636 -0.4775  0.1326  0.1603
 6562TIP3    H141177   1.810   3.170  11.686 -0.2298  0.2070  0.0677
 6562TIP3    H241178   1.676   3.227  11.645 -0.4367  0.2342  0.7818
 6563TIP3   OH241179   3.821   2.732   5.469 -0.1525 -0.5158 -0.1715
 6563TIP3    H141180   3.858   2.708   5.384 -1.2368  0.2032 -0.8514
 6563TIP3    H241181   3.767   2.809   5.452 -0.3726 -0.3511  1.1728
 6564TIP3   OH241182   0.585   3.508  11.092  0.6641  0.3975 -0.8596
 6564TIP3    H141183   0.611   3.590  11.134  0.5763  0.2265 -0.4710
 6564TIP3    H241184   0.644   3.442  11.128  0.5863  0.2502 -0.9987
 6565TIP3   OH241185   4.539   0.043   2.580  0.3853  0.7432  0.2384
 6565TIP3    H141186   4.504   0.110   2.522 -0.3160  0.6689  0.5655
 6565TIP3    H241187   4.465  -0.014   2.598  0.4360  1.1103  1.6981
 6566TIP3   OH241188   0.657   5.999  13.444 -0.3646  0.1168  0.2699
 6566TIP3    H141189   0.688   6.080  13.486 -0.9202 -0.1802  1.2795
 6566TIP3    H241190   0.582   5.972  13.497 -0.1703 -1.0821 -0.0385
 6567TIP3   OH241191   3.574   4.482   2.571  0.0148  0.1824  0.0749
 6567TIP3    H141192   3.669   4.470   2.579 -0.2577 -0.9138  2.9468
 6567TIP3    H241193   3.563   4.575   2.551  1.6602  0.8224  1.8802
 6568TIP3   OH241194   3.466   0.709  14.136 -0.6748  0.8201 -0.3288
 6568TIP3    H141195   3.394   0.682  14.193 -1.3779  1.6287 -0.8096
 6568TIP3    H241196   3.513   0.629  14.117 -2.0160  0.1038 -0.7650
 6569TIP3   OH241197   5.372   5.762   5.173 -0.1706  0.3451 -0.3177
 6569TIP3    H141198   5.435   5.793   5.237 -1.5064 -1.9321  2.2820
 6569TIP3    H241199   5.425   5.735   5.098  1.6150  1.1815  0.5917
 6570TIP3   OH241200   2.947   0.225   4.134 -0.3306 -0.1431  0.2038
 6570TIP3    H141201   2.917   0.307   4.172  0.2945 -0.5888  1.7449
 6570TIP3    H241202   3.016   0.249   4.074  0.1613  0.4332  0.9874
 6571TIP3   OH241203   6.127   6.012  15.016 -0.3833  0.2112 -0.1074
 6571TIP3    H141204   6.207   6.042  14.973 -0.2387 -2.8763 -2.3016
 6571TIP3    H241205   6.151   5.928  15.056 -2.6029 -1.1119 -1.3548
 6572TIP3   OH241206   5.363   2.828   3.068 -0.4210 -0.4469  0.5465
 6572TIP3    H141207   5.412   2.780   3.002  0.6020  0.8989  0.2830
 6572TIP3    H241208   5.381   2.782   3.150  1.5205  0.1370  0.4948
 6573TIP3   OH241209   0.194   1.926  11.661  0.3291  0.1789 -0.1785
 6573TIP3    H141210   0.150   1.923  11.576  0.2211 -1.5009 -0.1035
 6573TIP3    H241211   0.178   2.014  11.694 -0.3200  0.5877 -1.5405
 6574TIP3   OH241212   0.836   2.785  11.223  0.4910 -0.3976  0.3291
 6574TIP3    H141213   0.855   2.708  11.169 -1.7876 -1.3489  0.7847
 6574TIP3    H241214   0.848   2.756  11.313 -0.7041 -0.3587  0.5215
 6575TIP3   OH241215   4.312   4.242  15.280 -0.0917  0.1100  0.3619
 6575TIP3    H141216   4.396   4.247  15.233 -0.6789 -2.4244 -1.1422
 6575TIP3    H241217   4.253   4.298  15.229  1.0536  3.7431  2.6722
 6576TIP3   OH241218   4.525   6.773  15.004 -0.2303  0.4910 -0.4448
 6576TIP3    H141219   4.579   6.701  15.034 -0.7670  0.7250  1.2024
 6576TIP3    H241220   4.504   6.751  14.913  1.8647 -0.0239 -0.8575
 6577TIP3   OH241221   1.602   1.010  14.975 -0.0956 -0.3596 -1.0103
 6577TIP3    H141222   1.626   1.102  14.974  1.8045 -0.7995 -0.8313
 6577TIP3    H241223   1.507   1.009  14.966 -0.3820  1.6722  1.0181
 6578TIP3   OH241224   5.333   0.874  15.908  0.0257  0.3063  0.0149
 6578TIP3    H141225   5.256   0.845  15.956  0.8857 -1.2729  0.5400
 6578TIP3    H241226   5.304   0.882  15.817 -0.9971  0.7635  0.3748
 6579TIP3   OH241227   6.154   5.182  11.218 -0.5201  0.2720 -0.0879
 6579TIP3    H141228   6.145   5.165  11.124 -1.9699  1.8119 -0.2804
 6579TIP3    H241229   6.243   5.215  11.228 -0.7989  1.4349 -1.1894
 6580TIP3   OH241230   2.008   2.440   4.115  0.5991  0.4167 -0.8532
 6580TIP3    H141231   2.016   2.403   4.027 -2.1116  1.0487 -1.4587
 6580TIP3    H241232   2.092   2.484   4.131  2.9066 -3.4163 -1.2064
 6581TIP3   OH241233   1.052   1.620  12.025  0.1166  0.2113 -0.2052
 6581TIP3    H141234   1.022   1.538  11.985  0.5411  0.2113 -0.5252
 6581TIP3    H241235   1.097   1.593  12.105  3.0415 -0.1534 -1.8550
 6582TIP3   OH241236   4.294   3.581   2.309  0.5300 -0.8635 -0.6350
 6582TIP3    H141237   4.373   3.546   2.266 -0.3302 -0.8126 -2.3248
 6582TIP3    H241238   4.229   3.512   2.299  0.3567 -0.9477  0.8557
 6583TIP3   OH241239   2.853   4.943  16.531 -0.0770 -0.4326  0.0539
 6583TIP3    H141240   2.917   4.940  16.460  1.3654  2.7868  1.0342
 6583TIP3    H241241   2.894   4.894  16.603  0.2163 -0.3956 -0.0877
 6584TIP3   OH241242   5.609   2.312  10.972 -0.5647  0.8572 -0.1240
 6584TIP3    H141243   5.537   2.334  10.914 -0.5059  1.3089 -0.0318
 6584TIP3    H241244   5.633   2.222  10.949 -1.0626  0.7549 -0.2496
 6585TIP3   OH241245   4.118   5.780   4.292 -0.0754  0.4358 -0.0248
 6585TIP3    H141246   4.115   5.815   4.202 -1.0731  1.1551  0.2664
 6585TIP3    H241247   4.210   5.755   4.305  0.1488  0.6187 -1.1306
 6586TIP3   OH241248   0.438   5.378  12.727 -0.7510  0.0616  0.4424
 6586TIP3    H141249   0.468   5.429  12.802 -1.7475 -0.1218  0.9873
 6586TIP3    H241250   0.369   5.322  12.762 -0.3451 -0.9735 -0.3468
 6587TIP3   OH241251   6.049   4.255   1.927 -0.4134 -0.0999  0.4690
 6587TIP3    H141252   5.995   4.176   1.924  0.1449 -0.4587 -0.8703
 6587TIP3    H241253   6.066   4.269   2.020 -0.8433 -1.3217  0.7504
 6588TIP3   OH241254   1.265   3.137   1.465 -0.4761 -0.6918  0.1411
 6588TIP3    H141255   1.309   3.085   1.532  1.3124  1.3113  0.6330
 6588TIP3    H241256   1.194   3.181   1.511 -1.3746 -1.8708 -0.0663
 6589TIP3   OH241257   6.564   2.758  11.948  0.5008 -0.0641 -0.1537
 6589TIP3    H141258   6.651   2.739  11.916 -0.2031  0.3585 -2.4869
 6589TIP3    H241259   6.566   2.732  12.040  4.0296  2.8574  0.8197
 6590TIP3   OH241260   5.573   3.174  11.608  0.1882 -0.4352  0.0982
 6590TIP3    H141261   5.505   3.193  11.542 -0.9032 -0.8114  1.0713
 6590TIP3    H241262   5.592   3.259  11.648 -0.2991 -0.4354  0.3483
 6591TIP3   OH241263   5.188   1.928   3.641  0.2650  0.2773 -0.2039
 6591TIP3    H141264   5.201   1.924   3.546  2.8621 -1.5270  0.1359
 6591TIP3    H241265   5.246   1.861   3.676  1.4719  2.7041  2.8632
 6592TIP3   OH241266   3.252   4.933   0.076  0.2468  0.3074 -0.2809
 6592TIP3    H141267   3.206   4.912   0.157 -1.0786  0.2158 -1.0399
 6592TIP3    H241268   3.289   5.020   0.093 -1.0633  0.8391  0.0069
 6593TIP3   OH241269   0.477   0.661   6.122 -0.8115 -0.0094  0.6962
 6593TIP3    H141270   0.465   0.750   6.156 -1.5423 -0.0957  0.6717
 6593TIP3    H241271   0.570   0.657   6.099 -0.4154  0.2478  2.1241
 6594TIP3   OH241272   6.292   4.691  11.377  0.0884 -0.2401  0.1927
 6594TIP3    H141273   6.351   4.716  11.448 -0.1050  0.3696  0.1461
 6594TIP3    H241274   6.350   4.661  11.307  0.6731  3.5641 -1.1970
 6595TIP3   OH241275   4.950   6.015   5.355 -0.6540 -0.1002  0.5296
 6595TIP3    H141276   5.034   5.973   5.339 -0.1901  0.1351  2.1832
 6595TIP3    H241277   4.966   6.075   5.428 -1.8187  1.3340 -0.3443
 6596TIP3   OH241278   4.199   2.703   4.145 -0.1586  0.1770 -0.0257
 6596TIP3    H141279   4.233   2.639   4.083 -0.4748  0.7599 -0.8124
 6596TIP3    H241280   4.236   2.787   4.117 -0.1736  0.4230  0.6686
 6597TIP3   OH241281   0.347   0.750   0.309  0.4331 -0.3823 -0.2007
 6597TIP3    H141282   0.412   0.817   0.288  0.7774 -0.1879  1.3451
 6597TIP3    H241283   0.399   0.676   0.340 -0.0463 -0.5421  0.2289
 6598TIP3   OH241284   6.126   0.440   2.849  0.3534 -0.1369 -0.3118
 6598TIP3    H141285   6.115   0.426   2.755 -3.3290  0.6307 -0.1607
 6598TIP3    H241286   6.047   0.402   2.888  1.6846 -0.2486  2.4811
 6599TIP3   OH241287   6.570   4.585   5.631 -0.1234 -0.9606  0.3592
 6599TIP3    H141288   6.576   4.516   5.565  0.3553 -1.0262  0.4640
 6599TIP3    H241289   6.486   4.570   5.675 -0.6616 -0.6334 -0.5403
 6600TIP3   OH241290   1.625   5.798   1.823  0.1550  0.3597 -0.2784
 6600TIP3    H141291   1.714   5.816   1.793  0.4139 -0.8230 -0.2553
 6600TIP3    H241292   1.575   5.877   1.799  1.5093  1.6947  1.0684
 6601TIP3   OH241293   6.780   2.075  16.702 -0.3802  0.1994 -0.4080
 6601TIP3    H141294   6.872   2.050  16.711  0.1810  1.4204 -2.1447
 6601TIP3    H241295   6.780   2.143  16.634 -2.4503  0.9677  0.2709
 6602TIP3   OH241296   4.935   1.780  12.349  0.3580 -0.4349 -0.2342
 6602TIP3    H141297   4.992   1.741  12.283  1.5248 -1.3028  1.2230
 6602TIP3    H241298   4.930   1.715  12.418 -0.5453  0.5841  0.6996
 6603TIP3   OH241299   2.047   1.488   4.237  0.3524 -0.4917 -0.1444
 6603TIP3    H141300   2.028   1.558   4.176  0.9415  0.3832  0.6445
 6603TIP3    H241301   1.977   1.493   4.302  0.8843 -0.0454  0.4021
 6604TIP3   OH241302   2.520   5.077  16.611 -0.0702  0.0521  0.1209
 6604TIP3    H141303   2.486   5.167  16.608  0.0724  0.0830 -1.3616
 6604TIP3    H241304   2.615   5.089  16.623  0.0363  0.1425 -0.7225
 6605TIP3   OH241305   3.696   3.582   0.408 -0.3241  0.0297  0.3704
 6605TIP3    H141306   3.602   3.589   0.425 -0.2866 -1.7923  1.6321
 6605TIP3    H241307   3.737   3.626   0.483 -0.1107  1.7783 -0.7033
 6606TIP3   OH241308   1.593   5.573   1.152  0.3033  0.0176 -0.2427
 6606TIP3    H141309   1.665   5.510   1.143 -0.1849 -0.4122 -1.4822
 6606TIP3    H241310   1.514   5.520   1.141 -0.1319  0.7603 -0.8082
 6607TIP3   OH241311   5.184   5.846  10.977 -0.5491  0.0062 -0.4634
 6607TIP3    H141312   5.280   5.845  10.970 -0.4510  0.5088  0.6181
 6607TIP3    H241313   5.157   5.917  10.919 -0.1428  0.8421  0.3432
 6608TIP3   OH241314   2.980   0.051   2.341  0.0066  0.5116 -0.4577
 6608TIP3    H141315   3.020   0.024   2.423  0.4796  2.0920 -0.1297
 6608TIP3    H241316   2.889   0.022   2.347 -0.0973  1.0576  0.8708
 6609TIP3   OH241317   1.309   3.413  12.653  0.1339 -0.4117 -0.2578
 6609TIP3    H141318   1.393   3.434  12.613 -0.0637 -0.6490 -0.8068
 6609TIP3    H241319   1.308   3.461  12.736 -0.3132  1.7284 -1.4554
 6610TIP3   OH241320   6.776   1.179  12.655  0.0917  0.1556  0.1959
 6610TIP3    H141321   6.842   1.247  12.669 -0.7184  1.1066 -0.4374
 6610TIP3    H241322   6.781   1.160  12.562 -0.2816 -0.0187  0.2125
 6611TIP3   OH241323   2.920   0.144  15.482 -0.3130  0.7961  0.2502
 6611TIP3    H141324   2.998   0.199  15.491 -1.2467  2.0616  0.9629
 6611TIP3    H241325   2.948   0.057  15.508  1.2734  0.8462 -1.1008
 6612TIP3   OH241326   4.138   5.530  15.053  0.1483  0.0055 -0.2482
 6612TIP3    H141327   4.102   5.584  15.124  0.5586 -0.0383 -0.0044
 6612TIP3    H241328   4.227   5.563  15.041  0.5185 -0.8293  0.1236
 6613TIP3   OH241329   4.395   3.530   2.581  0.0750 -0.4699  0.6048
 6613TIP3    H141330   4.344   3.489   2.511 -0.2107 -0.3532  0.7450
 6613TIP3    H241331   4.457   3.462   2.608  1.3305  0.0039 -0.9023
 6614TIP3   OH241332   4.469   5.583   4.799 -0.3457 -0.4074  0.0530
 6614TIP3    H141333   4.453   5.648   4.731 -3.2988  1.4412  2.2666
 6614TIP3    H241334   4.528   5.627   4.861 -0.3665 -0.7730  0.3394
 6615TIP3   OH241335   0.257   0.614  16.428  0.2617 -0.3565 -0.4106
 6615TIP3    H141336   0.188   0.639  16.490 -0.1024 -0.4594 -0.7752
 6615TIP3    H241337   0.332   0.593  16.484 -0.0294 -0.3450 -0.0078
 6616TIP3   OH241338   6.243   5.187   3.306  0.2889  0.0667 -0.1762
 6616TIP3    H141339   6.335   5.186   3.333 -0.2049 -0.2692  1.6708
 6616TIP3    H241340   6.221   5.280   3.300  0.2640  0.1886  1.3434
 6617TIP3   OH241341   4.310   0.292   5.128 -0.3699  0.0843  0.2757
 6617TIP3    H141342   4.222   0.322   5.105 -0.2030 -0.0900 -0.6121
 6617TIP3    H241343   4.306   0.278   5.223 -1.4924 -0.5294  0.1561
 6618TIP3   OH241344   0.864   3.510   2.827  0.5053  0.5027  0.3815
 6618TIP3    H141345   0.805   3.573   2.869 -1.8148  1.1831 -3.5243
 6618TIP3    H241346   0.907   3.560   2.758  0.8633 -1.5070 -0.9255
 6619TIP3   OH241347   2.814   2.961   3.444 -0.1183 -0.1803  0.0007
 6619TIP3    H141348   2.847   2.876   3.413  0.4088 -0.2321  0.6663
 6619TIP3    H241349   2.893   3.015   3.454 -0.3580  0.0941  0.4395
 6620TIP3   OH241350   6.759   3.167   5.746 -0.3436 -0.3836 -0.6075
 6620TIP3    H141351   6.684   3.203   5.793  1.8755  0.9782  2.2042
 6620TIP3    H241352   6.749   3.072   5.753 -2.1266 -0.2516 -0.9476
 6621TIP3   OH241353   3.885   4.433  14.269  0.2779 -0.5318  0.0481
 6621TIP3    H141354   3.816   4.454  14.205  0.9872  0.7153 -0.3324
 6621TIP3    H241355   3.963   4.475  14.235  0.7526 -0.1296  1.5685
 6622TIP3   OH241356   1.948   1.806   1.442 -0.6328 -0.3983 -0.2900
 6622TIP3    H141357   1.988   1.872   1.385  0.5684 -0.7180  0.1489
 6622TIP3    H241358   1.858   1.838   1.457  0.7173  2.8353  2.3700
 6623TIP3   OH241359   0.057   0.011  11.464 -0.2314  0.1925 -0.4275
 6623TIP3    H141360   0.146   0.017  11.429  0.5595 -3.3662  0.5530
 6623TIP3    H241361   0.070  -0.001  11.558 -1.6577 -1.3322 -0.3899
 6624TIP3   OH241362   4.958   5.384   4.624  0.3155 -0.0038 -0.0012
 6624TIP3    H141363   4.896   5.455   4.606  1.5174  1.3219  0.8867
 6624TIP3    H241364   4.921   5.337   4.698 -0.4698 -0.3210 -0.5737
 6625TIP3   OH241365   3.831   1.697  15.532 -0.2409  0.1998 -0.6622
 6625TIP3    H141366   3.869   1.778  15.565  0.2764  0.0487 -0.8826
 6625TIP3    H241367   3.745   1.692  15.574  0.1571  0.3190  0.1832
 6626TIP3   OH241368   6.639   1.116   0.746  0.1909 -0.2793  0.2658
 6626TIP3    H141369   6.674   1.080   0.828  1.3171  2.1871  0.9558
 6626TIP3    H241370   6.701   1.185   0.721  0.4406 -1.5488 -3.2501
 6627TIP3   OH241371   4.481   3.751  11.696 -0.9194 -0.1278 -0.5880
 6627TIP3    H141372   4.458   3.717  11.782 -1.0893 -0.4997 -0.7799
 6627TIP3    H241373   4.458   3.844  11.700  2.5006  0.8179  1.0654
 6628TIP3   OH241374   6.616   1.492  10.201 -0.1884 -0.2959  0.4022
 6628TIP3    H141375   6.528   1.528  10.200  0.0951  0.4740  1.4607
 6628TIP3    H241376   6.649   1.507  10.112 -1.1790 -0.7904 -0.0647
 6629TIP3   OH241377   5.849   2.144  12.062  0.1058 -0.4475 -0.2903
 6629TIP3    H141378   5.777   2.188  12.107  1.3979  0.8866  0.5419
 6629TIP3    H241379   5.806   2.090  11.995 -1.6572  0.2201  0.2526
 6630TIP3   OH241380   3.733   1.809   1.537  0.1949  0.0619 -0.1717
 6630TIP3    H141381   3.706   1.724   1.571  1.4941 -1.2937 -2.3233
 6630TIP3    H241382   3.808   1.791   1.481 -0.0758  2.4753 -1.4932
 6631TIP3   OH241383   3.332   0.933  15.916  0.5667  0.4947 -0.3297
 6631TIP3    H141384   3.320   0.878  15.994  0.1410  0.8544 -0.1372
 6631TIP3    H241385   3.328   1.023  15.950 -2.9742  0.7776 -1.1749
 6632TIP3   OH241386   3.886   6.734  15.799 -0.1959  0.0868  0.9214
 6632TIP3    H141387   3.924   6.703  15.717 -0.8369  0.9720  0.2726
 6632TIP3    H241388   3.797   6.758  15.776 -0.7964 -0.8684  2.1726
 6633TIP3   OH241389   3.611   6.664  15.188  0.0316  0.5052  0.2791
 6633TIP3    H141390   3.543   6.717  15.229 -0.4592  0.4658 -0.4658
 6633TIP3    H241391   3.691   6.715  15.197 -0.0379  0.4486  1.3762
 6634TIP3   OH241392   6.624   4.346  12.314 -0.8485 -0.5780  0.1919
 6634TIP3    H141393   6.611   4.251  12.306  0.2371 -0.7599  0.4547
 6634TIP3    H241394   6.541   4.378  12.351 -1.8107 -1.1937 -1.3548
 6635TIP3   OH241395   3.273   1.592   1.780  0.4175 -0.3228 -0.4936
 6635TIP3    H141396   3.194   1.630   1.818  1.2719  0.1902  0.8548
 6635TIP3    H241397   3.271   1.500   1.806  0.0708 -0.4085 -0.8145
 6636TIP3   OH241398   5.721   3.820   3.394  0.5949  0.2353 -0.5698
 6636TIP3    H141399   5.664   3.746   3.372 -0.4080  0.4244  1.1880
 6636TIP3    H241400   5.701   3.840   3.485  2.3021  1.4069 -0.3897
 6637TIP3   OH241401   3.796   1.783   2.423 -0.0424  0.1914 -0.1528
 6637TIP3    H141402   3.775   1.741   2.339  0.9581  0.5106 -0.5812
 6637TIP3    H241403   3.890   1.766   2.435 -0.4200 -0.8809  1.5041
 6638TIP3   OH241404   2.548   2.720   0.553 -0.9266 -0.5712  0.0967
 6638TIP3    H141405   2.554   2.732   0.458  2.1377 -1.0615  0.1307
 6638TIP3    H241406   2.604   2.789   0.588 -0.5006 -1.5635  1.4252
 6639TIP3   OH241407   2.502   1.266   6.241 -0.1921  0.0148 -0.1000
 6639TIP3    H141408   2.436   1.277   6.173  1.4165 -1.7798 -2.0877
 6639TIP3    H241409   2.497   1.173   6.265  0.8512  0.1043  0.5297
 6640TIP3   OH241410   2.606   1.717  16.842 -0.5916 -0.2297 -0.3886
 6640TIP3    H141411   2.669   1.757  16.901 -2.2262  1.0286  0.5950
 6640TIP3    H241412   2.657   1.692  16.765  1.2989 -0.4167  0.8687
 6641TIP3   OH241413   0.670   6.025  13.166 -0.1967  0.0756 -0.2282
 6641TIP3    H141414   0.655   6.029  13.260  0.9277 -0.1140 -0.0258
 6641TIP3    H241415   0.741   6.087  13.149 -0.3001  0.0181 -0.9295
 6642TIP3   OH241416   0.891   2.757   3.482  0.2817 -0.4286 -0.5455
 6642TIP3    H141417   0.898   2.755   3.387 -2.8795  0.9816 -0.9207
 6642TIP3    H241418   0.860   2.670   3.506 -2.2991  0.2250 -1.2663
 6643TIP3   OH241419   4.674   5.106  13.728  0.1013 -0.1292 -0.6294
 6643TIP3    H141420   4.588   5.102  13.685 -1.6188  1.9913  2.2443
 6643TIP3    H241421   4.700   5.198  13.720  0.5399 -0.0480  1.2444
 6644TIP3   OH241422   0.586   4.323  10.523  0.4483  0.3754  0.2104
 6644TIP3    H141423   0.575   4.229  10.506 -0.4151 -0.2260  3.4981
 6644TIP3    H241424   0.676   4.341  10.495  0.4391 -1.2499 -1.0595
 6645TIP3   OH241425   3.136   3.529  13.664 -0.3142 -0.4604 -0.2769
 6645TIP3    H141426   3.221   3.529  13.709  0.4464  0.6997 -1.6252
 6645TIP3    H241427   3.105   3.438  13.671  0.6658 -0.7321  0.8947
 6646TIP3   OH241428   0.308   6.468   1.583  0.2504 -0.4117  0.0686
 6646TIP3    H141429   0.377   6.526   1.617 -0.2989  1.8015 -2.2850
 6646TIP3    H241430   0.323   6.385   1.629  0.6945  1.6388  4.1560
 6647TIP3   OH241431   3.766   2.026   4.051 -0.0218  0.6875  0.4039
 6647TIP3    H141432   3.763   2.117   4.020  2.5421  0.2593 -1.4236
 6647TIP3    H241433   3.851   2.018   4.094 -1.5024 -0.1040  3.4724
 6648TIP3   OH241434   6.511   2.047  13.877 -0.9404  0.2051 -0.0543
 6648TIP3    H141435   6.485   2.040  13.785 -0.3274 -1.6494 -0.1168
 6648TIP3    H241436   6.499   1.959  13.912  0.7016  0.4158  1.1247
 6649TIP3   OH241437   1.802   2.947   5.474 -0.0556 -0.9863 -0.1328
 6649TIP3    H141438   1.740   2.900   5.418  0.2971 -0.5572 -0.9005
 6649TIP3    H241439   1.877   2.966   5.417 -0.2946  0.7323  0.0691
 6650TIP3   OH241440   4.888   0.505  11.502 -0.5504 -0.4850  0.1612
 6650TIP3    H141441   4.860   0.587  11.462 -1.0159  0.3304  2.0356
 6650TIP3    H241442   4.837   0.438  11.457  0.8102  0.0578 -2.3277
 6651TIP3   OH241443   0.805   0.757   5.723 -0.3852 -0.0145 -0.1138
 6651TIP3    H141444   0.857   0.803   5.657  0.7026 -1.8945 -0.6478
 6651TIP3    H241445   0.763   0.686   5.676  0.4904 -1.4556  1.1826
 6652TIP3   OH241446   2.668   4.666   4.630 -0.1341  0.1370 -0.2196
 6652TIP3    H141447   2.705   4.746   4.669 -1.0334  0.1511  0.6393
 6652TIP3    H241448   2.716   4.595   4.672  1.7623  0.2067 -2.1071
 6653TIP3   OH241449   1.661   2.422   3.710  0.6925 -0.1565 -0.2574
 6653TIP3    H141450   1.664   2.498   3.767 -1.4388 -0.0506 -0.1800
 6653TIP3    H241451   1.715   2.446   3.635  0.6807  1.1358  0.1190
 6654TIP3   OH241452   1.092   1.700   2.116 -0.4788  0.1260  0.7391
 6654TIP3    H141453   1.139   1.780   2.092  0.0494 -0.1500  0.8167
 6654TIP3    H241454   1.118   1.683   2.207  0.5269 -0.8829  0.2924
 6655TIP3   OH241455   4.645   5.540  10.684  0.0455  0.8234 -0.2887
 6655TIP3    H141456   4.637   5.599  10.760 -0.1723  0.2898  0.1112
 6655TIP3    H241457   4.735   5.552  10.654  0.9261 -0.6851  1.5154
 6656TIP3   OH241458   3.444   5.146   5.435  0.0888  0.4069  0.7022
 6656TIP3    H141459   3.505   5.091   5.386  1.2323  2.0399  0.2342
 6656TIP3    H241460   3.421   5.094   5.512  1.8688 -0.3497  0.7609
 6657TIP3   OH241461   4.642   5.057  16.128  0.5229 -0.1507 -0.5016
 6657TIP3    H141462   4.665   5.074  16.037  2.6055  0.2861  0.0513
 6657TIP3    H241463   4.661   4.964  16.140  2.0364  0.1794 -0.0829
 6658TIP3   OH241464   0.365   0.006  12.957  0.4621 -0.3546  0.5756
 6658TIP3    H141465   0.281  -0.035  12.935 -0.0413  0.9393  0.0405
 6658TIP3    H241466   0.387   0.059  12.881  0.8805  0.7327  1.4369
 6659TIP3   OH241467   3.816   6.032  11.292  0.1364 -0.0580 -0.0572
 6659TIP3    H141468   3.910   6.046  11.278  0.3031 -0.6705  0.4026
 6659TIP3    H241469   3.812   5.956  11.350 -0.6130  0.5690  0.7382
 6660TIP3   OH241470   0.672   6.241  14.097 -0.4647  0.0138 -0.0051
 6660TIP3    H141471   0.765   6.228  14.116 -0.1343 -1.1131 -2.0452
 6660TIP3    H241472   0.661   6.336  14.093  0.3235  0.1858  1.3771
 6661TIP3   OH241473   4.415   6.316  13.405 -0.1277 -0.2164 -0.1920
 6661TIP3    H141474   4.394   6.395  13.455  1.5280  1.3380 -1.7879
 6661TIP3    H241475   4.507   6.298  13.426  0.6330  0.5136 -2.5777
 6662TIP3   OH241476   5.388   4.366   1.452  0.4703  0.2602 -0.4687
 6662TIP3    H141477   5.379   4.287   1.506 -2.8142  1.6203  1.2412
 6662TIP3    H241478   5.444   4.424   1.503 -1.8957  1.1920  1.2225
 6663TIP3   OH241479   6.642   0.974   2.365  0.3463 -0.7116  0.5567
 6663TIP3    H141480   6.724   1.017   2.388 -0.1160 -0.7671  2.4803
 6663TIP3    H241481   6.620   0.921   2.442 -2.2275  0.4377  0.7272
 6664TIP3   OH241482   1.703   0.213  13.587  0.3189  0.0003 -0.7137
 6664TIP3    H141483   1.624   0.266  13.576  0.8167  1.2053  1.1584
 6664TIP3    H241484   1.744   0.215  13.500 -1.3502 -0.1378 -1.5543
 6665TIP3   OH241485   6.123   2.135  12.612 -0.1033  0.0823  0.2167
 6665TIP3    H141486   6.102   2.042  12.625 -1.5897  0.3121 -0.3115
 6665TIP3    H241487   6.042   2.173  12.579  0.3247  1.6893  0.9310
 6666TIP3   OH241488   2.317   2.961   3.029  0.0783  0.5264 -0.6389
 6666TIP3    H141489   2.290   3.046   3.063  1.2203  0.4476  0.5698
 6666TIP3    H241490   2.287   2.897   3.094  0.5587  0.1735 -0.7498
 6667TIP3   OH241491   2.440   1.086  10.877  0.0343  0.1368 -0.0030
 6667TIP3    H141492   2.511   1.024  10.862 -0.1654 -0.1822  0.3379
 6667TIP3    H241493   2.449   1.110  10.969 -2.7128 -3.0731  1.3481
 6668TIP3   OH241494   1.883   1.462   2.228  0.5357  0.2207 -0.1492
 6668TIP3    H141495   1.795   1.424   2.235 -0.2875  2.0607  0.0304
 6668TIP3    H241496   1.881   1.514   2.148  1.2167  0.8561  0.2324
 6669TIP3   OH241497   2.218   1.869   3.347  0.1136  0.0180 -0.0803
 6669TIP3    H141498   2.226   1.783   3.387 -0.1363  0.7726  1.6824
 6669TIP3    H241499   2.228   1.931   3.420  0.7773  1.5022 -1.3635
 6670TIP3   OH241500   1.926   5.047  12.079  0.3589 -0.2909 -0.3430
 6670TIP3    H141501   2.019   5.030  12.064  0.7988  1.5385  0.1128
 6670TIP3    H241502   1.916   5.040  12.174 -0.1717 -1.2991 -0.4564
 6671TIP3   OH241503   1.263   1.108   3.541 -0.6008  0.2294 -0.2025
 6671TIP3    H141504   1.221   1.050   3.605  0.7306 -0.9955 -0.3852
 6671TIP3    H241505   1.330   1.053   3.500  0.0576  1.6469 -1.0765
 6672TIP3   OH241506   0.337   5.828  14.688  0.5698  0.1681  0.4451
 6672TIP3    H141507   0.267   5.820  14.624 -1.3137 -2.8695  2.6363
 6672TIP3    H241508   0.348   5.923  14.699 -1.2180  0.7593 -1.9533
 6673TIP3   OH241509   4.414   3.649   3.934 -0.1248  0.1320  0.1676
 6673TIP3    H141510   4.395   3.555   3.945 -1.8185  0.3098 -0.8416
 6673TIP3    H241511   4.485   3.652   3.871 -0.6801 -0.4710 -0.5071
 6674TIP3   OH241512   3.284   0.065  13.153 -0.1550  0.2162  0.6125
 6674TIP3    H141513   3.240   0.079  13.237 -0.5026  0.4114  0.4015
 6674TIP3    H241514   3.222   0.013  13.102  0.4655 -0.7538  0.8184
 6675TIP3   OH241515   0.260   5.049  12.641  0.1228  0.2688  0.3360
 6675TIP3    H141516   0.334   5.010  12.688  0.3132  0.6698  0.3770
 6675TIP3    H241517   0.228   5.116  12.701  1.4440  1.9761 -0.7812
 6676TIP3   OH241518   6.648   2.890   5.592 -0.2693 -0.0084  0.3845
 6676TIP3    H141519   6.670   2.797   5.601  0.9465  0.0582 -1.2839
 6676TIP3    H241520   6.732   2.932   5.571 -1.1473  1.0928 -1.1628
 6677TIP3   OH241521   1.778   1.594  16.726  0.4671 -0.2566  0.1975
 6677TIP3    H141522   1.749   1.638  16.646  0.8511 -0.1135  0.1342
 6677TIP3    H241523   1.770   1.501  16.707 -0.2775 -0.2189  0.3033
 6678TIP3   OH241524   1.215   6.422  14.187  0.5150  0.1784  0.0104
 6678TIP3    H141525   1.162   6.359  14.235  1.4203 -1.5004 -1.1015
 6678TIP3    H241526   1.258   6.474  14.255  0.1413 -0.7485  0.9764
 6679TIP3   OH241527   4.895   3.034   3.225  0.9031 -0.3030 -0.3103
 6679TIP3    H141528   4.833   3.102   3.253 -0.0593 -0.6943 -1.4164
 6679TIP3    H241529   4.864   3.007   3.138  2.5432 -0.6250 -0.8352
 6680TIP3   OH241530   3.926   1.295  13.603 -0.6070 -0.4662  0.3057
 6680TIP3    H141531   3.878   1.351  13.664  2.4273 -0.1438  2.6745
 6680TIP3    H241532   3.946   1.351  13.528 -0.1892  0.7572  1.3045
 6681TIP3   OH241533   4.961   0.750  15.198 -0.0352  0.3840 -0.0002
 6681TIP3    H141534   4.890   0.811  15.219 -0.1278  0.7434 -1.2423
 6681TIP3    H241535   4.918   0.665  15.191  0.3092 -0.1466  3.1078
 6682TIP3   OH241536   4.070   4.001  13.511  0.1368  0.5452 -0.0691
 6682TIP3    H141537   4.039   4.088  13.535 -2.1157  0.0625 -0.9652
 6682TIP3    H241538   4.104   4.010  13.422  2.4946  1.0199  0.8210
 6683TIP3   OH241539   2.819   2.439   2.901 -0.6424  0.8546  0.1601
 6683TIP3    H141540   2.758   2.479   2.964 -0.6568 -0.5121  1.0509
 6683TIP3    H241541   2.774   2.361   2.869 -0.9492  1.9156 -2.1891
 6684TIP3   OH241542   4.433   4.222  12.249  0.3001 -0.0796  0.1085
 6684TIP3    H141543   4.433   4.213  12.344  0.7278  1.0867  0.2416
 6684TIP3    H241544   4.379   4.299  12.232  0.1993 -0.2976 -0.5959
 6685TIP3   OH241545   6.836   5.587  12.076  0.1068  0.0536  0.3203
 6685TIP3    H141546   6.815   5.631  11.994  1.2309 -0.3701 -0.2253
 6685TIP3    H241547   6.815   5.651  12.144 -0.0256  0.7371 -0.3496
 6686TIP3   OH241548   0.260   3.325   0.951  0.3838  0.1374  0.2566
 6686TIP3    H141549   0.284   3.407   0.995  0.3475 -0.2331  0.9757
 6686TIP3    H241550   0.310   3.258   0.997 -0.4125 -0.3774  0.3813
 6687TIP3   OH241551   0.556   6.538   5.237 -0.3040 -0.1880 -0.3630
 6687TIP3    H141552   0.508   6.456   5.252 -0.6171 -0.1386 -1.0514
 6687TIP3    H241553   0.630   6.513   5.182 -2.1343  0.4319 -3.3499
 6688TIP3   OH241554   1.527   6.290  10.342  0.5714  0.1340  0.0090
 6688TIP3    H141555   1.451   6.263  10.393 -0.8691 -1.4839 -2.7589
 6688TIP3    H241556   1.602   6.275  10.400 -0.9836 -0.9424  1.8414
 6689TIP3   OH241557   3.773   0.158   2.040  0.2183 -0.5835  0.7088
 6689TIP3    H141558   3.781   0.203   1.956  0.3534 -0.6523  0.6843
 6689TIP3    H241559   3.705   0.206   2.087  2.4177  1.5854  1.8947
 6690TIP3   OH241560   2.692   3.633   1.544 -0.4110 -0.1208  0.3986
 6690TIP3    H141561   2.729   3.558   1.591 -0.0561 -0.2053 -0.0077
 6690TIP3    H241562   2.689   3.703   1.609  3.7302  0.9710 -0.2874
 6691TIP3   OH241563   5.999   4.404   6.379  0.0945  0.4263  0.3125
 6691TIP3    H141564   5.946   4.430   6.304 -0.1173  0.2871  0.4161
 6691TIP3    H241565   5.940   4.410   6.454  0.0424 -0.3744  0.3385
 6692TIP3   OH241566   3.898   4.057   0.458  0.1851 -0.2383  0.5112
 6692TIP3    H141567   3.933   3.968   0.458 -0.0586 -0.3364 -0.2460
 6692TIP3    H241568   3.929   4.096   0.377  1.0658  0.6868  1.2637
 6693TIP3   OH241569   5.968   3.824   5.478  0.0171 -0.3001  0.0063
 6693TIP3    H141570   5.920   3.905   5.465 -1.7706 -1.1289  1.0876
 6693TIP3    H241571   6.051   3.837   5.432 -0.1259  2.2012  0.3345
 6694TIP3   OH241572   6.375   3.803  13.796  0.1099 -0.3251  0.2468
 6694TIP3    H141573   6.437   3.871  13.771 -0.0234 -0.7063 -1.1909
 6694TIP3    H241574   6.367   3.747  13.719 -0.8528 -1.1742  0.9214
 6695TIP3   OH241575   1.417   4.334   5.350  0.1900 -0.0084 -0.1917
 6695TIP3    H141576   1.355   4.394   5.391  1.4427  0.3826  1.2131
 6695TIP3    H241577   1.364   4.285   5.287 -1.4343  0.6613  0.5806
 6696TIP3   OH241578   0.526   2.899  13.311 -0.0817  0.4690 -0.6134
 6696TIP3    H141579   0.599   2.837  13.308  0.6139  1.2938 -1.6478
 6696TIP3    H241580   0.512   2.916  13.404  0.6320 -0.1893 -0.3789
 6697TIP3   OH241581   3.172   1.028  16.724 -0.1396  0.4721  0.4217
 6697TIP3    H141582   3.175   1.081  16.644  0.8586 -1.3351 -0.8228
 6697TIP3    H241583   3.253   1.049  16.770 -0.3551  0.9564  0.5819
 6698TIP3   OH241584   3.451   0.062  10.650  0.3654  0.6124  0.0081
 6698TIP3    H141585   3.395   0.104  10.715  0.3330 -0.1476  0.4705
 6698TIP3    H241586   3.411   0.085  10.566 -1.0916 -0.5353  0.3517
 6699TIP3   OH241587   4.042   0.749   5.677  0.3545  0.1904  0.2291
 6699TIP3    H141588   4.027   0.732   5.770  0.8330 -0.0167  0.2738
 6699TIP3    H241589   4.126   0.707   5.659 -0.9319 -2.0758 -0.9041
 6700TIP3   OH241590   1.619   5.438  13.274 -0.0044 -0.7166  0.5581
 6700TIP3    H141591   1.637   5.394  13.357  1.3320  0.5727  0.9960
 6700TIP3    H241592   1.658   5.525  13.284  0.7258 -0.7349 -1.6654
 6701TIP3   OH241593   5.000   6.708   2.623  0.2693 -0.2916 -0.3516
 6701TIP3    H141594   4.913   6.679   2.597 -0.7680  1.8157  0.5666
 6701TIP3    H241595   4.988   6.749   2.709  1.9650  0.9896 -0.6664
 6702TIP3   OH241596   6.848   0.254  11.809  0.1197 -0.5862 -0.1534
 6702TIP3    H141597   6.852   0.277  11.716  0.1906  0.9846  0.2046
 6702TIP3    H241598   6.754   0.245  11.828 -0.2408  2.8307  0.3877
 6703TIP3   OH241599   6.101   3.419   1.495  0.4782  0.1166 -0.1318
 6703TIP3    H141600   6.045   3.345   1.473 -2.0622  1.3141  1.7833
 6703TIP3    H241601   6.178   3.380   1.536  0.2488 -1.5259 -1.1752
 6704TIP3   OH241602   5.885   3.418   5.808  0.5291  0.1049 -0.1575
 6704TIP3    H141603   5.914   3.456   5.725  0.4036  0.3729 -0.0823
 6704TIP3    H241604   5.808   3.470   5.833  1.7448  1.3805  1.1388
 6705TIP3   OH241605   3.681   3.644   4.422  0.5678 -0.0628  0.5496
 6705TIP3    H141606   3.691   3.648   4.517 -0.3290  0.1158  0.6495
 6705TIP3    H241607   3.636   3.725   4.400  0.3870 -0.3029  0.0262
 6706TIP3   OH241608   1.087   0.401   2.201  0.0215 -0.4285  0.2499
 6706TIP3    H141609   1.177   0.373   2.219 -0.4706 -0.3126  3.3759
 6706TIP3    H241610   1.036   0.320   2.209 -0.3429 -0.2086  0.1354
 6707TIP3   OH241611   2.740   3.297  10.193 -0.0524 -0.1189  0.8146
 6707TIP3    H141612   2.753   3.362  10.263 -1.6494 -0.2799  1.2862
 6707TIP3    H241613   2.656   3.320  10.154  0.0671 -1.0165  0.0007
 6708TIP3   OH241614   3.415   0.878   1.149 -0.5403 -0.0956 -0.1433
 6708TIP3    H141615   3.376   0.823   1.081 -0.8696 -1.1840  0.9027
 6708TIP3    H241616   3.464   0.818   1.204  1.4845  1.0573 -0.5875
 6709TIP3   OH241617   0.072   4.685  12.924  0.1967 -0.1652 -0.8664
 6709TIP3    H141618   0.028   4.602  12.904  0.3068 -0.1289 -1.2804
 6709TIP3    H241619   0.105   4.715  12.839  0.7829 -0.0552 -0.6016
 6710TIP3   OH241620   1.182   6.776  12.816  0.6455  0.0177  0.0989
 6710TIP3    H141621   1.270   6.761  12.780  0.5600 -0.1948 -0.0211
 6710TIP3    H241622   1.196   6.840  12.886  0.4193  3.0694 -2.4365
 6711TIP3   OH241623   2.998   6.560  16.127 -0.1042 -0.1157 -0.0717
 6711TIP3    H141624   2.935   6.488  16.127  0.0427 -0.2544 -0.8700
 6711TIP3    H241625   2.978   6.609  16.206 -1.8107  0.3525 -0.7468
 6712TIP3   OH241626   0.681   5.277  13.158 -0.1052 -0.1599  0.6909
 6712TIP3    H141627   0.662   5.186  13.184 -0.0121 -0.0614  1.1112
 6712TIP3    H241628   0.773   5.276  13.134  0.2833  0.1327  2.1040
 6713TIP3   OH241629   5.177   0.681  15.437  0.5764 -0.0484 -0.0599
 6713TIP3    H141630   5.146   0.590  15.440  2.5417 -0.9146 -2.2938
 6713TIP3    H241631   5.124   0.722  15.369 -0.5115  0.6252  1.1503
 6714TIP3   OH241632   0.806   2.320   4.719  0.0995  0.3657  0.2855
 6714TIP3    H141633   0.744   2.283   4.781 -0.4588 -1.4584 -1.2634
 6714TIP3    H241634   0.874   2.253   4.710 -0.4565  0.0165 -1.9344
 6715TIP3   OH241635   6.631   4.957   1.241  0.7022 -0.5381  0.3735
 6715TIP3    H141636   6.671   4.886   1.291 -2.0524 -1.7877  0.9811
 6715TIP3    H241637   6.589   5.012   1.307 -0.3233 -0.4404 -0.3464
 6716TIP3   OH241638   4.497   0.847  12.527 -0.7522 -0.2680 -0.3002
 6716TIP3    H141639   4.587   0.840  12.497 -0.6700  0.6765 -0.3016
 6716TIP3    H241640   4.479   0.763  12.569  0.5252 -0.0360  0.7699
 6717TIP3   OH241641   2.714   3.664   0.649  0.4468  0.0244 -0.0350
 6717TIP3    H141642   2.625   3.699   0.640 -0.2840 -1.4174  1.0253
 6717TIP3    H241643   2.770   3.727   0.605 -0.9166  1.8778  0.7862
 6718TIP3   OH241644   2.551   5.692  13.698  0.0676  0.1767 -0.2993
 6718TIP3    H141645   2.479   5.659  13.752 -0.5204  0.8099 -0.6831
 6718TIP3    H241646   2.607   5.739  13.759  2.0939 -3.2129  0.7080
 6719TIP3   OH241647   6.275   0.351   5.364 -0.4455  0.1184 -0.3473
 6719TIP3    H141648   6.249   0.330   5.454  0.2245  0.5328 -0.0509
 6719TIP3    H241649   6.192   0.367   5.318 -0.7377  1.3714  0.5677
 6720TIP3   OH241650   3.125   1.008   1.411 -0.1002 -0.0711  0.2182
 6720TIP3    H141651   3.166   0.982   1.493  0.0964 -0.2714  0.0562
 6720TIP3    H241652   3.114   0.926   1.362  0.1832  0.1007 -0.1397
 6721TIP3   OH241653   1.414   6.186  16.711  0.6854  0.1360 -0.6461
 6721TIP3    H141654   1.349   6.251  16.738  0.7364  0.1273 -0.5016
 6721TIP3    H241655   1.483   6.192  16.777  0.1017 -0.9672  0.0881
 6722TIP3   OH241656   5.650   2.431  12.378  0.1369 -0.8491  0.0938
 6722TIP3    H141657   5.563   2.423  12.419  0.6805 -0.4845  1.3705
 6722TIP3    H241658   5.708   2.380  12.435  0.4959 -2.6407 -1.7459
 6723TIP3   OH241659   4.290   2.914   5.428  0.1095 -0.1834  0.7365
 6723TIP3    H141660   4.241   2.870   5.359  1.7377 -1.2182  0.1801
 6723TIP3    H241661   4.265   2.868   5.508 -0.8753  0.2354  0.6823
 6724TIP3   OH241662   0.540   6.337  15.980  0.0635  0.3250 -0.0383
 6724TIP3    H141663   0.582   6.377  16.056  0.1297  0.0679  0.0593
 6724TIP3    H241664   0.542   6.406  15.913  2.7227 -0.4135 -0.8257
 6725TIP3   OH241665   4.443   3.769   0.675  0.8318  0.2095 -0.0977
 6725TIP3    H141666   4.377   3.709   0.711  2.2169 -2.0429 -1.1171
 6725TIP3    H241667   4.457   3.833   0.745 -1.5702  0.1044  0.5725
 6726TIP3   OH241668   1.838   0.446   3.431  0.1112 -0.3130  0.1637
 6726TIP3    H141669   1.750   0.416   3.408  0.5049 -1.3543 -0.0744
 6726TIP3    H241670   1.864   0.501   3.357 -0.5277  0.4333  0.4783
 6727TIP3   OH241671   1.629   0.510   5.402 -0.2097 -0.0864  0.4154
 6727TIP3    H141672   1.647   0.603   5.416  0.8655 -0.4753  1.8200
 6727TIP3    H241673   1.654   0.494   5.311 -0.0650  0.9199  0.2693
 6728TIP3   OH241674   2.790   0.852  15.408  0.2352 -0.3733 -0.2886
 6728TIP3    H141675   2.867   0.897  15.373 -0.1222 -0.2863 -0.9728
 6728TIP3    H241676   2.728   0.850  15.335 -0.0134 -1.3713 -0.0647
 6729TIP3   OH241677   2.055   2.198  14.551  0.1266 -0.2242 -0.3156
 6729TIP3    H141678   2.144   2.162  14.548 -0.0841 -0.7738 -0.1456
 6729TIP3    H241679   2.032   2.196  14.644 -0.6974 -1.7084 -0.5127
 6730TIP3   OH241680   0.532   5.144   0.407 -0.4421  0.1000 -0.3339
 6730TIP3    H141681   0.437   5.157   0.410 -0.3970  0.4340 -0.2979
 6730TIP3    H241682   0.553   5.142   0.314 -0.7904 -2.3467 -0.4301
 6731TIP3   OH241683   4.760   0.240   2.367  0.3490  0.4484  0.1045
 6731TIP3    H141684   4.829   0.201   2.421  0.1263  0.3770  0.3376
 6731TIP3    H241685   4.807   0.297   2.306  0.6965 -0.2791 -0.3317
 6732TIP3   OH241686   4.853   2.427   2.081 -0.8054 -0.2455 -0.6224
 6732TIP3    H141687   4.887   2.392   1.999  1.6091 -1.0930  0.6486
 6732TIP3    H241688   4.862   2.355   2.144  1.8687  1.7008  1.4567
 6733TIP3   OH241689   3.609   4.207   2.947 -0.3078 -0.7173 -0.0877
 6733TIP3    H141690   3.541   4.198   3.014 -0.2916 -2.0734 -0.2275
 6733TIP3    H241691   3.568   4.262   2.880  0.1261  1.7979  1.5510
 6734TIP3   OH241692   0.284   6.285   5.208 -0.2489  0.3048 -0.1086
 6734TIP3    H141693   0.258   6.266   5.298  1.3588  1.7272  0.7185
 6734TIP3    H241694   0.210   6.332   5.171 -0.4744  0.7413  0.8600
 6735TIP3   OH241695   5.776   6.206  10.553 -0.0580 -0.0533 -0.0052
 6735TIP3    H141696   5.702   6.213  10.614 -1.3966 -0.8561 -1.4720
 6735TIP3    H241697   5.851   6.237  10.604 -1.2580  0.1271  1.7679
 6736TIP3   OH241698   1.431   6.037   0.355 -0.0051 -0.1821 -0.0905
 6736TIP3    H141699   1.481   5.982   0.416 -0.9712  0.6592  1.5319
 6736TIP3    H241700   1.493   6.103   0.326  0.4220 -0.4819  0.1213
 6737TIP3   OH241701   3.109   5.578  10.837 -0.6944  0.2079  0.4728
 6737TIP3    H141702   3.050   5.617  10.902 -0.1392  2.8207 -0.4642
 6737TIP3    H241703   3.123   5.648  10.773  2.5575 -0.6679  0.0728
 6738TIP3   OH241704   3.796   3.890  15.892  0.2271  0.4250 -0.1457
 6738TIP3    H141705   3.829   3.882  15.981  0.7426 -1.1439 -0.4501
 6738TIP3    H241706   3.832   3.973  15.861  1.8902 -0.0582  0.3750
 6739TIP3   OH241707   2.427   3.338   1.937 -0.2811  0.3159  0.0913
 6739TIP3    H141708   2.370   3.333   1.860  1.4792  2.3792 -1.4425
 6739TIP3    H241709   2.403   3.421   1.979  0.5919  0.4872  0.2580
 6740TIP3   OH241710   2.930   5.593  14.671 -0.0136  0.1942  0.0923
 6740TIP3    H141711   3.011   5.626  14.632 -0.2270  0.6579  0.0302
 6740TIP3    H241712   2.959   5.540  14.745  0.3718 -0.2152 -0.3440
 6741TIP3   OH241713   0.476   2.050  11.635 -0.3529  0.1926 -0.3727
 6741TIP3    H141714   0.421   1.992  11.687 -0.6876 -1.2155 -2.1558
 6741TIP3    H241715   0.415   2.104  11.586 -0.0884  0.4186 -0.4580
 6742TIP3   OH241716   0.805   2.721  15.499 -0.0172 -0.3522 -0.4813
 6742TIP3    H141717   0.716   2.715  15.464 -0.2569 -0.8974  0.1932
 6742TIP3    H241718   0.813   2.811  15.529  0.4080  0.3164 -2.4458
 6743TIP3   OH241719   1.441   4.265   4.903  0.5354  0.1974  0.5057
 6743TIP3    H141720   1.461   4.294   4.814 -0.4617 -1.4506 -0.3026
 6743TIP3    H241721   1.510   4.202   4.924  1.6095  1.6550  1.5097
 6744TIP3   OH241722   6.669   1.610   0.126 -0.0800 -0.2286  0.1533
 6744TIP3    H141723   6.667   1.515   0.118 -0.9795 -0.1294 -1.0839
 6744TIP3    H241724   6.578   1.638   0.123 -0.1761  0.5058  4.0067
 6745TIP3   OH241725   4.544   3.004  13.512  0.1012 -0.7106 -0.2074
 6745TIP3    H141726   4.472   2.941  13.505  1.1787 -2.1359  0.9683
 6745TIP3    H241727   4.623   2.952  13.499  1.0163  0.4299  0.5716
 6746TIP3   OH241728   4.982   5.621   2.881  0.2467 -0.0982 -0.3020
 6746TIP3    H141729   4.913   5.677   2.917 -1.1550 -1.8937 -0.0387
 6746TIP3    H241730   5.037   5.599   2.957  0.8952  0.9716 -0.4327
 6747TIP3   OH241731   1.184   5.882  15.099  0.3282 -0.3113  0.0590
 6747TIP3    H141732   1.188   5.832  15.018 -0.7018  0.7881 -0.6931
 6747TIP3    H241733   1.136   5.825  15.160 -0.5501 -0.3735 -0.6816
 6748TIP3   OH241734   4.788   6.750   2.424  0.2692 -0.5860  0.2115
 6748TIP3    H141735   4.798   6.844   2.407  1.3765 -0.4691  1.3082
 6748TIP3    H241736   4.720   6.745   2.491  2.9025 -0.1294  3.1981
 6749TIP3   OH241737   4.133   0.091   4.692 -0.0113 -0.4101  0.0936
 6749TIP3    H141738   4.183   0.172   4.696 -1.3872  0.4490  0.4903
 6749TIP3    H241739   4.106   0.083   4.600 -2.1160  1.0491  0.5032
 6750TIP3   OH241740   5.777   1.252   4.335 -0.3241  0.2156  0.9036
 6750TIP3    H141741   5.844   1.314   4.308 -0.1381 -0.0455  0.7671
 6750TIP3    H241742   5.825   1.181   4.378 -0.6023  0.6034  1.8961
 6751TIP3   OH241743   2.084   2.466  14.814  0.0386  0.0561 -0.7244
 6751TIP3    H141744   2.015   2.495  14.754 -0.5147  0.5473  0.1380
 6751TIP3    H241745   2.048   2.389  14.857 -0.6700  1.2493  0.9252
 6752TIP3   OH241746   1.409   3.278  16.776  0.0627 -0.0411  0.3642
 6752TIP3    H141747   1.402   3.334  16.699 -0.9035 -1.1959 -0.4251
 6752TIP3    H241748   1.353   3.203  16.757 -1.2224  0.2106  2.7232
 6753TIP3   OH241749   4.207   3.315  11.464 -0.6753 -0.2768 -0.4075
 6753TIP3    H141750   4.265   3.298  11.539  0.7913  0.2306 -1.3799
 6753TIP3    H241751   4.129   3.354  11.503  0.3323  0.6086  0.8227
 6754TIP3   OH241752   2.554   2.298   3.920 -0.3262 -0.0057  0.2514
 6754TIP3    H141753   2.473   2.261   3.886 -0.4711  0.4667  0.0644
 6754TIP3    H241754   2.533   2.390   3.937  0.1304  0.0896  0.3232
 6755TIP3   OH241755   1.500   5.976   5.102 -0.3171  0.3957 -0.0530
 6755TIP3    H141756   1.583   5.987   5.149 -0.2147  2.2738 -0.6051
 6755TIP3    H241757   1.434   5.976   5.171  0.0564 -0.0583  0.3125
 6756TIP3   OH241758   1.083   6.325   3.576 -0.6345  0.2083 -0.1466
 6756TIP3    H141759   0.995   6.294   3.598 -0.5221 -0.7496 -0.9891
 6756TIP3    H241760   1.138   6.293   3.648 -0.5696 -1.3565 -0.8597
 6757TIP3   OH241761   5.341   5.721  15.649  0.5814 -0.2125 -0.6160
 6757TIP3    H141762   5.309   5.793  15.595  0.6969  0.2247 -0.1163
 6757TIP3    H241763   5.283   5.648  15.629 -0.1514  0.3001 -0.4241
 6758TIP3   OH241764   4.364   2.296   5.275 -0.3194  0.7054  0.3433
 6758TIP3    H141765   4.393   2.346   5.198 -1.2987 -0.2582 -0.6898
 6758TIP3    H241766   4.269   2.293   5.267 -0.2687 -2.3431 -0.3720
 6759TIP3   OH241767   4.174   0.819  15.821  0.5270  0.0455 -0.3484
 6759TIP3    H141768   4.105   0.791  15.881  0.1449  0.7969 -0.4280
 6759TIP3    H241769   4.225   0.739  15.803  0.5186 -0.2243  0.7976
 6760TIP3   OH241770   0.576   6.215   5.876  0.0747  0.6506 -0.1224
 6760TIP3    H141771   0.625   6.152   5.928  2.1175  2.1815 -0.0612
 6760TIP3    H241772   0.596   6.192   5.785 -0.8258  0.0003 -0.1680
 6761TIP3   OH241773   0.984   0.290  15.473  0.2019 -0.1887 -0.3219
 6761TIP3    H141774   0.975   0.248  15.558  1.1520 -0.7508 -0.4863
 6761TIP3    H241775   1.039   0.230  15.422 -1.3745 -0.4824 -1.7612
 6762TIP3   OH241776   3.481   6.249  11.834 -0.1577 -0.1540  0.0869
 6762TIP3    H141777   3.449   6.335  11.807  0.6749  0.3474  0.6535
 6762TIP3    H241778   3.541   6.267  11.906  1.6078 -1.0380 -1.0913
 6763TIP3   OH241779   2.046   5.535   0.585  0.3623  0.1897 -0.4513
 6763TIP3    H141780   1.967   5.484   0.604 -0.0271  1.7484  2.8461
 6763TIP3    H241781   2.014   5.619   0.553  0.5168  1.0949  1.5751
 6764TIP3   OH241782   3.769   0.051  10.639 -0.3350 -0.3837  0.3825
 6764TIP3    H141783   3.782   0.135  10.683 -0.5870 -0.8984  1.4784
 6764TIP3    H241784   3.694   0.011  10.684 -1.4207 -0.3980 -1.3593
 6765TIP3   OH241785   5.650   0.008  16.833 -0.2787 -0.2943  0.0646
 6765TIP3    H141786   5.644  -0.051  16.908  1.1980  0.1491  0.5716
 6765TIP3    H241787   5.688  -0.046  16.763  0.5475 -0.1134  0.3610
 6766TIP3   OH241788   2.656   6.481  14.850  0.2963  0.2377 -0.7796
 6766TIP3    H141789   2.602   6.556  14.877  0.7072  0.3882 -0.3629
 6766TIP3    H241790   2.743   6.500  14.886  0.6186 -0.0268 -1.4020
 6767TIP3   OH241791   0.815   5.141   2.273  0.0966 -0.3487 -0.1863
 6767TIP3    H141792   0.725   5.144   2.242  0.4067 -0.5324 -1.1428
 6767TIP3    H241793   0.853   5.064   2.230  0.1882 -1.4182  1.7027
 6768TIP3   OH241794   3.211   4.846  15.616 -0.1832 -0.3474  0.1398
 6768TIP3    H141795   3.150   4.821  15.547 -0.4970  0.3517  0.1546
 6768TIP3    H241796   3.205   4.941  15.620 -0.4916 -0.4042  1.4193
 6769TIP3   OH241797   6.578   0.443  13.861 -0.3759 -0.5119 -0.0109
 6769TIP3    H141798   6.609   0.394  13.937  1.4108 -0.2603 -0.5233
 6769TIP3    H241799   6.523   0.512  13.897 -1.1547 -1.5632  0.8793
 6770TIP3   OH241800   5.632   6.395   3.310 -0.1371 -0.0870 -0.2135
 6770TIP3    H141801   5.712   6.420   3.357 -0.7134  1.8346 -0.1750
 6770TIP3    H241802   5.664   6.344   3.235  1.0048 -0.5220  0.5306
 6771TIP3   OH241803   0.995   3.304  13.372  0.4547  0.0339  0.1960
 6771TIP3    H141804   0.920   3.258  13.334  0.4427  0.4204 -0.2582
 6771TIP3    H241805   1.043   3.339  13.297  1.0467 -0.1324  0.4856
 6772TIP3   OH241806   5.639   5.444   3.691 -0.4419 -0.6195  0.2229
 6772TIP3    H141807   5.597   5.530   3.683  0.5921  0.0674  1.6862
 6772TIP3    H241808   5.583   5.385   3.640 -2.0517  0.6223  0.4556
 6773TIP3   OH241809   6.566   2.156  13.199  0.0512  0.2108  0.3030
 6773TIP3    H141810   6.630   2.085  13.208 -0.4388 -0.3537 -0.4624
 6773TIP3    H241811   6.516   2.132  13.121  1.5127  2.7023 -1.5684
 6774TIP3   OH241812   1.229   0.578   2.864 -0.2710  0.0404  0.3696
 6774TIP3    H141813   1.162   0.647   2.862 -1.7602 -1.3385 -0.7224
 6774TIP3    H241814   1.283   0.596   2.787  0.0609  0.6380  0.7356
 6775TIP3   OH241815   6.713   6.274  11.851  0.1578 -0.7898 -0.0156
 6775TIP3    H141816   6.692   6.362  11.883  0.7943 -0.6085 -0.0957
 6775TIP3    H241817   6.650   6.217  11.895  2.6500 -0.9799  3.7343
 6776TIP3   OH241818   6.457   3.167  11.630  0.1227  0.0457 -0.2117
 6776TIP3    H141819   6.453   3.072  11.627  3.8819 -0.3814  2.0931
 6776TIP3    H241820   6.526   3.191  11.568  1.2525  0.9111  1.2997
 6777TIP3   OH241821   1.317   6.360   2.286 -0.0015 -0.0474  0.2129
 6777TIP3    H141822   1.339   6.438   2.235 -0.5201  0.1590  0.2944
 6777TIP3    H241823   1.248   6.317   2.236  2.0958 -1.9305 -1.2230
 6778TIP3   OH241824   2.730   5.257  11.866 -0.3334 -0.0319 -0.4664
 6778TIP3    H141825   2.824   5.264  11.847 -0.4644  1.2669 -0.7842
 6778TIP3    H241826   2.726   5.234  11.959  0.3068  0.6459 -0.2573
 6779TIP3   OH241827   1.808   1.735  14.085  0.1623 -0.3030  0.4819
 6779TIP3    H141828   1.771   1.747  14.173  0.4967 -0.5123  0.6549
 6779TIP3    H241829   1.836   1.644  14.083 -1.1951 -0.7361 -0.3711
 6780TIP3   OH241830   5.173   1.943   0.262 -0.6505 -0.3842  0.2910
 6780TIP3    H141831   5.156   1.849   0.266 -0.5269 -0.4220 -0.0523
 6780TIP3    H241832   5.112   1.981   0.326 -1.0829 -0.6440  0.0359
 6781TIP3   OH241833   2.735   3.829   1.704 -0.2229 -0.3934  0.0102
 6781TIP3    H141834   2.725   3.924   1.714  0.1849 -0.3688  0.2307
 6781TIP3    H241835   2.685   3.792   1.777  0.0883 -0.3236  0.2636
 6782TIP3   OH241836   3.925   3.031   4.137 -0.4727 -0.3494 -0.4659
 6782TIP3    H141837   3.901   3.093   4.206  1.3168 -0.0419 -0.0748
 6782TIP3    H241838   3.918   3.080   4.056 -1.0858 -0.2530 -0.3541
 6783TIP3   OH241839   5.772   4.370   5.047  0.2945  0.6436  0.0314
 6783TIP3    H141840   5.715   4.301   5.011  0.8751  0.3151 -0.2800
 6783TIP3    H241841   5.731   4.394   5.130  0.8460 -1.1048  0.8715
 6784TIP3   OH241842   3.617   2.201  10.709  0.6129  0.2376 -0.2227
 6784TIP3    H141843   3.652   2.265  10.771 -0.0032  0.1787  0.1996
 6784TIP3    H241844   3.615   2.248  10.626  3.0423 -0.2147 -0.6095
 6785TIP3   OH241845   2.387   5.578  12.505 -0.0349 -0.1355 -0.9414
 6785TIP3    H141846   2.323   5.632  12.459 -3.0681 -2.5886  0.0574
 6785TIP3    H241847   2.404   5.505  12.446 -0.0749 -0.7344 -0.2354
 6786TIP3   OH241848   6.338   0.824   4.532 -0.2457 -0.7228 -0.0170
 6786TIP3    H141849   6.297   0.906   4.557 -2.5975 -2.0493  0.8056
 6786TIP3    H241850   6.389   0.798   4.609  0.4394 -0.1129 -0.2517
 6787TIP3   OH241851   2.554   0.901   5.712 -0.7388 -0.1757 -0.0987
 6787TIP3    H141852   2.524   0.936   5.629 -0.2197  2.1082  0.6148
 6787TIP3    H241853   2.556   0.976   5.771 -2.5418 -1.9713  2.4437
 6788TIP3   OH241854   4.450   5.853   4.346  0.2152  0.7750  0.1443
 6788TIP3    H141855   4.515   5.805   4.295 -0.3000  2.6517 -2.5197
 6788TIP3    H241856   4.500   5.924   4.386  0.1592  1.0162 -0.2067
 6789TIP3   OH241857   6.424   3.532  16.049  0.2757 -0.1546 -0.7203
 6789TIP3    H141858   6.360   3.476  16.005 -0.1376  0.1150 -0.4700
 6789TIP3    H241859   6.423   3.613  15.999  0.5262 -0.1961 -0.7976
 6790TIP3   OH241860   2.901   6.894   4.854 -0.3224  0.1533 -0.0473
 6790TIP3    H141861   2.839   6.872   4.784 -0.2920 -1.3957  0.3777
 6790TIP3    H241862   2.874   6.839   4.928  0.8131  0.3787  0.5494
 6791TIP3   OH241863   2.822   0.568  15.340 -0.5001  0.4621 -0.2019
 6791TIP3    H141864   2.877   0.636  15.379  0.8305 -0.2504 -0.7852
 6791TIP3    H241865   2.822   0.587  15.246  0.1492 -0.5033 -0.4158
 6792TIP3   OH241866   5.752   6.028   1.887  0.3591 -0.1929  0.1984
 6792TIP3    H141867   5.668   6.058   1.852 -0.0954  0.1115  1.4936
 6792TIP3    H241868   5.817   6.082   1.842  0.3277 -3.1970 -3.9691
 6793TIP3   OH241869   2.126   4.368   0.782  0.2604  0.1005 -0.1568
 6793TIP3    H141870   2.037   4.390   0.812  1.0158 -0.0854  2.4783
 6793TIP3    H241871   2.127   4.272   0.781  0.9722  0.0176  1.9595
 6794TIP3   OH241872   0.081   5.949  12.888  0.0814  0.5529 -0.2383
 6794TIP3    H141873   0.150   5.972  12.950  1.7168  0.3382 -1.9198
 6794TIP3    H241874   0.008   5.921  12.944  1.1841  1.1596  1.6003
 6795TIP3   OH241875   0.193   1.191  12.457  0.2891  0.1700  0.3322
 6795TIP3    H141876   0.118   1.198  12.398  1.2992 -0.0194 -1.0437
 6795TIP3    H241877   0.240   1.113  12.427  1.1390  0.3865  1.0370
 6796TIP3   OH241878   5.276   4.543  15.911 -0.0691 -0.1763  1.0766
 6796TIP3    H141879   5.342   4.610  15.894 -0.8811  0.2660 -0.5551
 6796TIP3    H241880   5.305   4.468  15.858 -0.2769 -0.3757  1.2444
 6797TIP3   OH241881   6.431   1.949  11.212  0.2282  0.2202  0.5511
 6797TIP3    H141882   6.497   2.013  11.186  0.6870  0.0286  1.2234
 6797TIP3    H241883   6.448   1.872  11.158 -0.3062  0.6450 -0.2397
 6798TIP3   OH241884   5.158   1.010  10.931 -0.3570 -0.3770 -0.1085
 6798TIP3    H141885   5.237   1.046  10.973 -0.5001  0.2948 -0.3951
 6798TIP3    H241886   5.160   0.917  10.951  0.2009 -0.2618  0.3874
 6799TIP3   OH241887   3.540   5.543  15.109  1.0560  0.0920  0.3049
 6799TIP3    H141888   3.482   5.518  15.181 -0.2740  0.9419 -0.4249
 6799TIP3    H241889   3.550   5.638  15.119  0.5117  0.2850 -0.8556
 6800TIP3   OH241890   5.717   2.966  13.809 -0.1748  0.1416 -0.1082
 6800TIP3    H141891   5.781   2.990  13.742 -0.7625  3.4829  0.3627
 6800TIP3    H241892   5.764   2.905  13.866  1.3447 -0.3485 -1.7774
 6801TIP3   OH241893   6.186   0.038  15.139  0.0971 -0.5482  0.0958
 6801TIP3    H141894   6.160  -0.043  15.096  1.7510 -0.7795 -0.5263
 6801TIP3    H241895   6.230   0.088  15.071 -1.0828  1.0078  0.4059
 6802TIP3   OH241896   2.908   3.839   0.583 -0.1600  0.1789  0.4270
 6802TIP3    H141897   3.001   3.816   0.571  0.1692  0.4089  2.1986
 6802TIP3    H241898   2.877   3.861   0.495  1.2988 -0.5013 -0.3004
 6803TIP3   OH241899   6.054   4.708   4.229 -0.2455  1.2309  0.0885
 6803TIP3    H141900   6.109   4.643   4.184 -1.5096  0.4031 -0.3095
 6803TIP3    H241901   6.067   4.789   4.179 -0.7919  0.5875 -1.1510
 6804TIP3   OH241902   3.762   1.988   0.999  0.2277 -0.2869  0.2022
 6804TIP3    H141903   3.856   1.969   0.989 -0.2763 -3.5637  0.6360
 6804TIP3    H241904   3.749   1.993   1.094 -0.0424  0.2208  0.1411
 6805TIP3   OH241905   6.362   5.049  11.587 -0.3268 -0.1962  0.4293
 6805TIP3    H141906   6.416   5.094  11.522 -1.0847  1.8276  1.1264
 6805TIP3    H241907   6.354   4.960  11.553  1.9815 -0.1173 -0.5665
 6806TIP3   OH241908   4.548   1.856  12.938  0.1147  0.3088 -0.5554
 6806TIP3    H141909   4.530   1.877  13.030  0.4952  2.4671 -0.9311
 6806TIP3    H241910   4.493   1.780  12.920 -0.4371  0.2243  1.2906
 6807TIP3   OH241911   2.793   6.499   2.979 -0.0030  0.3597 -0.3464
 6807TIP3    H141912   2.781   6.584   2.935  1.2601  0.6680 -0.1541
 6807TIP3    H241913   2.754   6.511   3.066 -1.4804  0.1226 -0.9525
 6808TIP3   OH241914   1.323   1.817   1.182  0.0302  0.1220 -0.2221
 6808TIP3    H141915   1.286   1.871   1.252  0.5237  1.6493 -1.1112
 6808TIP3    H241916   1.253   1.810   1.117  0.6876  1.6373 -1.1463
 6809TIP3   OH241917   0.548   0.825  12.439 -0.7975  0.1598  0.1564
 6809TIP3    H141918   0.535   0.918  12.460 -0.6737  0.0391  0.7842
 6809TIP3    H241919   0.595   0.825  12.355 -0.6573  0.6639  0.2320
 6810TIP3   OH241920   5.100   1.531   1.742  0.6801  0.6847 -0.0936
 6810TIP3    H141921   5.117   1.466   1.810  3.3892 -1.6472 -2.6920
 6810TIP3    H241922   5.021   1.500   1.699  0.5006  0.5922  0.2946
 6811TIP3   OH241923   6.454   0.055  16.206 -0.6999  0.0436  0.4546
 6811TIP3    H141924   6.471   0.124  16.269 -0.4440 -0.5252  1.0152
 6811TIP3    H241925   6.463   0.097  16.121 -0.4600  0.6785  0.7916
 6812TIP3   OH241926   6.545   0.594   1.685  0.7759  0.0155 -0.8485
 6812TIP3    H141927   6.497   0.673   1.661  1.0119 -0.1828 -2.0894
 6812TIP3    H241928   6.478   0.525   1.686  0.6847  0.1078 -0.4474
 6813TIP3   OH241929   1.776   4.551  10.679  0.3954 -0.4634 -0.0814
 6813TIP3    H141930   1.699   4.603  10.699  0.3606 -0.0008 -1.2995
 6813TIP3    H241931   1.850   4.603  10.711  0.3569  0.3383 -1.2391
 6814TIP3   OH241932   3.939   1.850  12.618  0.3649 -0.2616  0.1126
 6814TIP3    H141933   3.917   1.943  12.618  0.6508 -0.1404 -2.0564
 6814TIP3    H241934   4.006   1.841  12.551  0.9260 -1.9257  0.8456
 6815TIP3   OH241935   0.769   6.600   9.911 -0.3499 -0.2432  0.0118
 6815TIP3    H141936   0.748   6.545   9.987  0.7523  0.1264  0.6111
 6815TIP3    H241937   0.749   6.689   9.940 -0.5846 -0.1701 -0.3769
 6816TIP3   OH241938   1.418   6.696  11.702 -0.0111  0.0287 -0.4927
 6816TIP3    H141939   1.493   6.641  11.679  0.7393  0.5728  0.5663
 6816TIP3    H241940   1.393   6.737  11.619  1.4031  0.4788 -0.7269
 6817TIP3   OH241941   2.391   2.784  14.089 -0.4498 -0.4038  0.0379
 6817TIP3    H141942   2.427   2.809  14.174  1.9529 -0.8586 -0.7411
 6817TIP3    H241943   2.320   2.724  14.109 -1.4817  1.2460  1.7352
 6818TIP3   OH241944   1.485   5.243  10.171 -0.5937  0.5249  0.4184
 6818TIP3    H141945   1.423   5.189  10.123 -0.3360  0.6611 -0.0801
 6818TIP3    H241946   1.546   5.274  10.104  1.9763 -2.2057  1.3069
 6819TIP3   OH241947   1.195   1.104   0.671  0.3552 -0.3206 -0.1663
 6819TIP3    H141948   1.148   1.032   0.713 -0.4904  0.8954  1.0706
 6819TIP3    H241949   1.205   1.077   0.580  0.5233 -2.2074  0.3792
 6820TIP3   OH241950   5.434   1.291   1.229  0.0682  0.3614 -0.3042
 6820TIP3    H141951   5.444   1.215   1.286 -0.6504  0.1722 -0.4280
 6820TIP3    H241952   5.524   1.313   1.203  0.5494  1.3061  1.9763
 6821TIP3   OH241953   5.662   4.928  15.260  0.0116 -0.3428  0.2474
 6821TIP3    H141954   5.705   5.004  15.221 -1.0289  0.5378  0.7634
 6821TIP3    H241955   5.689   4.930  15.352 -0.2823 -0.4073  0.3348
 6822TIP3   OH241956   4.611   3.489  12.165 -0.1615  0.1984  0.2520
 6822TIP3    H141957   4.533   3.476  12.112 -0.1332 -2.3541  0.7379
 6822TIP3    H241958   4.578   3.525  12.248 -0.4536  1.8349 -0.5216
 6823TIP3   OH241959   0.871   2.747   3.190  0.3034  0.5673  0.2211
 6823TIP3    H141960   0.817   2.826   3.201 -1.1947 -0.5759  1.4684
 6823TIP3    H241961   0.807   2.677   3.173  1.3386 -0.8909  2.0094
 6824TIP3   OH241962   4.239   5.422  10.787  0.5403  0.7577  0.3545
 6824TIP3    H141963   4.306   5.387  10.728  0.1674 -0.6835  0.7458
 6824TIP3    H241964   4.241   5.516  10.772  0.2887  0.4343 -2.1253
 6825TIP3   OH241965   1.830   0.531  11.985 -0.2635 -0.0242 -0.2551
 6825TIP3    H141966   1.878   0.538  11.903  0.3825  1.1354  0.2028
 6825TIP3    H241967   1.791   0.444  11.982  2.0388 -1.1221 -0.5450
 6826TIP3   OH241968   1.741   0.171   3.056 -0.0822  0.2057  0.1158
 6826TIP3    H141969   1.680   0.101   3.034  0.1932  0.0530 -0.1648
 6826TIP3    H241970   1.687   0.250   3.059 -0.1601  0.2000 -0.9253
 6827TIP3   OH241971   6.612   4.794   1.933  0.0945  0.3915 -0.1528
 6827TIP3    H141972   6.523   4.760   1.945 -0.0022  0.7051  0.0365
 6827TIP3    H241973   6.665   4.746   1.997  0.0724  0.1606 -0.3079
 6828TIP3   OH241974   1.812   0.177  15.850 -0.0808  0.4233 -0.5252
 6828TIP3    H141975   1.896   0.221  15.860  0.6822 -0.8498 -1.2426
 6828TIP3    H241976   1.750   0.249  15.836  0.8489  1.3848  0.1013
 6829TIP3   OH241977   6.650   1.323  14.668 -0.6028 -0.6302  0.3114
 6829TIP3    H141978   6.745   1.320  14.660 -0.4742 -1.1532  1.7623
 6829TIP3    H241979   6.618   1.262  14.602  0.1794 -1.9720  1.1334
 6830TIP3   OH241980   3.722   2.277   4.589  0.1942  0.5259 -0.1209
 6830TIP3    H141981   3.657   2.281   4.660  1.5665  2.5381  1.1183
 6830TIP3    H241982   3.690   2.339   4.524  0.1720  0.4432 -0.1907
 6831TIP3   OH241983   5.393   6.614   0.086 -0.1855 -0.2524  0.4399
 6831TIP3    H141984   5.370   6.567   0.166 -1.2930 -0.1114  0.2166
 6831TIP3    H241985   5.469   6.666   0.110  0.3305 -1.2397  1.0214
 6832TIP3   OH241986   0.817   5.673   1.981 -0.0963 -0.0011  0.0932
 6832TIP3    H141987   0.793   5.590   2.023  0.6106  0.3656  1.2860
 6832TIP3    H241988   0.912   5.667   1.968 -0.2368  0.0888 -1.0619
 6833TIP3   OH241989   4.077   6.179  12.978  0.5639  0.2158 -0.3637
 6833TIP3    H141990   4.026   6.165  13.058 -0.8337 -0.4002 -1.3086
 6833TIP3    H241991   4.123   6.262  12.993 -2.1949  1.8467 -0.1015
 6834TIP3   OH241992   4.034   5.500  16.046  0.4262  0.9128 -0.6525
 6834TIP3    H141993   4.048   5.537  15.958  0.1827 -1.5371 -1.7909
 6834TIP3    H241994   4.075   5.414  16.043 -1.5658 -0.1850  0.8765
 6835TIP3   OH241995   0.322   2.547   2.040  0.3121 -0.4308  0.1445
 6835TIP3    H141996   0.281   2.629   2.069 -2.2488 -1.5970  0.0944
 6835TIP3    H241997   0.312   2.548   1.945  2.9144  0.4369 -0.2079
 6836TIP3   OH241998   0.894   0.167  10.741  0.2899 -0.0111  0.0375
 6836TIP3    H141999   0.866   0.149  10.831 -0.3864  0.6031 -0.0457
 6836TIP3    H242000   0.813   0.185  10.693  0.5507 -1.1815 -0.9161
 6837TIP3   OH242001   0.288   3.308   0.419 -0.1607 -0.4119 -0.1851
 6837TIP3    H142002   0.210   3.305   0.364 -0.1075 -0.2088 -0.2726
 6837TIP3    H242003   0.283   3.391   0.465  0.4037 -0.0209 -0.7981
 6838TIP3   OH242004   2.768   2.823   1.306  0.2329 -0.2036 -0.3136
 6838TIP3    H142005   2.800   2.739   1.272 -1.3742 -1.6758  1.5618
 6838TIP3    H242006   2.845   2.862   1.347  1.0178 -0.7210 -1.2328
 6839TIP3   OH242007   3.973   6.154  11.827 -0.3414 -0.0698 -0.2211
 6839TIP3    H142008   4.030   6.218  11.784  1.3019 -1.1416  0.2911
 6839TIP3    H242009   3.947   6.196  11.909  1.7042 -0.4627  0.6816
 6840TIP3   OH242010   1.424   2.815  16.171 -0.0651  0.0466  0.0904
 6840TIP3    H142011   1.483   2.816  16.096 -0.3230  0.4204 -0.1095
 6840TIP3    H242012   1.476   2.779  16.242  1.5659  3.5447  0.8727
 6841TIP3   OH242013   5.621   2.752   0.706  0.3865  0.5599 -0.2514
 6841TIP3    H142014   5.651   2.843   0.711 -1.4364  1.2302 -0.7986
 6841TIP3    H242015   5.630   2.730   0.613 -0.2406  0.5817 -0.3211
 6842TIP3   OH242016   3.324   5.203   4.610  0.1288  0.2875 -0.2182
 6842TIP3    H142017   3.307   5.114   4.640  0.2651  1.0180  2.2257
 6842TIP3    H242018   3.238   5.243   4.604  0.1848  0.5982  0.8301
 6843TIP3   OH242019   3.572   4.165  14.533  0.0925 -0.9054  0.6258
 6843TIP3    H142020   3.532   4.086  14.568 -0.0362 -1.0912  0.0694
 6843TIP3    H242021   3.510   4.195  14.465 -0.8316  0.7273  2.0995
 6844TIP3   OH242022   5.586   0.684   2.310 -0.0316 -0.2046 -0.2018
 6844TIP3    H142023   5.514   0.725   2.357  0.6390 -0.0426  0.7181
 6844TIP3    H242024   5.591   0.731   2.226 -0.9337 -0.1698 -0.2413
 6845TIP3   OH242025   5.948   4.745  16.576 -0.0940 -0.9335 -0.2457
 6845TIP3    H142026   5.991   4.797  16.644 -1.5127 -0.5755  0.4136
 6845TIP3    H242027   5.995   4.766  16.496  1.6533 -1.4067  0.6167
 6846TIP3   OH242028   3.679   3.056   0.332 -0.4740  0.5935 -0.3253
 6846TIP3    H142029   3.609   2.994   0.313 -0.5869  0.2375  1.1767
 6846TIP3    H242030   3.747   3.004   0.376  0.7429  0.9387 -1.6954
 6847TIP3   OH242031   3.365   3.652   3.076 -0.0125 -0.2138  0.0707
 6847TIP3    H142032   3.350   3.711   3.002 -0.3011  0.4838  0.6767
 6847TIP3    H242033   3.303   3.580   3.061  0.2654 -0.3173 -0.6153
 6848TIP3   OH242034   3.720   0.181  14.663  0.1970  0.2400 -0.7119
 6848TIP3    H142035   3.807   0.195  14.700  1.2505 -0.0124 -2.9747
 6848TIP3    H242036   3.679   0.268  14.665 -0.5290 -0.0458  2.5802
 6849TIP3   OH242037   1.045   3.997   1.212 -0.7305  0.1602 -0.0845
 6849TIP3    H142038   0.999   3.959   1.286  1.0784  0.3011  1.1748
 6849TIP3    H242039   1.018   4.088   1.211  0.1052  0.4491  1.1708
 6850TIP3   OH242040   3.184   0.418   2.894 -0.4301 -0.3588  0.1540
 6850TIP3    H142041   3.225   0.334   2.917  0.0324  0.3143  1.9549
 6850TIP3    H242042   3.258   0.473   2.865 -0.4539 -0.0426  0.6701
 6851TIP3   OH242043   2.528   1.551   3.467  0.0615  0.0941  0.2029
 6851TIP3    H142044   2.604   1.608   3.485  0.9405 -0.8960 -0.2708
 6851TIP3    H242045   2.558   1.493   3.397 -1.1525 -0.3158  0.0026
 6852TIP3   OH242046   0.837   5.845  15.134  0.2596 -0.1069 -0.1937
 6852TIP3    H142047   0.838   5.764  15.083  0.7170 -0.9278  1.0639
 6852TIP3    H242048   0.862   5.818  15.222  1.5306  1.5652  0.0154
 6853TIP3   OH242049   1.446   3.067   5.343 -0.2928  0.1729  0.0174
 6853TIP3    H142050   1.533   3.079   5.305  0.3457 -1.0982  0.9877
 6853TIP3    H242051   1.424   3.153   5.380  1.7989 -0.1407  2.2073
 6854TIP3   OH242052   0.329   0.123   4.619 -0.0583  0.1335 -0.1472
 6854TIP3    H142053   0.374   0.140   4.702  0.6164  0.3601 -0.5548
 6854TIP3    H242054   0.329   0.028   4.611  1.8680  0.1643 -0.9492
 6855TIP3   OH242055   4.034   1.922  13.530 -0.6390 -0.3730 -0.1830
 6855TIP3    H142056   4.006   1.938  13.440 -1.3379 -0.4933  0.0099
 6855TIP3    H242057   3.997   1.995  13.580 -0.7413 -0.6170  0.1001
 6856TIP3   OH242058   0.339   1.987   3.576 -0.2179  0.0813 -0.3194
 6856TIP3    H142059   0.403   1.920   3.599  1.3535  1.1223 -1.4285
 6856TIP3    H242060   0.291   2.003   3.657  2.6607  1.0243  1.3530
 6857TIP3   OH242061   0.566   4.079   2.001 -0.3458 -0.7260  0.1164
 6857TIP3    H142062   0.483   4.063   2.045 -1.1969  0.4837 -0.9915
 6857TIP3    H242063   0.584   3.998   1.953  0.0379 -1.6470  1.7186
 6858TIP3   OH242064   6.702   3.052  11.760  0.1966  0.0071 -0.2122
 6858TIP3    H142065   6.678   3.067  11.668  2.2637  0.5838 -0.7141
 6858TIP3    H242066   6.769   2.983  11.756  0.8064  0.5208  0.7879
 6859TIP3   OH242067   0.607   1.834  16.234 -0.2462 -0.0936  0.3844
 6859TIP3    H142068   0.524   1.797  16.205  0.0674 -1.5339  1.2191
 6859TIP3    H242069   0.622   1.795  16.320  0.1741  1.9276  1.2962
 6860TIP3   OH242070   1.810   3.861   2.062 -0.0233  0.6417 -0.0484
 6860TIP3    H142071   1.739   3.805   2.095  1.1707 -1.0653 -0.2369
 6860TIP3    H242072   1.769   3.947   2.050 -2.0705 -0.2906 -0.2011
 6861TIP3   OH242073   1.862   2.257   0.766 -0.0824 -0.3592  0.2103
 6861TIP3    H142074   1.915   2.321   0.813 -1.2090  1.4919 -0.8700
 6861TIP3    H242075   1.925   2.201   0.721  0.9490 -0.0493  1.2231
 6862TIP3   OH242076   5.578   1.822   2.716  0.2286 -0.7497  0.0638
 6862TIP3    H142077   5.623   1.893   2.760 -0.4977  0.5377 -1.1523
 6862TIP3    H242078   5.641   1.788   2.652  1.1020 -2.2731  1.6681
 6863TIP3   OH242079   4.793   6.090  15.656  0.2230 -0.1665  0.6882
 6863TIP3    H142080   4.764   6.120  15.742  1.4277  1.0889  0.6870
 6863TIP3    H242081   4.712   6.077  15.607 -0.5040 -1.3169  2.1233
 6864TIP3   OH242082   4.028   5.549   5.849 -0.0189  0.1943 -0.4087
 6864TIP3    H142083   3.981   5.586   5.923 -0.0621 -0.3587 -0.1512
 6864TIP3    H242084   4.080   5.621   5.815  0.7027  0.2362  0.7289
 6865TIP3   OH242085   5.361   3.229   5.514  0.1934 -0.6515 -0.0144
 6865TIP3    H142086   5.278   3.235   5.467 -0.2353  1.1368  0.8517
 6865TIP3    H242087   5.427   3.253   5.449 -0.3226  1.0766  0.0299
 6866TIP3   OH242088   1.846   5.290   0.926  0.3948  0.5964  0.2919
 6866TIP3    H142089   1.844   5.296   1.022  2.8562  3.9487  0.3443
 6866TIP3    H242090   1.817   5.376   0.896  0.5328 -0.0679 -1.9509
 6867TIP3   OH242091   1.468   0.261  16.824 -0.3332 -0.2204 -0.4364
 6867TIP3    H142092   1.487   0.255  16.731  2.4060 -1.3949  0.1142
 6867TIP3    H242093   1.527   0.198  16.866 -2.0974 -0.3996  2.0420
 6868TIP3   OH242094   5.008   6.856  10.481 -0.0255 -0.5292  0.3927
 6868TIP3    H142095   5.001   6.888  10.571  1.1636  0.9674 -0.0228
 6868TIP3    H242096   4.934   6.896  10.435  0.1818 -0.1659  0.3784
 6869TIP3   OH242097   6.141   6.139   1.395 -0.0495  0.3147  0.5089
 6869TIP3    H142098   6.087   6.217   1.385 -0.2750  0.0836 -0.0681
 6869TIP3    H242099   6.195   6.136   1.316  0.4560  0.2682  0.8511
 6870TIP3   OH242100   3.149   0.869  15.717  0.0803  0.0225 -0.5206
 6870TIP3    H142101   3.211   0.890  15.787  0.5340 -0.5767 -0.7374
 6870TIP3    H242102   3.169   0.932  15.648 -1.6906  1.9510  0.6136
 6871TIP3   OH242103   5.439   0.172   1.275  0.1655  0.7531  0.2748
 6871TIP3    H142104   5.526   0.207   1.253  0.2612  0.9127  0.8944
 6871TIP3    H242105   5.436   0.087   1.233  0.8746  0.4688  0.7842
 6872TIP3   OH242106   4.197   5.539   2.399  0.2664 -0.2173  0.1891
 6872TIP3    H142107   4.171   5.448   2.415 -1.0058  0.0467 -0.2116
 6872TIP3    H242108   4.223   5.540   2.307 -2.2914  0.3181 -0.6092
 6873TIP3   OH242109   5.226   6.535  16.479  0.2104  0.0029 -0.2211
 6873TIP3    H142110   5.204   6.443  16.465 -0.8532  0.0683  0.8230
 6873TIP3    H242111   5.265   6.538  16.566 -3.2356  0.9676  1.4715
 6874TIP3   OH242112   1.472   4.001   1.787  0.7832  0.2187  0.2426
 6874TIP3    H142113   1.386   3.971   1.816  0.3484 -0.2954 -1.4858
 6874TIP3    H242114   1.488   4.080   1.839 -1.3764  1.1551 -0.3908
 6875TIP3   OH242115   6.305   4.702   2.872 -0.1060 -0.0190  0.0943
 6875TIP3    H142116   6.383   4.702   2.928  0.1312 -1.0518 -0.2110
 6875TIP3    H242117   6.245   4.764   2.913  0.9979  1.0368  0.1622
 6876TIP3   OH242118   4.783   2.650  15.803  0.5045  0.1301  0.1217
 6876TIP3    H142119   4.874   2.673  15.787  0.7438 -1.0305 -0.2769
 6876TIP3    H242120   4.739   2.734  15.815  1.2573  0.8247 -1.6124
 6877TIP3   OH242121   2.513   6.649  12.746 -0.3632  0.2387 -0.4057
 6877TIP3    H142122   2.590   6.670  12.800 -0.2169 -0.3706 -0.3731
 6877TIP3    H242123   2.439   6.678  12.799 -0.3025 -1.5035  0.7180
 6878TIP3   OH242124   1.970   0.701  15.954 -0.3962  0.0130 -0.6274
 6878TIP3    H142125   2.031   0.687  15.882 -0.5923 -3.3815 -0.3118
 6878TIP3    H242126   2.021   0.683  16.033 -1.4365 -1.8453 -0.3088
 6879TIP3   OH242127   2.346   0.156   2.235 -0.2904  0.4250  0.7269
 6879TIP3    H142128   2.355   0.250   2.222  0.2799  0.1912 -0.8884
 6879TIP3    H242129   2.413   0.118   2.178 -1.0720 -0.9832  0.6949
 6880TIP3   OH242130   1.786   6.406   0.686  0.6362  0.3877  0.3617
 6880TIP3    H142131   1.758   6.496   0.667 -0.4701  0.0117  0.1140
 6880TIP3    H242132   1.762   6.392   0.777  0.5167  0.2400  0.3078
 6881TIP3   OH242133   4.897   0.569  15.546 -0.1766  0.1481  0.4425
 6881TIP3    H142134   4.920   0.578  15.454 -0.6681  0.2218  0.3200
 6881TIP3    H242135   4.909   0.476  15.565 -0.3976  0.0701  0.2105
 6882TIP3   OH242136   2.618   2.351   1.668  0.1824 -0.8580 -0.2679
 6882TIP3    H142137   2.555   2.286   1.699  0.4580 -0.9342  0.1382
 6882TIP3    H242138   2.604   2.354   1.573 -3.6080  2.4176  0.1226
 6883TIP3   OH242139   3.827   5.456   3.831  0.2440  0.3864  0.2500
 6883TIP3    H142140   3.920   5.472   3.813 -0.3937  2.0738 -1.8958
 6883TIP3    H242141   3.787   5.542   3.830 -1.3912 -0.3242  1.0623
 6884TIP3   OH242142   5.786   4.817   3.055 -0.1754  0.6659 -0.5230
 6884TIP3    H142143   5.783   4.777   2.968 -3.1515  0.1810 -0.3179
 6884TIP3    H242144   5.761   4.909   3.039 -1.7821  0.3313 -0.1516
 6885TIP3   OH242145   2.371   4.512  14.728 -0.0830 -0.0321 -0.0287
 6885TIP3    H142146   2.332   4.594  14.697 -1.4966  0.3387  2.4322
 6885TIP3    H242147   2.441   4.539  14.787  0.8278 -0.6422 -0.8159
 6886TIP3   OH242148   5.547   2.963  10.603  0.2771  0.5210  0.2700
 6886TIP3    H142149   5.612   2.932  10.666 -0.3690  0.4927  0.9513
 6886TIP3    H242150   5.596   3.015  10.539  0.9813  0.3593  0.6769
 6887TIP3   OH242151   2.694   6.740   3.180  0.1614 -0.2690 -0.6238
 6887TIP3    H142152   2.616   6.697   3.214 -0.9423  1.1668 -1.2118
 6887TIP3    H242153   2.739   6.773   3.258 -0.6661  0.2543 -0.3501
 6888TIP3   OH242154   4.034   3.105  12.359 -0.2232 -0.4176  0.1108
 6888TIP3    H142155   4.066   3.110  12.449 -0.7892  0.7415  0.2677
 6888TIP3    H242156   3.942   3.082  12.367 -0.5360  0.7137 -0.1080
 6889TIP3   OH242157   4.873   2.940   1.808 -0.4113  0.0447  0.8133
 6889TIP3    H142158   4.877   2.902   1.721  0.2694 -1.6427  1.5402
 6889TIP3    H242159   4.837   2.871   1.863  0.9439  0.3848  2.2028
 6890TIP3   OH242160   1.118   0.985  10.216  0.2483  0.3650 -0.2704
 6890TIP3    H142161   1.150   0.901  10.181 -2.8156 -1.5528  1.1047
 6890TIP3    H242162   1.161   0.991  10.302  0.8309  0.4541 -0.5621
 6891TIP3   OH242163   3.344   3.690   4.448  0.0307  0.0303  0.2378
 6891TIP3    H142164   3.346   3.595   4.442  0.1680 -0.0639  1.5904
 6891TIP3    H242165   3.396   3.720   4.373  1.5176 -1.0011  0.8272
 6892TIP3   OH242166   5.117   2.741  11.779  0.3053  0.5754 -0.1033
 6892TIP3    H142167   5.191   2.756  11.838 -0.0211 -0.2266  0.5412
 6892TIP3    H242168   5.137   2.656  11.738  0.8756  1.4493 -1.7024
 6893TIP3   OH242169   0.885   2.824  16.646 -0.4576  0.6844 -0.4953
 6893TIP3    H142170   0.817   2.756  16.642 -3.1846  3.2444 -0.8715
 6893TIP3    H242171   0.847   2.893  16.700  2.5003  1.7055  0.4981
 6894TIP3   OH242172   0.330   3.521  16.802 -0.2227  0.0770  0.3230
 6894TIP3    H142173   0.366   3.465  16.871 -1.0775  0.3706  1.0180
 6894TIP3    H242174   0.322   3.607  16.842  2.0766  1.0216 -1.0581
 6895TIP3   OH242175   4.153   6.410   1.922  0.6350  0.0722 -0.1060
 6895TIP3    H142176   4.187   6.371   2.003 -1.1705 -0.5151  0.4022
 6895TIP3    H242177   4.063   6.433   1.942  0.2208  0.1264 -1.8898
 6896TIP3   OH242178   0.747   4.083  14.051  0.2481  0.0857 -0.1147
 6896TIP3    H142179   0.673   4.038  14.012 -0.5289  2.1212 -1.1319
 6896TIP3    H242180   0.767   4.154  13.990  2.3268  0.2692  0.6978
 6897TIP3   OH242181   0.629   6.370  10.385 -0.5950  0.3468  0.0354
 6897TIP3    H142182   0.709   6.318  10.388 -1.2076 -0.5979  2.3546
 6897TIP3    H242183   0.563   6.315  10.427 -2.6182  0.9285 -2.1596
 6898TIP3   OH242184   5.699   0.523   1.225  0.1657 -0.3344  0.6546
 6898TIP3    H142185   5.653   0.515   1.308 -0.9934 -0.1426  0.0599
 6898TIP3    H242186   5.769   0.586   1.241 -1.1798  1.1182  1.0371
 6899TIP3   OH242187   5.150   5.484   5.001 -0.1971  0.2069  0.1788
 6899TIP3    H142188   5.058   5.498   4.979 -0.2232  0.3576  0.3822
 6899TIP3    H242189   5.189   5.572   4.999 -0.2316  0.2417  0.8730
 6900TIP3   OH242190   4.469   6.736   2.203 -0.4341 -0.0457 -0.6736
 6900TIP3    H142191   4.467   6.720   2.297 -1.0311  0.6601 -0.5603
 6900TIP3    H242192   4.501   6.826   2.195 -0.0912 -0.2076 -1.1609
 6901TIP3   OH242193   5.498   0.217   5.254 -0.4894  0.5131  0.8972
 6901TIP3    H142194   5.567   0.174   5.304 -0.5968  0.6834  1.1914
 6901TIP3    H242195   5.457   0.147   5.204 -1.0248  0.1732  1.7885
 6902TIP3   OH242196   4.881   1.199  13.731  0.0402 -0.7401 -0.0476
 6902TIP3    H142197   4.863   1.292  13.717  1.7579 -0.4787 -0.6820
 6902TIP3    H242198   4.794   1.159  13.737 -0.7482  0.6985 -1.1452
 6903TIP3   OH242199   2.385   4.530   4.226 -0.3069 -0.1081 -0.3007
 6903TIP3    H142200   2.382   4.454   4.168 -0.3436  1.4841 -2.5321
 6903TIP3    H242201   2.297   4.567   4.221 -0.6502 -0.5296  1.7250
 6904TIP3   OH242202   3.327   6.323   0.186 -0.0164 -0.1541  0.1205
 6904TIP3    H142203   3.290   6.297   0.102  1.0836 -1.1748 -0.0779
 6904TIP3    H242204   3.256   6.310   0.249 -0.2765 -1.2360 -0.3734
 6905TIP3   OH242205   2.650   1.616   3.136 -0.5049  0.3961 -0.4879
 6905TIP3    H142206   2.592   1.628   3.210  0.3305 -0.8435  0.4264
 6905TIP3    H242207   2.737   1.639   3.169 -0.5028  3.0075 -2.0543
 6906TIP3   OH242208   3.821   3.453  14.727  0.2659  0.1423 -0.2562
 6906TIP3    H142209   3.799   3.402  14.649  0.8684 -0.0940 -0.2811
 6906TIP3    H242210   3.865   3.390  14.785 -3.9153 -0.9365  2.2120
 6907TIP3   OH242211   3.623   0.261   2.314  0.9571 -0.1187  0.6509
 6907TIP3    H142212   3.558   0.197   2.340  1.4709 -0.4378  1.1827
 6907TIP3    H242213   3.592   0.344   2.349  1.6689 -0.5490  2.3916
 6908TIP3   OH242214   5.468   4.371   2.361  0.1700  0.3728  0.2306
 6908TIP3    H142215   5.431   4.455   2.387  0.8399  0.8289 -0.2550
 6908TIP3    H242216   5.497   4.331   2.444 -0.7370  0.3185  0.5332
 6909TIP3   OH242217   2.801   6.285  11.534 -0.6410  0.3459 -0.0738
 6909TIP3    H142218   2.779   6.322  11.448  0.0414  0.2233 -0.3083
 6909TIP3    H242219   2.739   6.213  11.546 -0.4854  0.1062 -0.6480
 6910TIP3   OH242220   6.457   1.476   5.161  0.0027  0.0586 -0.4615
 6910TIP3    H142221   6.486   1.386   5.144 -0.6028  0.1188 -1.9141
 6910TIP3    H242222   6.508   1.529   5.101  0.3788  0.7050  0.4165
 6911TIP3   OH242223   5.783   1.620   3.653 -0.2297  0.5351  0.4096
 6911TIP3    H142224   5.795   1.547   3.714  0.4406  1.3158  1.2456
 6911TIP3    H242225   5.863   1.671   3.661 -1.5009  2.4894  1.3936
 6912TIP3   OH242226   3.003   6.056  12.468 -0.3358 -0.2927 -0.1011
 6912TIP3    H142227   3.032   6.144  12.442  1.5648 -0.6482  0.6271
 6912TIP3    H242228   3.046   5.998  12.406 -0.5094 -0.7827  0.2335
 6913TIP3   OH242229   5.421   2.482   0.600 -0.6020 -0.0495  0.0236
 6913TIP3    H142230   5.458   2.530   0.675  0.3369  2.0037 -1.6455
 6913TIP3    H242231   5.498   2.458   0.548 -1.2734 -1.0158 -0.5255
 6914TIP3   OH242232   4.002   3.071  15.829 -0.3746  0.2825  0.2590
 6914TIP3    H142233   3.989   2.984  15.867  4.2601  0.0070  1.9176
 6914TIP3    H242234   4.070   3.058  15.763 -0.1999  2.4953 -0.0564
 6915TIP3   OH242235   4.835   6.818  12.298 -0.1124  0.1683 -0.5334
 6915TIP3    H142236   4.906   6.802  12.360 -0.4688 -1.3718 -0.4835
 6915TIP3    H242237   4.828   6.736  12.248 -1.1980  0.6504 -1.2077
 6916TIP3   OH242238   0.635   1.915   1.888 -0.9717  0.1628 -0.1841
 6916TIP3    H142239   0.675   1.914   1.801 -0.3627  0.4810  0.0899
 6916TIP3    H242240   0.560   1.974   1.879 -1.5677 -0.6620 -0.7740
 6917TIP3   OH242241   3.691   5.178   2.562  0.1204  0.6605  0.3708
 6917TIP3    H142242   3.768   5.212   2.517  0.9314  0.0218  1.2429
 6917TIP3    H242243   3.617   5.213   2.513  0.8716  3.9240  1.3324
 6918TIP3   OH242244   3.773   4.643  11.918 -0.6435 -0.4176 -0.0762
 6918TIP3    H142245   3.729   4.558  11.912 -0.3420 -0.5383 -0.6857
 6918TIP3    H242246   3.746   4.689  11.839 -0.9431  0.1266  0.3362
 6919TIP3   OH242247   2.719   0.980   2.590 -0.1407  0.1478  0.2372
 6919TIP3    H142248   2.706   1.064   2.545 -1.5375 -1.2532 -2.1707
 6919TIP3    H242249   2.630   0.952   2.612  0.3919 -0.2324  2.0379
 6920TIP3   OH242250   1.572   4.762   5.288  0.0940 -0.1695  0.5546
 6920TIP3    H142251   1.627   4.693   5.326 -0.6650 -0.8934  0.3561
 6920TIP3    H242252   1.623   4.843   5.301  2.3366 -1.0767 -1.7124
 6921TIP3   OH242253   6.224   6.114  15.270 -0.4585 -0.3489 -0.3350
 6921TIP3    H142254   6.155   6.145  15.211 -1.1580  0.5322  0.8820
 6921TIP3    H242255   6.198   6.025  15.292 -0.1642 -0.7043 -1.3638
 6922TIP3   OH242256   4.808   5.389  12.584 -0.1261 -0.2729 -0.1409
 6922TIP3    H142257   4.727   5.438  12.599  0.3377 -0.1755  2.6454
 6922TIP3    H242258   4.795   5.306  12.631  0.9867 -0.6972 -0.5576
 6923TIP3   OH242259   3.302   4.305  15.744  0.0290  0.8091 -0.4132
 6923TIP3    H142260   3.330   4.373  15.805  1.6303  0.4618 -0.6997
 6923TIP3    H242261   3.335   4.224  15.782 -1.7735  0.1693 -0.1278
 6924TIP3   OH242262   5.330   2.082   0.052 -0.1056  0.2373 -0.2738
 6924TIP3    H142263   5.266   2.061   0.121  0.9291 -0.1889  0.5716
 6924TIP3    H242264   5.337   2.177   0.055  0.7592  0.1584  0.9968
 6925TIP3   OH242265   4.599   1.973  11.211 -0.2203 -0.0521  0.2179
 6925TIP3    H142266   4.537   1.926  11.156 -1.4360  1.1692  0.5101
 6925TIP3    H242267   4.626   2.048  11.158  0.5859 -0.2653  0.3105
 6926TIP3   OH242268   0.619   5.646  13.090 -0.5644  0.8991  0.4493
 6926TIP3    H142269   0.659   5.669  13.174 -1.4090 -0.6590  1.3235
 6926TIP3    H242270   0.693   5.642  13.029  0.3388  0.1774  1.5493
 6927TIP3   OH242271   4.259   2.243  15.722  0.0610  0.2685 -0.0761
 6927TIP3    H142272   4.182   2.268  15.671  0.3637  0.4475 -0.4588
 6927TIP3    H242273   4.261   2.304  15.795  0.3559  0.8800 -0.5771
 6928TIP3   OH242274   1.618   1.267  16.305  0.4232 -0.0587  0.9648
 6928TIP3    H142275   1.536   1.314  16.323  0.0417 -0.4030  0.1802
 6928TIP3    H242276   1.681   1.335  16.284  0.6968  0.3077  2.8117
 6929TIP3   OH242277   0.250   6.163   5.468 -0.6239  0.1164  0.0400
 6929TIP3    H142278   0.324   6.106   5.485 -0.3916  0.3903 -0.0487
 6929TIP3    H242279   0.275   6.248   5.505 -0.8856  0.2140 -0.0018
 6930TIP3   OH242280   2.985   6.140   1.159  0.1853 -0.0608  0.1596
 6930TIP3    H142281   2.971   6.102   1.072  1.1420  0.6743 -0.3278
 6930TIP3    H242282   2.898   6.171   1.186  0.2075  1.4717 -1.3876
 6931TIP3   OH242283   5.409   3.934   2.180  1.1145 -0.1213  0.5762
 6931TIP3    H142284   5.419   3.907   2.089 -0.3968 -0.0169  0.3611
 6931TIP3    H242285   5.333   3.886   2.212 -0.6717  2.4938  0.6574
 6932TIP3   OH242286   5.366   3.219   1.047 -0.5422  0.5517 -0.6331
 6932TIP3    H142287   5.323   3.139   1.078  0.1629 -0.9194 -3.2243
 6932TIP3    H242288   5.298   3.286   1.053 -1.5409 -0.4987  0.4236
 6933TIP3   OH242289   0.182   4.685   4.404  0.8524  0.3966  0.9519
 6933TIP3    H142290   0.155   4.769   4.442 -1.1969 -0.0934  0.6819
 6933TIP3    H242291   0.157   4.692   4.312 -0.4389 -0.9126  1.1684
 6934TIP3   OH242292   6.203   5.591   5.089 -0.0254 -0.1175  0.6089
 6934TIP3    H142293   6.234   5.568   5.177  0.8892 -0.2518  0.2638
 6934TIP3    H242294   6.195   5.507   5.044  2.9718  0.0817 -0.5369
 6935TIP3   OH242295   1.362   2.707   5.081 -0.2758 -0.4195 -0.4205
 6935TIP3    H142296   1.364   2.617   5.049 -3.5943 -0.9637  0.5727
 6935TIP3    H242297   1.353   2.760   5.002  0.4399 -1.0248 -0.9249
 6936TIP3   OH242298   0.424   4.547  15.201  0.2584  0.3451 -0.0193
 6936TIP3    H142299   0.505   4.548  15.253 -0.4294  1.7968  1.0595
 6936TIP3    H242300   0.453   4.571  15.113  1.2588 -0.9664 -0.0899
 6937TIP3   OH242301   1.989   2.679  10.372 -0.1090 -0.3289 -0.4132
 6937TIP3    H142302   2.068   2.691  10.426 -1.0719  0.1331  0.9452
 6937TIP3    H242303   2.019   2.627  10.298  1.6384  0.4271 -0.3019
 6938TIP3   OH242304   2.008   6.493   0.373 -0.3220 -0.2305 -0.3857
 6938TIP3    H142305   2.035   6.406   0.344 -1.7113 -1.0785  0.7325
 6938TIP3    H242306   2.030   6.495   0.466  0.8342  1.1171 -0.6442
 6939TIP3   OH242307   6.656   2.522   2.345 -0.1645 -0.0431  0.1040
 6939TIP3    H142308   6.733   2.466   2.355 -0.3649 -0.2211  0.6551
 6939TIP3    H242309   6.642   2.560   2.431  0.2952  1.2960 -0.3804
 6940TIP3   OH242310   3.377   4.621  13.595 -0.5402 -0.2926 -0.6881
 6940TIP3    H142311   3.470   4.616  13.570  0.0113 -1.1354  1.3514
 6940TIP3    H242312   3.370   4.702  13.646 -0.4386 -1.2700  0.9215
 6941TIP3   OH242313   5.234   2.332  13.328  0.0520  0.3658  0.2349
 6941TIP3    H142314   5.321   2.361  13.354  0.6175 -1.3370  0.3411
 6941TIP3    H242315   5.206   2.273  13.398 -0.8947  0.3343 -0.1482
 6942TIP3   OH242316   1.963   5.577   5.144 -0.8464 -0.1087 -0.2744
 6942TIP3    H142317   1.969   5.520   5.220 -1.1285 -2.1331 -1.6838
 6942TIP3    H242318   2.051   5.575   5.105 -0.8822  0.3735 -0.3973
 6943TIP3   OH242319   1.120   2.969  11.295  0.7555 -0.3325 -0.2831
 6943TIP3    H142320   1.040   3.003  11.254  0.5147  0.4656  0.8080
 6943TIP3    H242321   1.110   2.874  11.292 -0.1190 -0.2428 -0.3755
 6944TIP3   OH242322   6.340   3.917   2.510 -0.4579 -0.2978  0.2093
 6944TIP3    H142323   6.308   4.002   2.539 -2.1638 -0.9613  0.3907
 6944TIP3    H242324   6.414   3.897   2.567 -1.6980 -0.1056  1.9466
 6945TIP3   OH242325   2.238   1.644   5.032 -0.1710 -0.0131 -0.0741
 6945TIP3    H142326   2.333   1.632   5.026 -0.2699 -1.0453  0.2540
 6945TIP3    H242327   2.201   1.561   5.004 -1.1130  1.3349 -3.1852
 6946TIP3   OH242328   3.169   1.713  16.072 -0.2073 -0.2374 -0.4046
 6946TIP3    H142329   3.118   1.759  16.006  2.8405 -0.2304 -2.9882
 6946TIP3    H242330   3.146   1.621  16.061 -1.5607 -0.0207  0.3498
 6947TIP3   OH242331   6.770   6.087   4.093  0.2931  0.1392 -0.3584
 6947TIP3    H142332   6.807   6.141   4.162 -0.4182 -0.3519  0.4250
 6947TIP3    H242333   6.720   6.148   4.038 -0.1916  0.3480  0.3010
 6948TIP3   OH242334   5.270   6.139   5.538 -0.0344 -0.5242 -0.4815
 6948TIP3    H142335   5.180   6.145   5.571  0.3505  3.9031  0.4076
 6948TIP3    H242336   5.324   6.152   5.616  1.2715 -0.3259 -1.4015
 6949TIP3   OH242337   5.281   3.142  16.723  0.2770  0.1953 -0.5327
 6949TIP3    H142338   5.293   3.214  16.785 -1.2559  0.3073 -0.3257
 6949TIP3    H242339   5.251   3.069  16.776  0.0111 -0.0328 -0.9932
 6950TIP3   OH242340   0.120   0.203   9.769  0.3995  0.3289 -0.1935
 6950TIP3    H142341   0.032   0.222   9.802  0.6223 -1.3469  1.5610
 6950TIP3    H242342   0.166   0.166   9.845  3.1565  2.6668 -0.5791
 6951TIP3   OH242343   6.857   2.467   4.610  0.1916  0.0972 -0.6181
 6951TIP3    H142344   6.764   2.470   4.630  0.1446  0.4080 -0.8600
 6951TIP3    H242345   6.874   2.552   4.568  1.0394  1.0020  1.3945
 6952TIP3   OH242346   4.728   6.789  13.641  0.0502  0.1522 -0.2199
 6952TIP3    H142347   4.809   6.740  13.656 -0.0825 -0.4133 -1.2239
 6952TIP3    H242348   4.692   6.751  13.560  0.8816  3.1572 -2.1359
 6953TIP3   OH242349   5.764   0.989  11.822  0.4172  0.9670  0.2788
 6953TIP3    H142350   5.796   0.898  11.817 -0.9937  0.5164 -1.1837
 6953TIP3    H242351   5.843   1.042  11.812  1.2489 -0.0748  1.0229
 6954TIP3   OH242352   1.008   2.881   3.708 -0.0887  0.2388  0.4839
 6954TIP3    H142353   0.981   2.826   3.634 -0.1816 -0.4875  1.0515
 6954TIP3    H242354   1.037   2.963   3.667  0.2805 -0.3106 -0.3967
 6955TIP3   OH242355   3.873   2.181   1.710  0.1143  0.0237  0.4319
 6955TIP3    H142356   3.845   2.093   1.684 -0.6395  0.7614 -1.4080
 6955TIP3    H242357   3.919   2.215   1.633 -1.4041  1.9796  0.2987
 6956TIP3   OH242358   3.307   5.909  10.970  0.2653  0.4376  0.8924
 6956TIP3    H142359   3.234   5.898  10.909 -1.4676  2.5375  2.4518
 6956TIP3    H242360   3.282   5.860  11.048  1.4334 -0.3836  0.7796
 6957TIP3   OH242361   2.597   5.515  16.060  0.6064 -0.1665  0.1407
 6957TIP3    H142362   2.528   5.523  16.126  1.2332  1.6092  0.6275
 6957TIP3    H242363   2.641   5.433  16.081  1.0886  0.5829  2.2400
 6958TIP3   OH242364   3.893   3.611  12.989  0.0630  0.1592 -0.0568
 6958TIP3    H142365   3.955   3.646  13.054  0.1212  0.0386 -0.0474
 6958TIP3    H242366   3.807   3.633  13.025  0.0573  3.1231 -1.5481
 6959TIP3   OH242367   1.331   3.496  13.992 -0.4414 -0.1091  0.1855
 6959TIP3    H142368   1.258   3.435  13.997 -1.4503  1.0863  0.7494
 6959TIP3    H242369   1.401   3.447  13.949 -1.4951 -1.3604 -0.1652
 6960TIP3   OH242370   5.604   6.169   2.326 -0.5193  0.2753 -0.3764
 6960TIP3    H142371   5.561   6.117   2.394 -0.2173 -1.6684 -1.6169
 6960TIP3    H242372   5.654   6.106   2.275  0.3097  1.8766 -1.6305
 6961TIP3   OH242373   4.754   2.052  16.468 -0.4287 -0.2417  0.0553
 6961TIP3    H142374   4.720   2.129  16.512  0.4846 -0.1302  0.5956
 6961TIP3    H242375   4.681   1.990  16.467 -0.7692  0.1384  0.8047
 6962TIP3   OH242376   2.912   5.460   2.190 -0.1936 -0.0353  0.4860
 6962TIP3    H142377   2.903   5.486   2.099 -0.3120 -2.2052 -0.1785
 6962TIP3    H242378   2.993   5.503   2.219 -0.8704  1.7848 -0.1782
 6963TIP3   OH242379   3.383   0.685  13.352  0.0028 -0.3957 -0.5951
 6963TIP3    H142380   3.397   0.604  13.401  2.0546  0.0885 -0.3027
 6963TIP3    H242381   3.288   0.697  13.352 -0.3947 -2.9750 -0.9491
 6964TIP3   OH242382   5.819   3.166  12.165 -0.4487 -0.1353 -0.1811
 6964TIP3    H142383   5.813   3.197  12.256 -1.3197  0.2199 -0.3503
 6964TIP3    H242384   5.794   3.073  12.170  1.1356 -0.5643  0.1734
 6965TIP3   OH242385   3.754   0.311   3.710 -0.0995  0.1202  0.3165
 6965TIP3    H142386   3.780   0.397   3.679  0.2513 -0.1788 -0.2438
 6965TIP3    H242387   3.660   0.306   3.693 -0.2090  0.5618  0.7788
 6966TIP3   OH242388   6.618   2.856  15.907  0.0156  0.6802 -0.0233
 6966TIP3    H142389   6.644   2.870  15.998 -1.2194  0.0549  0.4471
 6966TIP3    H242390   6.643   2.766  15.888 -0.4715  0.5417 -0.0268
 6967TIP3   OH242391   5.116   5.591   0.523  0.3558 -0.0294 -0.1761
 6967TIP3    H142392   5.164   5.665   0.561 -0.0603  1.2870 -2.0299
 6967TIP3    H242393   5.167   5.568   0.445 -0.9808  0.1589 -1.1408
 6968TIP3   OH242394   5.452   4.949  16.596  0.0050  0.3826 -0.0395
 6968TIP3    H142395   5.437   5.034  16.638 -2.7568  0.6279 -1.2699
 6968TIP3    H242396   5.464   4.970  16.503  1.9850 -0.4248 -0.0074
 6969TIP3   OH242397   2.777   3.810  13.638  0.0340 -0.1990 -0.1317
 6969TIP3    H142398   2.765   3.816  13.733  0.1229  0.3599 -0.1577
 6969TIP3    H242399   2.718   3.876  13.601 -0.0585 -0.4656 -0.4722
 6970TIP3   OH242400   1.629   6.258   0.316  0.3644 -0.2227 -0.1722
 6970TIP3    H142401   1.712   6.238   0.359  0.6659 -1.9733 -1.4453
 6970TIP3    H242402   1.651   6.260   0.222 -0.9549 -0.3157 -0.4996
 6971TIP3   OH242403   5.425   0.170  10.702 -0.1568 -0.6509  0.3413
 6971TIP3    H142404   5.519   0.171  10.686 -0.0801 -0.1146  0.8249
 6971TIP3    H242405   5.391   0.241  10.648 -0.4424 -1.5774 -0.7405
 6972TIP3   OH242406   3.682   0.700  11.899 -0.3626 -0.1467 -0.8683
 6972TIP3    H142407   3.756   0.645  11.923 -1.6824 -1.6598 -0.0791
 6972TIP3    H242408   3.672   0.760  11.972 -1.6476 -1.8508  0.4428
 6973TIP3   OH242409   6.184   3.499  15.160  0.3059 -0.1724 -0.2912
 6973TIP3    H142410   6.095   3.510  15.193  0.2872 -2.7067  0.7275
 6973TIP3    H242411   6.240   3.510  15.236  0.6651 -0.8505 -0.4453
 6974TIP3   OH242412   4.022   3.517   5.302 -0.4109 -0.3684  0.0558
 6974TIP3    H142413   3.966   3.439   5.304 -1.0349  0.0555 -0.4496
 6974TIP3    H242414   3.967   3.586   5.338 -0.8874  0.4637 -2.1117
 6975TIP3   OH242415   2.396   2.383   4.971 -0.5472 -0.1889  0.3108
 6975TIP3    H142416   2.408   2.352   5.061  1.2977  0.4556  0.3260
 6975TIP3    H242417   2.465   2.338   4.921 -1.6551 -0.6724 -0.8380
 6976TIP3   OH242418   6.198   6.856  16.330  0.1145  0.1252  0.5034
 6976TIP3    H142419   6.261   6.899  16.387  1.2173 -0.1226 -0.4994
 6976TIP3    H242420   6.191   6.913  16.254 -0.2057 -0.2870  0.2137
 6977TIP3   OH242421   3.255   3.967  11.111  0.3377 -0.1931 -0.3983
 6977TIP3    H142422   3.283   3.982  11.021  0.1963  0.7111 -0.3037
 6977TIP3    H242423   3.336   3.957  11.161  0.4181 -0.5847 -0.6070
 6978TIP3   OH242424   2.231   2.393  15.655  0.0437  0.1688  0.2618
 6978TIP3    H142425   2.202   2.466  15.600 -0.7402 -0.5182 -0.2520
 6978TIP3    H242426   2.161   2.329  15.650 -0.2867  0.2728  2.4681
 6979TIP3   OH242427   0.856   0.481   5.454 -0.1822 -0.5489  0.3017
 6979TIP3    H142428   0.936   0.494   5.403 -0.2707  0.4791  0.3960
 6979TIP3    H242429   0.797   0.550   5.425  0.1210  0.7254  2.4593
 6980TIP3   OH242430   4.321   1.099   3.357  0.0433  0.3776  0.8849
 6980TIP3    H142431   4.399   1.126   3.308  0.5901  0.3288  1.7050
 6980TIP3    H242432   4.248   1.141   3.312  0.5132  0.1929 -0.0712
 6981TIP3   OH242433   6.530   6.848   2.603 -0.5394  0.7560  0.6967
 6981TIP3    H142434   6.558   6.758   2.617 -1.4562  0.3992  0.3551
 6981TIP3    H242435   6.541   6.891   2.688 -0.6960  0.1547  1.0254
 6982TIP3   OH242436   3.033   4.488  10.857 -0.0224 -0.5800 -0.0680
 6982TIP3    H142437   3.046   4.394  10.840 -1.3451 -0.6792 -0.6719
 6982TIP3    H242438   3.073   4.531  10.781 -0.9910 -0.7533 -0.6861
 6983TIP3   OH242439   0.071   1.949  12.236 -0.3572  0.1161 -0.2599
 6983TIP3    H142440   0.061   1.854  12.245 -1.4453  0.2545  0.1911
 6983TIP3    H242441   0.147   1.960  12.179 -1.1384 -1.0491 -1.5694
 6984TIP3   OH242442   4.803   2.546  15.054 -0.3569 -0.0191 -0.1498
 6984TIP3    H142443   4.734   2.612  15.053 -2.2140 -1.7117  2.3879
 6984TIP3    H242444   4.875   2.586  15.102 -1.1450  0.4559  0.6466
 6985TIP3   OH242445   0.442   0.441  13.786 -0.1255  0.2219  0.1933
 6985TIP3    H142446   0.451   0.387  13.706 -1.7835  0.0409  0.0972
 6985TIP3    H242447   0.501   0.400  13.849  1.3105  0.4365 -0.9575
 6986TIP3   OH242448   5.570   4.132  16.193 -0.3551  0.4040 -0.3626
 6986TIP3    H142449   5.529   4.199  16.248 -0.9846 -0.9326  0.8518
 6986TIP3    H242450   5.499   4.071  16.173  0.7081 -1.2492  0.6737
 6987TIP3   OH242451   5.939   3.774   1.521 -0.2070 -0.0129  0.5111
 6987TIP3    H142452   5.907   3.758   1.610  0.9235  1.9715  1.3725
 6987TIP3    H242453   5.945   3.870   1.516  0.8465 -0.1356 -1.2986
 6988TIP3   OH242454   1.352   0.547  16.050 -0.1298 -0.4022  0.2339
 6988TIP3    H142455   1.446   0.568  16.049  0.1714 -1.7008  0.1336
 6988TIP3    H242456   1.348   0.452  16.049 -1.4465 -0.4489 -2.5849
 6989TIP3   OH242457   1.625   5.010  12.025 -0.1693  0.4762 -0.2099
 6989TIP3    H142458   1.585   4.933  12.063  2.6289 -1.8318 -1.5332
 6989TIP3    H242459   1.706   5.023  12.075  1.5435 -0.1948 -2.5928
 6990TIP3   OH242460   4.717   4.068  14.361 -0.3670 -0.4343  0.2440
 6990TIP3    H142461   4.684   3.979  14.356  1.4713 -1.2783  1.6677
 6990TIP3    H242462   4.643   4.119  14.395 -1.1730 -1.5798  0.2652
 6991TIP3   OH242463   2.006   0.352  14.952  0.2027  0.5590 -0.1656
 6991TIP3    H142464   1.929   0.324  14.903 -0.0097 -1.0464  1.0331
 6991TIP3    H242465   1.975   0.422  15.009 -0.3550  0.0220  0.2031
 6992TIP3   OH242466   0.993   2.229   2.436  0.3665  0.0612 -0.0612
 6992TIP3    H142467   0.905   2.229   2.473  0.0728  0.8532 -0.7312
 6992TIP3    H242468   0.995   2.304   2.377  1.5037  0.0652 -0.0440
 6993TIP3   OH242469   2.545   6.852  13.800  0.7180  0.7283  0.5176
 6993TIP3    H142470   2.570   6.876  13.889 -1.1057  0.5992  1.1116
 6993TIP3    H242471   2.555   6.932  13.749  2.7613  0.5500  0.5725
 6994TIP3   OH242472   0.043   2.628   4.992 -0.4761 -0.3411  0.1969
 6994TIP3    H142473   0.031   2.534   4.987  1.5424 -0.5746 -1.4377
 6994TIP3    H242474  -0.026   2.665   4.937 -3.0498 -0.5664  2.9763
 6995TIP3   OH242475   6.338   3.733   3.858  0.2290  0.3237 -0.7199
 6995TIP3    H142476   6.336   3.829   3.866 -0.4926  0.3826 -1.4700
 6995TIP3    H242477   6.431   3.711   3.854  0.5361  0.7610  1.9115
 6996TIP3   OH242478   4.500   2.957   2.018  0.0600 -0.6157  0.5865
 6996TIP3    H142479   4.529   3.039   2.057 -1.8128 -0.1665  1.1301
 6996TIP3    H242480   4.503   2.894   2.090 -1.6550 -0.2070  1.0743
 6997TIP3   OH242481   6.422   6.360  12.432 -0.5143 -0.0217  0.1300
 6997TIP3    H142482   6.375   6.332  12.354 -1.1044 -0.8412  0.7611
 6997TIP3    H242483   6.502   6.306  12.431 -0.3112  0.2822 -0.1359
 6998TIP3   OH242484   5.601   2.148  13.262  0.1078  0.5027 -0.4755
 6998TIP3    H142485   5.553   2.162  13.343  1.7215  1.1528  0.4231
 6998TIP3    H242486   5.621   2.236  13.230  0.7227  0.2528 -0.8055
 6999TIP3   OH242487   3.717   0.761   4.801 -0.7468 -0.6521  0.2067
 6999TIP3    H142488   3.696   0.853   4.814  0.1942 -0.4657  0.4365
 6999TIP3    H242489   3.811   0.759   4.787 -0.9364 -1.4407 -1.1224
 7000TIP3   OH242490   0.040   5.012  13.344 -0.1548  0.1215  0.0515
 7000TIP3    H142491   0.018   4.974  13.259 -1.3210  0.6367  0.1046
 7000TIP3    H242492   0.031   5.107  13.331  3.7615  0.6037 -0.3865
 7001TIP3   OH242493   4.667   2.707   0.541  0.2368 -0.3695  0.9203
 7001TIP3    H142494   4.754   2.708   0.581  0.5067  2.9826  0.5429
 7001TIP3    H242495   4.675   2.765   0.465 -2.2196 -0.2871  0.6479
 7002TIP3   OH242496   2.297   0.425   0.009 -0.8418  0.1238  0.5419
 7002TIP3    H142497   2.347   0.491   0.058 -2.6907  3.4628 -1.6798
 7002TIP3    H242498   2.360   0.389  -0.053  0.3212 -0.6336  2.0929
 7003TIP3   OH242499   3.483   4.000  16.651 -0.4007  0.0182 -0.0290
 7003TIP3    H142500   3.465   4.000  16.557  0.8123 -1.3791 -0.2970
 7003TIP3    H242501   3.526   4.084  16.666  0.4832 -0.2418 -0.9716
 7004TIP3   OH242502   5.786   3.565  14.898  0.3814  0.1748 -0.2911
 7004TIP3    H142503   5.715   3.628  14.899  0.1967 -0.0337 -0.2926
 7004TIP3    H242504   5.848   3.597  14.963  0.2239  0.2803 -0.1939
 7005TIP3   OH242505   5.115   3.077  15.884  0.4676 -0.1325 -0.0252
 7005TIP3    H142506   5.090   3.050  15.972 -0.1241 -0.7743 -0.3737
 7005TIP3    H242507   5.113   3.172  15.886 -1.0496 -0.1491  0.2474
 7006TIP3   OH242508   4.637   6.679  16.607 -0.1974  0.0163 -0.0951
 7006TIP3    H142509   4.549   6.704  16.633 -0.4094  1.4430 -1.8841
 7006TIP3    H242510   4.691   6.695  16.684 -1.2616  0.7053  0.5276
 7007TIP3   OH242511   1.526   0.479  11.892 -0.2478  0.1406 -0.0728
 7007TIP3    H142512   1.586   0.428  11.946  1.5514  1.5408 -0.6589
 7007TIP3    H242513   1.542   0.449  11.802 -1.9741 -0.9414 -0.0730
 7008TIP3   OH242514   5.855   1.754  14.071 -0.0394  1.0225  0.1333
 7008TIP3    H142515   5.862   1.699  13.993  1.3784  1.1399  0.1540
 7008TIP3    H242516   5.861   1.843  14.038 -0.1462  1.0958  0.3111
 7009TIP3   OH242517   6.076   0.996   2.803 -0.3607 -0.0832  0.3577
 7009TIP3    H142518   6.001   0.950   2.839 -0.0710 -0.1085  0.9579
 7009TIP3    H242519   6.058   1.089   2.820 -0.1956 -0.0994  0.6343
 7010TIP3   OH242520   1.572   6.850   0.484 -0.0269  0.8716 -0.3373
 7010TIP3    H142521   1.625   6.865   0.405 -0.6659 -2.6872 -1.6180
 7010TIP3    H242522   1.483   6.873   0.457  0.0258  1.4580 -0.0197
 7011TIP3   OH242523   5.113   5.598  11.959 -0.1514 -0.6909  0.4715
 7011TIP3    H142524   5.145   5.671  11.907 -2.3659 -0.6104 -0.9029
 7011TIP3    H242525   5.126   5.626  12.050  0.6209  0.6580 -0.0245
 7012TIP3   OH242526   5.589   2.410   4.796 -0.2314 -0.6214 -0.1681
 7012TIP3    H142527   5.610   2.361   4.716  0.4253  1.8474 -1.6316
 7012TIP3    H242528   5.499   2.386   4.815 -0.5177 -1.0573 -1.8579
 7013TIP3   OH242529   4.373   1.372  12.327  0.3829 -0.3816  0.4730
 7013TIP3    H142530   4.328   1.338  12.405 -3.0001 -0.1309 -1.1883
 7013TIP3    H242531   4.367   1.467  12.336 -1.3270 -0.3421 -0.6882
 7014TIP3   OH242532   6.211   0.845   5.483  0.5678 -0.0075 -0.3851
 7014TIP3    H142533   6.117   0.828   5.490  0.2006  2.3375  2.0612
 7014TIP3    H242534   6.253   0.767   5.520 -0.6114  0.4917  2.1561
 7015TIP3   OH242535   4.924   3.592  14.790 -0.2297 -0.7746 -0.0758
 7015TIP3    H142536   4.971   3.607  14.872  0.7207  0.5970 -0.8420
 7015TIP3    H242537   4.978   3.634  14.723 -1.6645 -0.6956 -1.2286
 7016TIP3   OH242538   5.680   0.405  12.869 -0.6699 -0.4086 -0.3681
 7016TIP3    H142539   5.692   0.311  12.856  0.7129 -0.1451 -1.2873
 7016TIP3    H242540   5.604   0.428  12.815 -0.2602 -0.8072 -1.1325
 7017TIP3   OH242541   3.901   2.511   2.658 -0.0524 -0.6348  0.6130
 7017TIP3    H142542   3.934   2.594   2.621  0.2255 -1.2917 -0.6702
 7017TIP3    H242543   3.979   2.468   2.692 -0.0917 -0.6928  0.6286
 7018TIP3   OH242544   6.831   6.569  14.691 -0.0245 -0.4152  1.3076
 7018TIP3    H142545   6.754   6.514  14.708 -0.7463 -0.2892 -1.2117
 7018TIP3    H242546   6.897   6.537  14.752 -1.5239 -1.6871  2.3560
 7019TIP3   OH242547   4.641   2.018  10.621  0.2397  0.1124  0.0573
 7019TIP3    H142548   4.604   1.952  10.562 -1.3144  0.0241  1.0739
 7019TIP3    H242549   4.715   2.055  10.572 -1.1433  0.2379 -2.0621
 7020TIP3   OH242550   2.143   4.983  13.916 -0.0760 -0.1258 -0.8302
 7020TIP3    H142551   2.077   5.039  13.955 -0.3943 -0.4605 -0.8839
 7020TIP3    H242552   2.118   4.894  13.941  0.5852 -0.2291 -0.5030
 7021TIP3   OH242553   5.565   2.039  10.957  0.2464 -0.0008 -0.5188
 7021TIP3    H142554   5.541   2.023  11.049  1.9291  1.3637  0.2135
 7021TIP3    H242555   5.491   2.005  10.907 -0.6915 -0.8481  1.3348
 7022TIP3   OH242556   4.134   5.182  11.285 -0.0350  0.4376 -0.3097
 7022TIP3    H142557   4.159   5.154  11.373 -0.5879 -2.0232 -0.8587
 7022TIP3    H242558   4.197   5.251  11.263  2.3838 -1.3033  0.6975
 7023TIP3   OH242559   4.679   4.482   5.466  0.0075 -0.5955 -0.4286
 7023TIP3    H142560   4.672   4.567   5.509 -0.8131  0.2995 -2.2280
 7023TIP3    H242561   4.591   4.445   5.472  0.3762 -1.3570  0.4004
 7024TIP3   OH242562   1.242   0.015   2.291 -0.2381 -0.7489  0.4314
 7024TIP3    H142563   1.184   0.051   2.224  1.3598  1.4871  0.1366
 7024TIP3    H242564   1.255   0.087   2.353  2.9606 -0.7474 -0.0721
 7025TIP3   OH242565   4.340   0.215  11.690 -0.1236  0.3393 -0.0369
 7025TIP3    H142566   4.250   0.197  11.713 -0.2941  1.5701  0.3364
 7025TIP3    H242567   4.391   0.192  11.768 -0.0278 -0.8828 -0.4355
 7026TIP3   OH242568   2.096   0.961  12.527 -0.2342  0.0989  0.1398
 7026TIP3    H142569   2.083   1.052  12.500  1.1651  0.0541 -0.8322
 7026TIP3    H242570   2.174   0.963  12.582 -0.0740 -0.5388 -0.0552
 7027TIP3   OH242571   0.851   6.265  12.333  0.4555  0.0973  0.1325
 7027TIP3    H142572   0.936   6.292  12.367  0.0800  0.5831  0.6918
 7027TIP3    H242573   0.805   6.227  12.408 -0.0577  0.4103 -0.0139
 7028TIP3   OH242574   2.439   4.313   8.239  0.5119  0.3911 -0.1389
 7028TIP3    H142575   2.348   4.291   8.216  0.6642  0.4177 -0.7896
 7028TIP3    H242576   2.467   4.242   8.296  0.0375  0.4522  0.1740
 7029TIP3   OH242577   2.392   4.747  12.134 -0.7178 -1.0894 -0.7374
 7029TIP3    H142578   2.351   4.662  12.148  0.9406 -1.6795  1.0340
 7029TIP3    H242579   2.404   4.783  12.222 -0.3430  0.4618 -1.3855
 7030TIP3   OH242580   5.029   3.200   5.594 -0.0966  0.3300  0.4004
 7030TIP3    H142581   4.972   3.146   5.648  2.5764 -1.7919  1.3113
 7030TIP3    H242582   5.040   3.150   5.513  0.5209  0.6649  0.2698
 7031TIP3   OH242583   4.408   2.938  12.706  0.5320  0.0947 -0.3691
 7031TIP3    H142584   4.445   3.022  12.734 -0.0791  0.6805 -1.2870
 7031TIP3    H242585   4.315   2.944  12.725  0.7119 -1.0026  1.0222
 7032TIP3   OH242586   0.633   4.072  10.243 -0.1580  0.5874 -0.1964
 7032TIP3    H142587   0.686   4.150  10.228  0.4161  0.4104  0.8489
 7032TIP3    H242588   0.588   4.057  10.159 -0.0508  1.8569 -0.4969
 7033TIP3   OH242589   4.711   0.801   4.831  0.0017  0.1585  0.4640
 7033TIP3    H142590   4.698   0.896   4.832  1.2901  0.3559  0.6823
 7033TIP3    H242591   4.695   0.776   4.740 -3.9584 -0.0274  1.0590
 7034TIP3   OH242592   0.043   4.762   1.838  0.6572 -0.5259  0.1862
 7034TIP3    H142593   0.120   4.746   1.893 -0.5815 -0.6475  1.9630
 7034TIP3    H242594   0.011   4.675   1.815  0.1425 -0.5026  0.7953
 7035TIP3   OH242595   1.473   0.785  16.653 -0.6713  0.3978 -0.3517
 7035TIP3    H142596   1.406   0.735  16.700  0.5086 -0.1482  0.7985
 7035TIP3    H242597   1.477   0.745  16.567 -1.3180 -0.0322 -0.1840
 7036TIP3   OH242598   1.175   6.028   9.535 -0.6469 -0.2219 -0.4220
 7036TIP3    H142599   1.121   6.074   9.599 -1.1317  0.1493 -1.0805
 7036TIP3    H242600   1.118   6.016   9.459 -0.3832 -1.5087 -0.4439
 7037TIP3   OH242601   1.395   4.611  11.862 -0.3883 -0.0351 -0.3134
 7037TIP3    H142602   1.336   4.682  11.836 -0.3207 -0.6677 -2.3463
 7037TIP3    H242603   1.482   4.650  11.861 -0.5673  0.5221  1.3056
 7038TIP3   OH242604   4.627   3.053  10.811  0.0073  0.0288 -0.1380
 7038TIP3    H142605   4.618   3.138  10.767 -0.2447 -0.0086 -0.1601
 7038TIP3    H242606   4.618   2.989  10.740 -1.3299 -0.0629  0.0925
 7039TIP3   OH242607   2.691   6.438   0.521 -0.5079  0.3565 -0.1980
 7039TIP3    H142608   2.783   6.416   0.537 -0.3278  1.5104  0.4403
 7039TIP3    H242609   2.682   6.439   0.426 -0.2858 -1.4029 -0.2697
 7040TIP3   OH242610   5.061   3.830   4.958 -0.3110  0.3266  0.2517
 7040TIP3    H142611   5.030   3.751   5.001  2.1094 -1.6560 -1.3889
 7040TIP3    H242612   5.108   3.878   5.026 -2.3975  0.8288  1.4423
 7041TIP3   OH242613   1.924   2.511   1.950  0.2713  0.8802 -0.3565
 7041TIP3    H142614   1.911   2.534   1.858  0.1112 -0.2545 -0.6227
 7041TIP3    H242615   1.849   2.550   1.996 -1.3582 -1.1444 -1.1487
 7042TIP3   OH242616   6.421   6.860   4.994 -0.0914 -0.1609  0.0052
 7042TIP3    H142617   6.508   6.899   4.997  0.4879 -0.8875 -3.4258
 7042TIP3    H242618   6.433   6.772   5.030  0.9469 -0.7341 -1.6741
 7043TIP3   OH242619   1.368   4.913  11.861  0.1208  0.2538  0.0356
 7043TIP3    H142620   1.410   4.949  11.783  0.7304 -1.1331 -0.3098
 7043TIP3    H242621   1.310   4.983  11.891  1.0526  1.4087 -0.7337
 7044TIP3   OH242622   1.311   3.578  11.203  0.2869  0.6054  0.7008
 7044TIP3    H142623   1.290   3.577  11.109  0.4101 -0.7390  0.6689
 7044TIP3    H242624   1.351   3.493  11.220  0.3001  0.8428  1.9817
 7045TIP3   OH242625   3.866   4.178  10.396  0.5320 -0.3437  0.3596
 7045TIP3    H142626   3.775   4.182  10.364  0.0694  0.2456  1.6778
 7045TIP3    H242627   3.914   4.233  10.334 -0.4610  1.3059  0.9839
 7046TIP3   OH242628   3.155   0.446  15.288 -0.0886  0.1683 -0.4322
 7046TIP3    H142629   3.095   0.431  15.215  0.1691 -0.2734 -0.5635
 7046TIP3    H242630   3.111   0.508  15.344  0.2552  1.5482 -1.6243
 7047TIP3   OH242631   2.578   1.440   3.708  0.1698  0.5826 -0.0890
 7047TIP3    H142632   2.521   1.433   3.631 -0.4928  2.1496  0.2269
 7047TIP3    H242633   2.540   1.380   3.772  0.9362 -1.0234 -1.0521
 7048TIP3   OH242634   3.702   6.406   2.797  0.0842  0.1193 -0.5999
 7048TIP3    H142635   3.705   6.323   2.845 -2.2961 -0.4523 -1.3025
 7048TIP3    H242636   3.755   6.466   2.849  1.1042 -1.5895  0.4122
 7049TIP3   OH242637   1.596   2.936  14.874 -0.3927 -0.3229  0.0063
 7049TIP3    H142638   1.669   2.997  14.883 -0.4123 -0.1709 -0.7278
 7049TIP3    H242639   1.584   2.899  14.961  0.7387 -0.5513  0.0790
 7050TIP3   OH242640   3.381   3.799   2.823 -0.2864  0.2743 -0.1296
 7050TIP3    H142641   3.417   3.813   2.736 -0.0127  0.9104  0.0803
 7050TIP3    H242642   3.331   3.879   2.842 -1.4065 -0.3792 -0.2155
 7051TIP3   OH242643   2.802   0.477  11.958  0.2043  0.1482  0.0328
 7051TIP3    H142644   2.847   0.407  11.909  0.1091  1.0783 -1.4296
 7051TIP3    H242645   2.829   0.463  12.049  0.0505 -1.8878 -0.1924
 7052TIP3   OH242646   1.569   2.225  12.810 -0.7999  0.1381 -0.3280
 7052TIP3    H142647   1.663   2.215  12.826 -0.7401 -1.0907 -1.3128
 7052TIP3    H242648   1.553   2.319  12.818  0.4276  0.3123  0.2833
 7053TIP3   OH242649   4.841   4.867  15.724 -0.5472 -0.0990 -0.2788
 7053TIP3    H142650   4.900   4.916  15.782  0.3258 -0.5041 -0.8085
 7053TIP3    H242651   4.889   4.859  15.642 -0.9349 -1.2970 -0.4110
 7054TIP3   OH242652   2.757   0.433  14.440  0.0756  0.1410 -0.9647
 7054TIP3    H142653   2.688   0.373  14.467 -0.2953  1.6723  1.9354
 7054TIP3    H242654   2.830   0.413  14.497  0.1660  1.9281 -0.3951
 7055TIP3   OH242655   6.157   0.390  11.797 -0.1127  0.1140  0.3542
 7055TIP3    H142656   6.247   0.382  11.765 -0.7835  0.8016 -1.8391
 7055TIP3    H242657   6.127   0.300  11.806  0.9247 -0.1472  1.6749
 7056TIP3   OH242658   6.319   3.171  15.780 -0.3301 -0.0399  0.9285
 7056TIP3    H142659   6.386   3.221  15.733 -0.8832 -0.7810 -0.7290
 7056TIP3    H242660   6.339   3.079  15.760 -2.9650 -0.2494 -1.3518
 7057TIP3   OH242661   2.009   2.327   2.136  0.1625 -0.0013  1.0127
 7057TIP3    H142662   1.983   2.393   2.071  0.5283 -0.6168  0.2284
 7057TIP3    H242663   2.105   2.330   2.135  0.2375 -1.6283 -0.1949
 7058TIP3   OH242664   1.701   5.423  12.291  0.5054  0.4677 -0.1285
 7058TIP3    H142665   1.742   5.509  12.282 -0.2523  0.8025 -0.5337
 7058TIP3    H242666   1.648   5.414  12.211 -3.1473  1.6841  1.9137
 7059TIP3   OH242667   3.401   4.661  15.330 -0.1177 -0.0105  0.4508
 7059TIP3    H142668   3.415   4.710  15.411  1.7710  0.3945 -0.0832
 7059TIP3    H242669   3.390   4.570  15.359 -1.1434  0.3363  1.2484
 7060TIP3   OH242670   5.806   6.096   1.537  0.6809  0.0465 -0.5069
 7060TIP3    H142671   5.817   6.098   1.442  2.6607  0.0316 -0.3243
 7060TIP3    H242672   5.876   6.152   1.571 -1.0188  1.4256  0.9059
 7061TIP3   OH242673   6.029   4.597   5.318 -0.3122  0.2994  0.4440
 7061TIP3    H142674   6.036   4.506   5.347  0.0825  0.1115 -0.2149
 7061TIP3    H242675   5.943   4.626   5.349 -1.0460 -0.7441 -0.5360
 7062TIP3   OH242676   0.534   3.645  12.416 -0.2489 -0.1580 -0.5737
 7062TIP3    H142677   0.571   3.586  12.481 -0.0941  1.4457  0.8636
 7062TIP3    H242678   0.455   3.600  12.385  1.4124 -2.4381 -1.7596
 7063TIP3   OH242679   5.576   3.217   5.785  0.2125  0.7674  0.2008
 7063TIP3    H142680   5.607   3.194   5.872 -0.9524 -1.5024  0.1036
 7063TIP3    H242681   5.486   3.245   5.798 -0.1899 -0.2481 -0.3278
 7064TIP3   OH242682   5.904   0.347   2.990 -0.2215 -0.6123 -0.3074
 7064TIP3    H142683   5.945   0.312   3.069 -0.9513  1.1191  0.9072
 7064TIP3    H242684   5.841   0.279   2.964 -1.7803 -0.2333  2.1102
 7065TIP3   OH242685   4.223   6.834  14.287 -0.5127 -0.1499 -0.2455
 7065TIP3    H142686   4.297   6.849  14.346 -2.0522  0.1683  1.7165
 7065TIP3    H242687   4.234   6.744  14.257  0.5535 -0.1716  0.1813
 7066TIP3   OH242688   5.245   3.967   3.039 -0.2233  0.4175  0.4113
 7066TIP3    H142689   5.323   3.913   3.045 -1.4715 -1.5453  0.0358
 7066TIP3    H242690   5.277   4.054   3.017  1.9536  0.0776  1.9302
 7067TIP3   OH242691   5.575   6.641  14.715 -0.6958 -0.6692 -0.4598
 7067TIP3    H142692   5.547   6.622  14.805 -1.8982  3.1475  0.1380
 7067TIP3    H242693   5.494   6.647  14.665 -0.3909  1.2828 -0.8072
 7068TIP3   OH242694   5.398   4.121   6.567 -1.0203  0.2689 -0.0736
 7068TIP3    H142695   5.436   4.065   6.499 -0.6368  1.0563 -0.5225
 7068TIP3    H242696   5.357   4.060   6.628  1.4610 -0.6925  0.7593
 7069TIP3   OH242697   0.699   0.716   9.866 -0.0772  0.2403 -0.2652
 7069TIP3    H142698   0.737   0.714   9.778 -0.5677  0.5162 -0.4886
 7069TIP3    H242699   0.730   0.799   9.903  1.3306 -0.5457  0.3767
 7070TIP3   OH242700   2.974   5.929   4.906  0.8694  0.6741  0.6424
 7070TIP3    H142701   2.935   5.899   4.824 -0.0826  1.2445  0.8651
 7070TIP3    H242702   3.066   5.907   4.898  0.3582 -1.7851  0.5697
 7071TIP3   OH242703   2.628   4.683  15.150 -0.0128  0.5145 -0.0592
 7071TIP3    H142704   2.702   4.732  15.115  1.2741 -0.8723  0.6184
 7071TIP3    H242705   2.596   4.630  15.077  1.8600 -1.4252  0.4563
 7072TIP3   OH242706   3.112   6.558  11.768 -0.2033 -1.0900 -0.3253
 7072TIP3    H142707   3.033   6.505  11.759 -0.8997 -0.0777 -0.3855
 7072TIP3    H242708   3.088   6.626  11.831 -0.1981  0.6643 -2.1170
 7073TIP3   OH242709   6.244   6.181   5.306 -0.2189  0.1547 -1.0760
 7073TIP3    H142710   6.204   6.222   5.382  0.2833  3.3339 -2.3726
 7073TIP3    H242711   6.322   6.137   5.340  0.7413  2.6443  0.1399
 7074TIP3   OH242712   3.671   5.026  16.408  0.2472  0.3078 -0.2863
 7074TIP3    H142713   3.646   5.118  16.406 -0.9323 -0.0071 -0.7082
 7074TIP3    H242714   3.767   5.027  16.416  0.1801  1.5514  0.5496
 7075TIP3   OH242715   2.065   4.808  15.886 -0.0003 -0.0583 -0.0849
 7075TIP3    H142716   2.100   4.883  15.839  1.0174  0.7621  1.8475
 7075TIP3    H242717   2.132   4.740  15.876 -1.5674 -1.3692 -3.0880
 7076TIP3   OH242718   3.935   1.861  11.248  0.0454 -0.0313  0.0255
 7076TIP3    H142719   3.850   1.818  11.244 -0.1052  0.1035  1.3886
 7076TIP3    H242720   3.916   1.949  11.280  0.4957  0.6513 -1.4974
 7077TIP3   OH242721   1.401   6.802  14.942  0.0166 -0.0482  0.3970
 7077TIP3    H142722   1.385   6.743  15.016  0.4583 -2.5984 -1.4020
 7077TIP3    H242723   1.314   6.838  14.922 -0.5229 -1.0620  0.7880
 7078TIP3   OH242724   5.287   4.782  12.101  0.0415 -0.0910  0.0809
 7078TIP3    H142725   5.215   4.816  12.155 -0.8552 -0.9174 -0.5658
 7078TIP3    H242726   5.288   4.838  12.024 -0.0563 -0.2113 -0.0087
 7079TIP3   OH242727   4.668   4.039   1.311  0.1525  0.0033  0.4653
 7079TIP3    H142728   4.718   3.958   1.322 -0.2740 -0.2445  0.5999
 7079TIP3    H242729   4.724   4.107   1.346  0.0516 -0.3811  1.4038
 7080TIP3   OH242730   2.467   2.295  11.078  0.5525 -0.1495 -0.0595
 7080TIP3    H142731   2.542   2.291  11.020 -1.0957 -0.5083 -2.2765
 7080TIP3    H242732   2.393   2.317  11.021 -1.3192 -1.3664  1.7422
 7081TIP3   OH242733   5.856   0.064  13.681  0.2745  0.1088 -0.4516
 7081TIP3    H142734   5.891   0.023  13.759 -0.7694  0.8499  0.4462
 7081TIP3    H242735   5.927   0.120  13.649  1.5067 -1.8806 -1.3755
 7082TIP3   OH242736   6.145   3.461   0.996 -0.2344 -0.3239 -0.0322
 7082TIP3    H142737   6.098   3.404   0.934  0.8486 -1.0301 -0.2312
 7082TIP3    H242738   6.196   3.519   0.940  1.3299 -1.4505  0.1448
 7083TIP3   OH242739   5.032   2.014  11.507 -0.3890  0.3918  0.4867
 7083TIP3    H142740   5.002   1.932  11.469 -1.6496 -0.6885  3.4933
 7083TIP3    H242741   5.005   2.081  11.444  1.3215 -1.4235 -2.4202
 7084TIP3   OH242742   4.571   0.786   3.501 -0.4882 -0.3312  0.8283
 7084TIP3    H142743   4.663   0.808   3.513  0.4567 -2.0179 -2.2339
 7084TIP3    H242744   4.525   0.838   3.567  2.5048  1.4933  1.6709
 7085TIP3   OH242745   3.558   1.629   5.697 -0.1282 -0.0190  0.3596
 7085TIP3    H142746   3.475   1.581   5.699 -1.3029  1.8990  0.3160
 7085TIP3    H242747   3.533   1.720   5.680  2.0210  0.5816  0.0534
 7086TIP3   OH242748   6.785   0.015  13.374 -0.2516 -0.2565  0.1347
 7086TIP3    H142749   6.811   0.069  13.449 -5.7797  1.8254  1.0218
 7086TIP3    H242750   6.766   0.078  13.305 -1.5453 -1.5512 -0.7452
 7087TIP3   OH242751   6.725   1.383  16.674  0.1129 -0.4995  0.4781
 7087TIP3    H142752   6.684   1.329  16.607  0.0822  1.3176 -1.0574
 7087TIP3    H242753   6.817   1.360  16.670  0.0177 -0.8506  0.2465
 7088TIP3   OH242754   3.556   4.111  13.994  0.4937 -0.0391  0.2392
 7088TIP3    H142755   3.620   4.040  14.007  0.0150 -1.0635 -2.3628
 7088TIP3    H242756   3.482   4.069  13.952 -0.2304  1.8638 -0.4872
 7089TIP3   OH242757   0.217   4.914  14.721  0.0745 -0.7220  0.8989
 7089TIP3    H142758   0.281   4.974  14.759  1.4383 -1.7066  0.1982
 7089TIP3    H242759   0.257   4.828  14.725  0.1089 -0.9839 -2.2088
 7090TIP3   OH242760   0.754   1.898  10.935  0.0774 -0.1947 -0.0627
 7090TIP3    H142761   0.736   1.814  10.893  1.2462 -0.6977  0.4018
 7090TIP3    H242762   0.832   1.931  10.891 -0.1452  0.4727  0.0290
 7091TIP3   OH242763   6.842   0.937   0.977 -0.3631  0.1733  0.4420
 7091TIP3    H142764   6.859   0.869   0.912  0.2825  0.0811  0.7058
 7091TIP3    H242765   6.754   0.917   1.010 -1.5436  1.3154 -1.7360
 7092TIP3   OH242766   4.880   5.788   2.035  0.3942  0.3053 -0.1050
 7092TIP3    H142767   4.926   5.709   2.064 -1.4675 -0.3233  1.4370
 7092TIP3    H242768   4.797   5.786   2.083 -1.5485  1.0243 -3.1217
 7093TIP3   OH242769   3.710   4.817   2.978  0.2704 -0.0848 -0.6578
 7093TIP3    H142770   3.667   4.874   2.914  0.9694 -0.2989 -1.3363
 7093TIP3    H242771   3.651   4.742   2.986 -1.2694  1.2328  1.1648
 7094TIP3   OH242772   1.101   6.766  11.515 -0.4176  0.0325 -0.5169
 7094TIP3    H142773   1.126   6.687  11.467 -0.3145  0.5789 -1.3796
 7094TIP3    H242774   1.054   6.819  11.451  1.0004  1.4356 -0.4514
 7095TIP3   OH242775   5.220   4.950   3.649  0.5779  0.6502 -0.3356
 7095TIP3    H142776   5.199   4.974   3.739  0.7736  1.6710 -0.5539
 7095TIP3    H242777   5.244   4.857   3.654  1.5812  0.9493  0.8386
 7096TIP3   OH242778   5.652   1.769  13.533 -0.0264 -0.9917  0.4099
 7096TIP3    H142779   5.737   1.781  13.491  0.4127 -1.4279  1.1677
 7096TIP3    H242780   5.611   1.698  13.483  0.8940 -2.1767  1.3086
 7097TIP3   OH242781   3.175   6.230  10.528 -0.0692 -0.4292 -0.5017
 7097TIP3    H142782   3.157   6.309  10.477  1.7481 -0.5003 -1.3216
 7097TIP3    H242783   3.108   6.229  10.596 -0.7531  1.2449 -1.1100
 7098TIP3   OH242784   3.603   6.399  13.023  0.0194  0.2376  0.0001
 7098TIP3    H142785   3.649   6.416  13.106  2.0238 -1.5334 -0.6602
 7098TIP3    H242786   3.650   6.452  12.959  1.0572 -1.3690 -0.6343
 7099TIP3   OH242787   0.346   0.601  13.173 -0.5126  0.4062 -0.1359
 7099TIP3    H142788   0.268   0.640  13.132  1.5782  0.6985 -4.4772
 7099TIP3    H242789   0.352   0.513  13.135  0.4071 -0.2641  1.4542
 7100TIP3   OH242790   1.354   4.424  10.643  0.1785 -0.3971  0.5138
 7100TIP3    H142791   1.299   4.392  10.714  1.0854 -1.3289  0.8231
 7100TIP3    H242792   1.293   4.461  10.579 -0.5735  2.3981  2.6668
 7101TIP3   OH242793   6.810   1.339   3.512  0.2346 -0.1935  0.1545
 7101TIP3    H142794   6.803   1.283   3.435 -0.2707  1.6286 -1.1892
 7101TIP3    H242795   6.720   1.366   3.530  0.6656  2.0678 -0.7490
 7102TIP3   OH242796   5.008   6.383  12.376 -0.1160  0.0042  0.1462
 7102TIP3    H142797   5.031   6.464  12.330  0.0549  0.0649  0.3341
 7102TIP3    H242798   4.917   6.367  12.353 -0.1802  0.3040  0.1836
 7103TIP3   OH242799   6.549   1.639   6.073  0.8859 -0.6632  0.0857
 7103TIP3    H142800   6.585   1.694   6.004 -1.1597  0.7107  0.0404
 7103TIP3    H242801   6.519   1.560   6.028  0.1304 -0.0410 -0.5349
 7104TIP3   OH242802   0.739   1.198  13.320  0.3284 -0.2622  0.2867
 7104TIP3    H142803   0.812   1.138  13.339  0.1237 -0.1315  1.5379
 7104TIP3    H242804   0.756   1.275  13.375 -0.7127 -0.1995  0.5388
 7105TIP3   OH242805   0.855   5.247  12.865  0.5302 -0.2121 -0.4411
 7105TIP3    H142806   0.786   5.246  12.800  0.5460 -1.2023 -0.4603
 7105TIP3    H242807   0.918   5.181  12.835  1.1902  0.2631 -0.1245
 7106TIP3   OH242808   3.675   6.106   3.901 -0.4569  0.3336 -0.1041
 7106TIP3    H142809   3.709   6.176   3.957 -1.5793  0.4667  0.4321
 7106TIP3    H242810   3.736   6.103   3.827  0.6395  0.6471  0.7529
 7107TIP3   OH242811   6.231   3.939   5.429 -0.4420  0.4904 -0.6851
 7107TIP3    H142812   6.190   4.020   5.401  0.2578  1.1562  0.1526
 7107TIP3    H242813   6.308   3.930   5.372 -0.1463  0.7781 -0.3375
 7108TIP3   OH242814   1.089   5.618  14.112  0.6624 -0.0088 -0.0951
 7108TIP3    H142815   1.010   5.600  14.162  0.5937  0.0430 -0.1846
 7108TIP3    H242816   1.057   5.648  14.026  0.7364  1.9889  0.5110
 7109TIP3   OH242817   0.966   3.776  16.877  0.2581  0.2767 -0.5518
 7109TIP3    H142818   0.894   3.836  16.857  0.3078  0.9440  1.1080
 7109TIP3    H242819   1.038   3.834  16.903 -0.1139 -0.4785  2.4495
 7110TIP3   OH242820   3.181   0.058  14.897 -0.0581 -0.0723 -0.1801
 7110TIP3    H142821   3.255   0.081  14.840  0.6106 -1.4676  0.1067
 7110TIP3    H242822   3.215   0.069  14.986 -0.3340 -0.3007 -0.0472
 7111TIP3   OH242823   1.547   3.137  15.603 -0.6435 -0.0652 -0.1003
 7111TIP3    H142824   1.605   3.171  15.535 -0.8738  0.3743 -0.0775
 7111TIP3    H242825   1.512   3.215  15.646  0.1376 -0.3276  1.0703
 7112TIP3   OH242826   3.789   0.635   3.646  0.9268  0.2265  0.0300
 7112TIP3    H142827   3.749   0.595   3.569 -0.2085  0.7944  0.3023
 7112TIP3    H242828   3.868   0.677   3.613  1.8979 -1.7731 -0.3468
 7113TIP3   OH242829   3.073   0.130  10.765  0.1450 -0.1333 -0.8004
 7113TIP3    H142830   3.078   0.088  10.851 -0.7621 -0.1343 -0.7422
 7113TIP3    H242831   3.141   0.198  10.767 -0.5893  0.5957  0.3289
 7114TIP3   OH242832   4.621   2.533  14.199  0.0034  0.3540  0.3305
 7114TIP3    H142833   4.573   2.488  14.130  1.5664 -2.2524  0.8347
 7114TIP3    H242834   4.649   2.616  14.158 -1.7961  0.3241 -1.0765
 7115TIP3   OH242835   6.270   2.360  14.642  0.1014 -0.2029  0.4105
 7115TIP3    H142836   6.359   2.348  14.610  0.3354  2.7138 -0.2886
 7115TIP3    H242837   6.235   2.434  14.592 -3.1547 -1.8835 -0.1209
 7116TIP3   OH242838   6.055   4.954  16.727 -0.4118 -0.0781 -0.2993
 7116TIP3    H142839   6.066   5.006  16.807 -0.2113 -2.0298  1.0031
 7116TIP3    H242840   6.074   5.015  16.656 -0.4610  1.6841  1.1402
 7117TIP3   OH242841   1.360   3.975   4.056  0.1562  0.1934 -0.2070
 7117TIP3    H142842   1.269   3.962   4.030  0.5788  0.5964 -2.0367
 7117TIP3    H242843   1.380   3.900   4.111 -1.4840  0.4919  0.8902
 7118TIP3   OH242844   6.554   4.606   2.435  0.2460 -0.2491 -0.2402
 7118TIP3    H142845   6.461   4.619   2.417  0.2880 -0.6686 -0.8041
 7118TIP3    H242846   6.582   4.686   2.479 -1.0298 -1.2150  2.6196
 7119TIP3   OH242847   5.430   1.541  16.834 -0.5034 -0.1415  0.0493
 7119TIP3    H142848   5.524   1.548  16.818 -0.5395 -0.5850 -0.4061
 7119TIP3    H242849   5.396   1.629  16.817 -0.6233 -0.6479 -3.0382
 7120TIP3   OH242850   2.626   5.714  12.606  0.5664 -0.1544  0.2067
 7120TIP3    H142851   2.680   5.744  12.533 -1.0565  0.4055 -0.8183
 7120TIP3    H242852   2.541   5.692  12.566  0.4691 -2.5051  1.4998
 7121TIP3   OH242853   0.202   6.256  15.265 -0.1153 -0.0095 -0.0582
 7121TIP3    H142854   0.285   6.226  15.228 -0.3093 -0.6498  0.0096
 7121TIP3    H242855   0.203   6.223  15.355 -0.2130  0.4348  0.1087
 7122TIP3   OH242856   2.422   2.638  11.580 -0.2513  0.1272 -0.1526
 7122TIP3    H142857   2.418   2.634  11.485  0.1690  0.6615 -0.1990
 7122TIP3    H242858   2.510   2.670  11.599 -0.5161  0.5467  0.3931
 7123TIP3   OH242859   3.157   4.878  11.587  0.0832  0.1867 -0.7128
 7123TIP3    H142860   3.248   4.848  11.593 -0.0965 -0.2229  0.2230
 7123TIP3    H242861   3.161   4.954  11.530  1.0638  0.3482 -0.4596
 7124TIP3   OH242862   3.449   3.527   5.935  0.4490  0.1907  0.3810
 7124TIP3    H142863   3.510   3.593   5.968  1.3943 -0.1429 -0.6320
 7124TIP3    H242864   3.464   3.450   5.990  0.3788  0.3480  0.6237
 7125TIP3   OH242865   3.772   3.239  13.007  0.3460  0.1428 -0.2013
 7125TIP3    H142866   3.792   3.166  12.949 -1.0268 -1.6744  1.4241
 7125TIP3    H242867   3.745   3.196  13.089 -2.1670  2.4222  0.2892
 7126TIP3   OH242868   1.429   3.060   0.431  0.1909  0.0777  0.1899
 7126TIP3    H142869   1.493   3.117   0.388 -0.4446  0.1412 -0.6806
 7126TIP3    H242870   1.359   3.119   0.459  0.5787  0.0386  1.3229
 7127TIP3   OH242871   4.429   6.872   1.734 -0.5178 -0.5805 -0.4952
 7127TIP3    H142872   4.441   6.812   1.661  0.3796 -1.1146  0.0687
 7127TIP3    H242873   4.443   6.818   1.812 -2.6286 -0.3086  0.1445
 7128TIP3   OH242874   3.306   3.373   1.833  0.1804  0.1522  0.1089
 7128TIP3    H142875   3.315   3.378   1.929 -1.5144 -0.2748  0.3308
 7128TIP3    H242876   3.316   3.280   1.813  0.3320  0.2140 -0.0968
 7129TIP3   OH242877   1.697   4.442  15.942  0.0840 -0.4978 -0.0294
 7129TIP3    H142878   1.662   4.492  16.016 -0.3744 -2.1503  0.9333
 7129TIP3    H242879   1.791   4.434  15.960  0.1400 -0.0636 -0.1349
 7130TIP3   OH242880   3.221   3.932   0.117  0.1564  0.4794  0.2951
 7130TIP3    H142881   3.252   3.969   0.034  1.3842 -2.2361 -0.5701
 7130TIP3    H242882   3.144   3.880   0.094  1.5137 -1.7276  0.4341
 7131TIP3   OH242883   6.463   3.567   2.523  0.1504  0.5006 -0.3142
 7131TIP3    H142884   6.502   3.642   2.479  0.9300 -1.1684 -2.6810
 7131TIP3    H242885   6.369   3.583   2.518  0.3290  1.8601  0.2938
 7132TIP3   OH242886   6.815   4.148  16.692  0.3715  0.0108 -0.1060
 7132TIP3    H142887   6.777   4.229  16.728  1.0675 -0.5958  2.1363
 7132TIP3    H242888   6.902   4.144  16.729  0.4055 -1.7193 -0.3019
 7133TIP3   OH242889   5.138   5.505  15.622 -0.0582  0.2936 -0.1600
 7133TIP3    H142890   5.108   5.458  15.700  0.1050  1.0898  0.3834
 7133TIP3    H242891   5.074   5.575  15.609  0.6234  0.9571  0.0167
 7134TIP3   OH242892   2.113   2.135   0.518  0.3918 -0.2680 -0.1932
 7134TIP3    H142893   2.171   2.175   0.454 -0.9610 -0.1450 -1.3955
 7134TIP3    H242894   2.134   2.042   0.514 -0.3946 -0.4081 -1.6189
 7135TIP3   OH242895   1.252   6.021   1.863 -0.0351  0.0421  0.4513
 7135TIP3    H142896   1.237   6.112   1.890 -0.3968 -0.2650  1.3063
 7135TIP3    H242897   1.291   5.979   1.939  1.8056 -0.1067 -0.5154
 7136TIP3   OH242898   4.057   1.607   5.351  0.1284  0.3287 -0.2816
 7136TIP3    H142899   3.974   1.560   5.341  0.0598  0.3002  0.3874
 7136TIP3    H242900   4.031   1.698   5.362 -0.0335  0.0106  2.8588
 7137TIP3   OH242901   0.645   0.827  12.080  0.7504  0.8944 -0.2444
 7137TIP3    H142902   0.587   0.760  12.115 -0.6579  1.3351 -1.6321
 7137TIP3    H242903   0.691   0.862  12.157  0.5733 -0.7409  0.6489
 7138TIP3   OH242904   4.313   6.346   2.917  0.0534  0.3937 -0.0018
 7138TIP3    H142905   4.341   6.255   2.914 -1.2762 -0.1545  2.3009
 7138TIP3    H242906   4.233   6.348   2.865  0.1119  0.2674 -0.0970
 7139TIP3   OH242907   0.024   0.239  12.500 -0.0456 -0.2760  0.6568
 7139TIP3    H142908   0.059   0.259  12.587 -0.0924  0.6856  0.4647
 7139TIP3    H242909   0.072   0.296  12.441  0.4591 -1.4069 -0.0496
 7140TIP3   OH242910   5.480   1.048  10.747  0.2811  1.1314 -0.1898
 7140TIP3    H142911   5.546   1.033  10.680 -0.2846  0.6778 -0.6422
 7140TIP3    H242912   5.401   1.007  10.714  0.6702 -1.6422  1.9900
 7141TIP3   OH242913   1.935   5.156   3.990  0.3205 -1.1051 -0.2813
 7141TIP3    H142914   1.967   5.116   4.072  1.5431  0.3038 -0.0321
 7141TIP3    H242915   1.959   5.093   3.922 -1.0866 -2.5000  0.4441
 7142TIP3   OH242916   0.393   0.441  14.379  0.0558  0.2655 -0.4711
 7142TIP3    H142917   0.313   0.424  14.330  0.5068 -0.7621 -0.9016
 7142TIP3    H242918   0.419   0.355  14.413  0.9811  0.5745 -0.3507
 7143TIP3   OH242919   3.772   6.219  15.886 -0.5340 -0.0906 -0.5728
 7143TIP3    H142920   3.705   6.247  15.949 -0.8836 -0.7942 -0.6281
 7143TIP3    H242921   3.799   6.133  15.917  0.9156  0.5092 -0.1014
 7144TIP3   OH242922   1.410   2.559   1.229 -0.1868 -0.1901 -0.2872
 7144TIP3    H142923   1.451   2.547   1.144 -0.4425  1.7571 -0.7333
 7144TIP3    H242924   1.405   2.654   1.241 -2.5602 -0.3460  0.7135
 7145TIP3   OH242925   5.113   4.168  12.308 -0.3972 -0.0622 -0.1295
 7145TIP3    H142926   5.183   4.231  12.295 -0.6241 -0.1081 -1.7870
 7145TIP3    H242927   5.130   4.131  12.395  1.7015 -0.1481 -0.5106
 7146TIP3   OH242928   6.715   6.132  12.818  0.4025  0.0941 -0.1503
 7146TIP3    H142929   6.762   6.067  12.871  0.3971  0.3427  0.1582
 7146TIP3    H242930   6.783   6.177  12.769  0.3960 -0.2266 -0.4546
 7147TIP3   OH242931   1.578   6.589  15.836  0.1442  0.1208  0.1548
 7147TIP3    H142932   1.541   6.642  15.765  2.4571  1.5633 -0.0940
 7147TIP3    H242933   1.612   6.652  15.899 -0.0824 -1.1310  1.5934
 7148TIP3   OH242934   4.310   5.692   2.079 -0.0354 -0.4502  0.1632
 7148TIP3    H142935   4.355   5.739   2.150 -0.4239  0.5729 -0.2517
 7148TIP3    H242936   4.321   5.748   2.002 -1.5201 -0.4419 -0.0753
 7149TIP3   OH242937   6.272   1.522   0.829  0.1382  0.7633  0.0310
 7149TIP3    H142938   6.274   1.452   0.764 -1.0336  1.2403 -0.5455
 7149TIP3    H242939   6.344   1.580   0.804 -0.4960  1.1087 -1.0579
 7150TIP3   OH242940   3.284   3.723   5.215 -0.3039 -0.4165 -0.5230
 7150TIP3    H142941   3.225   3.704   5.288 -0.0081 -1.5845 -0.5590
 7150TIP3    H242942   3.272   3.649   5.155 -0.7263  0.6503 -1.7914
 7151TIP3   OH242943   6.178   0.972  13.523  0.1310 -0.2525  0.3956
 7151TIP3    H142944   6.141   1.052  13.560  0.6360 -0.5409  1.5743
 7151TIP3    H242945   6.107   0.934  13.471  0.0315  1.1744 -0.5396
 7152TIP3   OH242946   2.627   6.727   1.755 -0.4857 -0.0495  0.5418
 7152TIP3    H142947   2.571   6.768   1.822 -0.3303 -1.7844  1.8118
 7152TIP3    H242948   2.574   6.654   1.722  0.9632 -1.7048  1.7441
 7153TIP3   OH242949   0.722   4.340  11.837 -0.1259  0.2903  0.8817
 7153TIP3    H142950   0.674   4.410  11.880 -0.7096  0.7327 -0.4298
 7153TIP3    H242951   0.809   4.377  11.821 -0.5940  0.9345 -0.2801
 7154TIP3   OH242952   0.935   0.067   0.833 -0.5639  0.0219 -0.2392
 7154TIP3    H142953   0.868   0.135   0.832 -0.5507  0.0291 -0.6051
 7154TIP3    H242954   1.017   0.114   0.848 -0.6645 -0.0100  0.4417
 7155TIP3   OH242955   3.033   2.654   2.472 -0.6593 -0.5055  0.2203
 7155TIP3    H142956   2.979   2.580   2.501  0.6786 -1.2380  1.0175
 7155TIP3    H242957   2.976   2.707   2.418 -1.8417 -1.8221  0.1255
 7156TIP3   OH242958   6.529   3.355   4.646 -0.1099  0.3026  0.2648
 7156TIP3    H142959   6.560   3.281   4.595 -0.8963  0.2331 -0.1309
 7156TIP3    H242960   6.561   3.339   4.734 -0.6076 -0.7062  0.2689
 7157TIP3   OH242961   1.431   3.878   0.814  0.3297 -0.1362  0.6954
 7157TIP3    H142962   1.454   3.902   0.904 -0.4152 -0.1543  0.9042
 7157TIP3    H242963   1.392   3.791   0.822  0.8361 -0.4073  0.2648
 7158TIP3   OH242964   0.630   4.425   4.316 -0.3768 -0.3699 -0.2748
 7158TIP3    H142965   0.537   4.401   4.312 -0.4018 -0.2529 -0.4305
 7158TIP3    H242966   0.634   4.510   4.271  0.1147 -1.2635 -1.9930
 7159TIP3   OH242967   5.381   1.960  16.099 -0.7276 -0.1586  0.0588
 7159TIP3    H142968   5.306   2.003  16.140 -1.1620 -1.0240  0.1973
 7159TIP3    H242969   5.419   2.027  16.042 -0.0972  1.0705  1.8556
 7160TIP3   OH242970   4.231   3.949   2.758 -0.3275 -0.0316 -0.8209
 7160TIP3    H142971   4.193   3.888   2.696  1.2799 -0.5579 -1.3452
 7160TIP3    H242972   4.317   3.911   2.780 -0.9148  0.0028  1.9081
 7161TIP3   OH242973   4.499   1.666   0.284 -0.8696  0.0920  0.4610
 7161TIP3    H142974   4.492   1.707   0.370 -2.0131 -0.8327  0.8410
 7161TIP3    H242975   4.431   1.598   0.284  0.9035 -1.7786 -0.1235
 7162TIP3   OH242976   6.026   2.646   0.518 -0.0850  0.0939 -0.0683
 7162TIP3    H142977   6.098   2.641   0.455 -1.2412  3.7713 -1.9803
 7162TIP3    H242978   6.069   2.661   0.602  1.4647  0.4857 -0.8865
 7163TIP3   OH242979   3.525   0.261   0.178 -0.3155  0.1120 -0.1699
 7163TIP3    H142980   3.589   0.216   0.233  0.8093 -2.6559 -3.3641
 7163TIP3    H242981   3.443   0.214   0.195 -0.1257 -0.2817 -0.3098
 7164TIP3   OH242982   6.521   1.653   5.360  0.0349 -0.2063  0.1963
 7164TIP3    H142983   6.491   1.598   5.288 -0.4134  0.6126 -0.2613
 7164TIP3    H242984   6.472   1.734   5.350 -0.4897 -0.2873  1.7803
 7165TIP3   OH242985   3.072   5.929  15.741  0.3094  0.7342  0.3038
 7165TIP3    H142986   3.131   5.856  15.723  0.5215  0.4798  1.8349
 7165TIP3    H242987   3.105   5.967  15.822 -1.7674  0.3873  1.3905
 7166TIP3   OH242988   3.765   6.894  15.118 -0.6641  0.4460 -0.1402
 7166TIP3    H142989   3.691   6.924  15.066 -2.2266 -1.9161  0.5747
 7166TIP3    H242990   3.797   6.973  15.161 -2.3536  1.6418 -0.9568
 7167TIP3   OH242991   0.754   1.783  15.041 -0.2761  0.2939  0.1674
 7167TIP3    H142992   0.707   1.700  15.043  0.4241 -0.1122  0.1912
 7167TIP3    H242993   0.686   1.850  15.051 -0.8699 -0.2655 -0.0638
 7168TIP3   OH242994   1.860   2.828   0.375  0.1131 -0.1454 -0.4820
 7168TIP3    H142995   1.870   2.921   0.353 -0.7363  0.4820  1.5573
 7168TIP3    H242996   1.944   2.804   0.414  0.0212  0.0422 -0.1601
 7169TIP3   OH242997   6.364   3.168  16.871 -0.1037  0.0614  0.5909
 7169TIP3    H142998   6.410   3.251  16.859  0.6365 -0.6080 -1.5704
 7169TIP3    H242999   6.434   3.103  16.881 -0.6286 -0.5973  0.0787
 7170TIP3   OH243000   1.666   2.819  15.193  0.0909  0.2208  0.4771
 7170TIP3    H143001   1.727   2.763  15.240 -0.4922 -0.0690  0.8963
 7170TIP3    H243002   1.616   2.759  15.138  0.4277  0.5001 -0.1547
 7171TIP3   OH243003   1.425   2.926   2.695  0.2778 -0.3879  0.2124
 7171TIP3    H143004   1.379   2.950   2.775 -3.0430  2.9184 -2.3900
 7171TIP3    H243005   1.372   2.856   2.657 -0.3618  0.6123 -0.8056
 7172TIP3   OH243006   5.913   4.181   2.149  0.0676  0.1453 -0.0844
 7172TIP3    H143007   5.951   4.121   2.213  2.1557  0.7824 -0.6674
 7172TIP3    H243008   5.843   4.225   2.196  1.1735  0.1907  1.5953
 7173TIP3   OH243009   6.534   6.052   0.543 -0.4871 -0.5637 -0.0939
 7173TIP3    H143010   6.581   6.061   0.461 -0.4134 -0.7357 -0.0713
 7173TIP3    H243011   6.441   6.058   0.519 -0.4720 -0.8158 -0.2175
 7174TIP3   OH243012   0.625   2.027   3.124  0.6091  0.0414  0.1798
 7174TIP3    H143013   0.580   2.004   3.043 -1.2644 -0.0635  1.1986
 7174TIP3    H243014   0.711   2.060   3.095 -0.1789  0.4518 -1.8557
 7175TIP3   OH243015   1.215   0.193   3.292  0.7391  0.4616 -0.9032
 7175TIP3    H143016   1.169   0.115   3.324 -0.4420  0.7661 -1.7807
 7175TIP3    H243017   1.278   0.213   3.361 -1.3816  0.8307  1.0726
 7176TIP3   OH243018   4.431   3.934  16.392 -0.1902 -0.2800  0.2686
 7176TIP3    H143019   4.486   3.856  16.386 -0.6221 -0.6271  0.6721
 7176TIP3    H243020   4.349   3.902  16.429 -1.0790  0.0131 -1.3275
 7177TIP3   OH243021   3.442   1.712  15.848  0.5439  0.6415 -0.1178
 7177TIP3    H143022   3.459   1.667  15.931 -3.0894 -0.1877  0.3494
 7177TIP3    H243023   3.349   1.697  15.832  0.8365  1.8742 -3.7387
 7178TIP3   OH243024   6.364   4.422   2.146 -0.1834  0.1244  0.0717
 7178TIP3    H143025   6.426   4.410   2.218 -0.8310 -1.4060  0.3969
 7178TIP3    H243026   6.296   4.356   2.161 -1.2673  0.9658 -0.9541
 7179TIP3   OH243027   1.917   6.505   4.443  0.0109  0.2682 -0.2341
 7179TIP3    H143028   1.855   6.440   4.476  0.1405  0.5626  0.6060
 7179TIP3    H243029   1.883   6.527   4.356  0.2286 -1.2568 -0.7495
 7180TIP3   OH243030   1.499   0.484  14.877  0.2365 -0.0769  0.2312
 7180TIP3    H143031   1.434   0.537  14.925 -0.4548  1.1219 -1.9051
 7180TIP3    H243032   1.531   0.542  14.808  2.0669 -1.3585 -0.0665
 7181TIP3   OH243033   3.751   4.746  12.964  0.6938 -0.2661  0.3954
 7181TIP3    H143034   3.702   4.733  13.046 -2.5139  0.2315 -1.2659
 7181TIP3    H243035   3.786   4.659  12.944  0.5839 -0.6393  1.7096
 7182TIP3   OH243036   1.543   6.177  16.331 -0.2109  0.0906 -0.2186
 7182TIP3    H143037   1.522   6.206  16.243 -1.3171 -1.2527 -0.4331
 7182TIP3    H243038   1.459   6.160  16.373  0.3025  0.3939  0.9982
 7183TIP3   OH243039   1.208   0.045   4.619  0.6574  0.4041 -0.3247
 7183TIP3    H143040   1.195   0.016   4.709  1.0416 -1.0393 -0.7118
 7183TIP3    H243041   1.120   0.048   4.582  0.4744  1.2257  0.1418
 7184TIP3   OH243042   3.465   0.750   5.587  0.3396 -0.1020 -0.1340
 7184TIP3    H143043   3.536   0.711   5.639 -0.1943  0.3020  0.9312
 7184TIP3    H243044   3.439   0.680   5.527  1.6119 -0.2662 -0.5365
 7185TIP3   OH243045   4.211   4.693  15.516 -0.6381 -0.2647 -0.3561
 7185TIP3    H143046   4.282   4.652  15.467 -0.8863  0.2599 -1.1866
 7185TIP3    H243047   4.168   4.621  15.562  0.3644 -0.6004  0.0807
 7186TIP3   OH243048   4.086   5.552  16.325  0.4125 -0.8985 -0.0348
 7186TIP3    H143049   4.167   5.507  16.348 -0.2098 -1.7271  0.6247
 7186TIP3    H243050   4.066   5.521  16.236  0.0582 -1.8595  0.3641
 7187TIP3   OH243051   3.802   1.151  12.043  0.0640  0.1406 -0.0579
 7187TIP3    H143052   3.879   1.204  12.025  1.3508 -1.9717 -1.2738
 7187TIP3    H243053   3.809   1.127  12.135  1.1067 -0.3493 -0.2536
 7188TIP3   OH243054   0.790   1.639  11.461  0.4815 -1.0833 -0.4989
 7188TIP3    H143055   0.876   1.674  11.481  1.0316 -1.9353 -1.2621
 7188TIP3    H243056   0.728   1.704  11.495  1.4113 -0.6207  0.3476
 7189TIP3   OH243057   3.030   2.949  13.334  0.0464  0.0635  0.3032
 7189TIP3    H143058   3.124   2.967  13.328  0.3765 -1.6189 -0.1067
 7189TIP3    H243059   3.007   2.975  13.423  0.6284  1.5604  0.0566
 7190TIP3   OH243060   2.256   2.044   4.609  0.3596 -0.2187 -0.3087
 7190TIP3    H143061   2.234   1.976   4.673  0.1976  1.1215  1.1520
 7190TIP3    H243062   2.290   1.997   4.534  0.2830 -1.9024  0.6569
 7191TIP3   OH243063   4.941   1.184   5.849  0.3878  0.2790 -0.3401
 7191TIP3    H143064   5.032   1.183   5.822  0.6476 -0.3906  0.4871
 7191TIP3    H243065   4.937   1.249   5.919 -0.0002  1.0706 -1.0855
 7192TIP3   OH243066   2.725   5.377   3.442  0.6281  0.0724 -0.0562
 7192TIP3    H143067   2.784   5.351   3.513  2.0549  1.6057 -0.6269
 7192TIP3    H243068   2.660   5.433   3.484  2.3286  2.2246 -0.0912
 7193TIP3   OH243069   6.789   0.937  12.460  0.0722 -0.3997 -0.4150
 7193TIP3    H143070   6.854   0.967  12.397  0.9952 -0.1693  0.6251
 7193TIP3    H243071   6.827   0.858  12.499  0.0269  0.0779  0.6377
 7194TIP3   OH243072   3.487   4.683   3.459  0.1111  0.0994  0.0990
 7194TIP3    H143073   3.507   4.606   3.407 -0.5336  0.7303 -1.1180
 7194TIP3    H243074   3.493   4.756   3.398 -1.2989  0.7915  0.7303
 7195TIP3   OH243075   1.472   2.067   4.974 -0.4889  0.1303  0.4437
 7195TIP3    H143076   1.505   2.066   5.064 -0.7479  1.9691  0.5909
 7195TIP3    H243077   1.547   2.098   4.922 -0.5181 -0.3685  0.1071
 7196TIP3   OH243078   4.104   1.179   4.527  0.2481 -0.0457 -0.4243
 7196TIP3    H143079   4.181   1.218   4.484  1.1666 -2.4462 -1.1126
 7196TIP3    H243080   4.134   1.094   4.558 -1.8711 -0.6114  0.2388
 7197TIP3   OH243081   2.752   1.416  13.228 -0.0426 -0.1060 -0.2173
 7197TIP3    H143082   2.819   1.467  13.274  0.9815 -2.0338  0.5539
 7197TIP3    H243083   2.683   1.480  13.208  2.0501  2.0246 -1.1831
 7198TIP3   OH243084   3.752   5.137   4.539 -0.1680 -0.3495 -0.2962
 7198TIP3    H143085   3.691   5.208   4.516 -0.4434 -0.5032 -0.0541
 7198TIP3    H243086   3.764   5.088   4.458 -1.5990 -1.2465  0.0002
 7199TIP3   OH243087   0.310   5.426   4.120  0.0436 -0.3822 -0.0680
 7199TIP3    H143088   0.357   5.489   4.174  1.3357 -0.0495 -1.5136
 7199TIP3    H243089   0.357   5.426   4.037 -1.8730 -0.8786 -1.2043
 7200TIP3   OH243090   1.563   5.161  10.722 -0.0937  0.2132  0.3383
 7200TIP3    H143091   1.551   5.180  10.629  2.6010  0.7980  0.0476
 7200TIP3    H243092   1.474   5.146  10.755 -1.1411  0.3506 -2.2286
 7201TIP3   OH243093   6.562   6.151  15.063  0.3915  0.5085 -0.0501
 7201TIP3    H143094   6.467   6.144  15.049  0.3311 -0.0664  0.6019
 7201TIP3    H243095   6.595   6.063  15.049  0.7363  0.5688  0.3719
 7202TIP3   OH243096   2.265   4.764  11.059  0.0744  0.0925  0.1594
 7202TIP3    H143097   2.257   4.811  10.976 -1.9729  0.6927  0.6329
 7202TIP3    H243098   2.354   4.730  11.059 -0.0646 -0.5179 -2.6069
 7203TIP3   OH243099   3.794   3.539   5.563 -0.0801  0.3801 -0.0661
 7203TIP3    H143100   3.706   3.504   5.575  0.0078  0.6246  1.6389
 7203TIP3    H243101   3.782   3.617   5.510 -0.7271 -0.2057 -0.8144
 7204TIP3   OH243102   6.777   3.122  16.374  0.2736  0.4117 -0.6203
 7204TIP3    H143103   6.759   3.131  16.467  0.5209  0.7209 -0.5983
 7204TIP3    H243104   6.760   3.030  16.354 -1.9640  0.7815 -0.7392
 7205TIP3   OH243105   3.890   0.253   5.556  0.1885  0.4824  0.0314
 7205TIP3    H143106   3.851   0.180   5.605 -0.1741  0.9292  0.4151
 7205TIP3    H243107   3.912   0.215   5.471 -1.3870  0.2758 -0.3135
 7206TIP3   OH243108   6.094   3.212  11.303 -0.5296 -0.5095  0.0013
 7206TIP3    H143109   6.167   3.256  11.260 -0.3734  1.0471  1.7639
 7206TIP3    H243110   6.135   3.147  11.361 -0.4536  0.7205  1.3854
 7207TIP3   OH243111   4.420   1.330  13.658 -0.1156  0.3181  0.1538
 7207TIP3    H143112   4.336   1.366  13.631 -0.3546 -0.8436 -0.7401
 7207TIP3    H243113   4.450   1.279  13.582  0.1782 -1.3575  1.3389
 7208TIP3   OH243114   1.820   1.008  11.303 -0.3843  0.5079  0.0211
 7208TIP3    H143115   1.848   1.073  11.368  1.2823  0.5169 -0.6443
 7208TIP3    H243116   1.765   1.057  11.243  1.9481  1.7324 -1.2493
 7209TIP3   OH243117   4.267   6.762  14.794  0.3149 -0.5109 -0.9645
 7209TIP3    H143118   4.283   6.854  14.776 -0.3047 -0.6147 -2.0980
 7209TIP3    H243119   4.173   6.755  14.808  0.5415 -0.7406  0.6454
 7210TIP3   OH243120   2.285   4.539   1.264  0.0636 -0.2788  0.7903
 7210TIP3    H143121   2.283   4.634   1.252  2.7786  0.0787  2.1729
 7210TIP3    H243122   2.217   4.521   1.329 -1.8052  0.3626 -0.8834
 7211TIP3   OH243123   5.708   6.051   4.350 -0.2959  0.6348  0.3531
 7211TIP3    H143124   5.615   6.070   4.338 -0.6228  0.8151  2.6270
 7211TIP3    H243125   5.714   5.956   4.341 -0.9835  0.4568  1.5083
 7212TIP3   OH243126   0.159   2.698  11.607 -0.1726 -0.1148  0.1218
 7212TIP3    H143127   0.247   2.719  11.637  0.7550 -1.7289 -1.2483
 7212TIP3    H243128   0.164   2.701  11.512 -1.5010 -0.6173  0.0017
 7213TIP3   OH243129   5.098   6.174  11.460 -0.7129 -0.5715 -0.2252
 7213TIP3    H143130   5.036   6.183  11.388 -0.4372 -1.8807 -0.6542
 7213TIP3    H243131   5.060   6.106  11.516 -0.8136  0.2780  0.7682
 7214TIP3   OH243132   1.287   4.072  12.421  0.3348 -0.3009 -0.2698
 7214TIP3    H143133   1.194   4.056  12.407 -1.0551  4.4594  1.5732
 7214TIP3    H243134   1.324   4.084  12.334 -0.4819 -3.0080 -1.0694
 7215TIP3   OH243135   4.986   2.965   0.866 -0.7411 -0.1544 -0.6196
 7215TIP3    H143136   5.062   2.950   0.809  0.5374  2.0335  0.3306
 7215TIP3    H243137   5.002   3.052   0.902 -2.1825 -0.9003  2.0235
 7216TIP3   OH243138   5.134   4.601   4.426 -0.3187 -0.5003  0.4415
 7216TIP3    H143139   5.140   4.658   4.350 -0.5513 -1.6028 -0.4372
 7216TIP3    H243140   5.112   4.659   4.498 -2.2242  0.3168 -0.7204
 7217TIP3   OH243141   1.438   5.887  12.124  0.0366 -0.2936  0.1834
 7217TIP3    H143142   1.475   5.930  12.200  2.1269 -1.1469 -0.2555
 7217TIP3    H243143   1.365   5.942  12.097  1.0207  1.5464  1.1219
 7218TIP3   OH243144   4.049   1.197   2.670  0.0506  1.0584  0.0769
 7218TIP3    H143145   4.052   1.242   2.755 -1.3814 -0.7177  1.1571
 7218TIP3    H243146   4.116   1.130   2.676 -0.4589  0.5410  0.0537
 7219TIP3   OH243147   0.815   2.618  14.556  0.2207 -0.0976  0.6505
 7219TIP3    H143148   0.803   2.543  14.614 -2.8052 -0.6359 -0.4777
 7219TIP3    H243149   0.736   2.672  14.569 -0.1054  0.2682 -2.1389
 7220TIP3   OH243150   4.700   0.280   3.701  0.6682 -0.6245  0.4771
 7220TIP3    H143151   4.635   0.210   3.712 -0.3151  0.0281 -0.8879
 7220TIP3    H243152   4.716   0.282   3.607  0.0541  1.5285  0.3839
 7221TIP3   OH243153   0.233   2.408  13.442 -0.0368  0.2810 -0.2731
 7221TIP3    H143154   0.278   2.484  13.479 -0.8691  1.1576 -1.0033
 7221TIP3    H243155   0.248   2.414  13.348  2.5416 -2.2367 -0.1699
 7222TIP3   OH243156   4.946   5.784  14.607  0.5666  0.3738  0.8453
 7222TIP3    H143157   4.904   5.783  14.521  3.7106  2.0087 -0.9055
 7222TIP3    H243158   4.925   5.870  14.643  1.3796  0.7391  0.4782
 7223TIP3   OH243159   3.519   6.539   1.914 -0.7258  0.5220  0.3580
 7223TIP3    H143160   3.495   6.614   1.968  0.1420  2.4391 -1.7755
 7223TIP3    H243161   3.591   6.571   1.859 -0.0147 -2.0189 -0.3341
 7224TIP3   OH243162   1.646   6.890  16.316  0.0330  0.5727 -0.4398
 7224TIP3    H143163   1.698   6.947  16.259 -0.2919  0.7157 -0.5947
 7224TIP3    H243164   1.579   6.853  16.259  0.2363  0.0348 -0.3380
 7225TIP3   OH243165   4.369   6.365   5.296  0.0783 -0.0549  0.6859
 7225TIP3    H143166   4.312   6.332   5.365 -0.1272 -0.3364  0.3847
 7225TIP3    H243167   4.458   6.350   5.329 -0.0206  0.0147  0.9831
 7226TIP3   OH243168   0.483   6.630  12.019  0.1535  0.3641 -0.0969
 7226TIP3    H143169   0.395   6.669  12.016 -0.8934 -1.8781 -0.4929
 7226TIP3    H243170   0.468   6.537  12.034  2.5356  0.0472  0.7912
 7227TIP3   OH243171   0.172   6.194   0.978  0.5126 -0.5653  0.0760
 7227TIP3    H143172   0.119   6.115   0.966  0.1980 -0.6759  1.9297
 7227TIP3    H243173   0.144   6.252   0.907 -0.2297 -1.5935 -0.5069
 7228TIP3   OH243174   1.256   2.529  10.962 -0.0364  0.2570  0.1685
 7228TIP3    H143175   1.298   2.509  11.046  1.5033  0.2387 -0.5542
 7228TIP3    H243176   1.199   2.454  10.946 -1.0361  0.6757  1.5918
 7229TIP3   OH243177   4.947   4.845   4.213 -0.1318 -0.7503  0.8330
 7229TIP3    H143178   4.921   4.860   4.123  1.9952  0.1352  0.3061
 7229TIP3    H243179   4.864   4.840   4.262 -1.2957 -0.5147 -1.0281
 7230TIP3   OH243180   4.241   5.317  16.170  0.1957 -0.5831 -0.1047
 7230TIP3    H143181   4.242   5.309  16.075 -1.0527  0.0045 -0.1971
 7230TIP3    H243182   4.312   5.379  16.190  0.5505 -0.8142 -0.6301
 7231TIP3   OH243183   2.423   0.724  13.039  0.1322 -0.1947 -0.1238
 7231TIP3    H143184   2.469   0.641  13.052 -0.9171 -0.8389 -0.3741
 7231TIP3    H243185   2.407   0.729  12.945  0.6343  0.5466 -0.1782
 7232TIP3   OH243186   2.298   5.249  11.849 -0.4385 -0.6632 -0.1345
 7232TIP3    H143187   2.209   5.277  11.866 -0.2321 -0.2223  0.2536
 7232TIP3    H243188   2.300   5.157  11.877 -1.2135 -1.2062 -1.7589
 7233TIP3   OH243189   3.857   3.918  10.826 -0.1644  0.3566  0.3943
 7233TIP3    H143190   3.897   3.934  10.740 -0.9138  0.7809  0.1124
 7233TIP3    H243191   3.773   3.963  10.822 -0.2349  0.3367  1.3378
 7234TIP3   OH243192   4.216   1.614  11.544  0.2096  0.1479  0.2080
 7234TIP3    H143193   4.204   1.703  11.511  1.3908  0.4526  0.5625
 7234TIP3    H243194   4.169   1.559  11.481  0.2243  0.9388 -0.5225
 7235TIP3   OH243195   6.530   1.361   0.981  0.0257 -0.2341  0.5743
 7235TIP3    H143196   6.513   1.452   1.001  1.2219  0.3486 -0.8231
 7235TIP3    H243197   6.507   1.313   1.060 -3.0339  0.9647  0.5072
 7236TIP3   OH243198   0.517   1.152  15.279  0.2060  0.8507 -0.3420
 7236TIP3    H143199   0.432   1.109  15.271  0.7511 -0.9894  2.1559
 7236TIP3    H243200   0.501   1.225  15.339  0.3416  0.4434  0.2107
 7237TIP3   OH243201   4.105   0.353   3.159 -0.4967 -0.4146 -0.2289
 7237TIP3    H143202   4.065   0.307   3.086  1.8706  2.6729 -3.8645
 7237TIP3    H243203   4.182   0.301   3.181  0.1829 -0.1219 -1.7969
 7238TIP3   OH243204   2.459   5.902  13.887 -0.2572 -0.5604  0.5319
 7238TIP3    H143205   2.537   5.939  13.929  0.1212 -0.3127 -0.3650
 7238TIP3    H243206   2.435   5.966  13.820 -0.4325 -1.2694 -0.0997
 7239TIP3   OH243207   0.367   6.644   4.145 -0.3360  0.1983  0.4252
 7239TIP3    H143208   0.384   6.555   4.116  0.2899 -0.2238  1.9531
 7239TIP3    H243209   0.273   6.647   4.162 -0.5246  0.1444 -0.5856
 7240TIP3   OH243210   0.652   6.187   0.017 -0.3601  0.0465  0.0941
 7240TIP3    H143211   0.564   6.224   0.021 -1.1004 -1.5151 -0.6152
 7240TIP3    H243212   0.641   6.096   0.046  0.7252 -0.5966 -1.3723
 7241TIP3   OH243213   6.333   4.913   2.024  0.3563  0.1462  0.3150
 7241TIP3    H143214   6.331   4.818   2.023 -0.3950  0.1498 -1.1956
 7241TIP3    H243215   6.272   4.937   2.094  0.6859 -0.4693  0.8251
 7242TIP3   OH243216   5.024   5.834   3.979 -0.2300  0.3615 -0.9675
 7242TIP3    H143217   5.027   5.745   4.016 -0.9506  0.8397  0.3203
 7242TIP3    H243218   4.994   5.888   4.052  1.1985  1.8380 -1.4376
 7243TIP3   OH243219   2.849   0.473   1.667  0.5078  0.5883 -0.0035
 7243TIP3    H143220   2.776   0.410   1.665 -0.2080  1.4117 -1.0116
 7243TIP3    H243221   2.912   0.434   1.726 -0.2317 -0.7449 -0.0457
 7244TIP3   OH243222   2.095   5.488   4.738  0.4680  0.0605 -0.3500
 7244TIP3    H143223   2.050   5.431   4.676  0.0634 -0.4866  0.4338
 7244TIP3    H243224   2.180   5.504   4.697  0.5476 -1.0159 -0.6532
 7245TIP3   OH243225   6.088   6.728  14.461 -0.1191  0.1719 -0.5077
 7245TIP3    H143226   6.172   6.698  14.427  0.3668  2.2199 -1.2270
 7245TIP3    H243227   6.110   6.796  14.524 -1.1913 -0.7471  0.9293
 7246TIP3   OH243228   3.298   0.095   0.954  0.2923  0.4026  0.2791
 7246TIP3    H143229   3.278   0.058   1.041  0.3945 -1.1965 -0.3350
 7246TIP3    H243230   3.284   0.021   0.894  1.7775  1.0417 -0.8910
 7247TIP3   OH243231   6.148   4.251  11.652  0.2702 -0.0218  0.0763
 7247TIP3    H143232   6.142   4.175  11.594  0.4427 -0.7644  1.0187
 7247TIP3    H243233   6.058   4.280  11.664  0.1353 -0.5314  0.3022
 7248TIP3   OH243234   3.040   1.171  13.097  0.0725 -0.6082  0.1963
 7248TIP3    H143235   2.994   1.174  13.013 -2.2980 -0.1815  1.4071
 7248TIP3    H243236   3.067   1.262  13.113  2.5127 -1.0326 -1.0310
 7249TIP3   OH243237   2.243   4.200  13.691 -0.4675 -0.2361 -0.6198
 7249TIP3    H143238   2.298   4.190  13.769  2.0991  0.8152 -2.1812
 7249TIP3    H243239   2.256   4.291  13.664 -1.2733 -0.5789 -2.2854
 7250TIP3   OH243240   1.902   3.878   5.117  0.4843 -0.4263 -0.1548
 7250TIP3    H143241   1.970   3.828   5.162 -0.4230 -2.0928 -0.5644
 7250TIP3    H243242   1.826   3.874   5.175 -0.0873 -0.8943 -0.9259
 7251TIP3   OH243243   6.127   4.106  14.963  0.6448 -0.3257 -0.1835
 7251TIP3    H143244   6.107   4.161  14.887 -0.9042  0.0798  0.4568
 7251TIP3    H243245   6.222   4.108  14.971  0.9429 -1.2218 -2.7026
 7252TIP3   OH243246   1.137   5.485  16.737 -0.0798  0.1852 -0.5672
 7252TIP3    H143247   1.166   5.441  16.817  0.6374  1.3984 -0.1330
 7252TIP3    H243248   1.104   5.414  16.681  0.2338 -0.7849  0.4391
 7253TIP3   OH243249   6.901   3.908  14.946  0.0561 -0.0230  0.0160
 7253TIP3    H143250   6.951   3.972  14.895 -0.0701  0.1689  0.1304
 7253TIP3    H243251   6.858   3.960  15.014  1.8697 -0.5309  1.6542
 7254TIP3   OH243252   1.315   4.157  14.179  0.3044 -0.4496  0.1891
 7254TIP3    H143253   1.377   4.086  14.170 -0.3671 -1.0613  0.2851
 7254TIP3    H243254   1.327   4.210  14.100 -0.0201 -1.3402 -0.4784
 7255TIP3   OH243255   2.206   3.927  11.436 -0.0298 -0.0007 -0.4799
 7255TIP3    H143256   2.286   3.950  11.483  1.2577  0.3133 -2.6737
 7255TIP3    H243257   2.190   4.002  11.378 -1.3817 -0.4800 -0.7728
 7256TIP3   OH243258   2.335   3.220  13.803  0.4029 -0.2468  0.3822
 7256TIP3    H143259   2.242   3.225  13.780  0.1682  1.6293  1.5725
 7256TIP3    H243260   2.338   3.154  13.873 -0.4387  1.2790  1.9370
 7257TIP3   OH243261   4.906   1.810   5.309 -0.2546  0.0979 -0.5827
 7257TIP3    H143262   4.832   1.842   5.361 -0.8441  1.2394 -2.0667
 7257TIP3    H243263   4.869   1.790   5.224  0.5845 -2.3583 -0.4360
 7258TIP3   OH243264   4.175   5.684   1.363  0.0965 -0.0821 -0.0265
 7258TIP3    H143265   4.269   5.670   1.367  0.2550  0.9978  0.9117
 7258TIP3    H243266   4.165   5.777   1.384 -1.2855 -0.5973  1.7995
 7259TIP3   OH243267   6.418   5.153  13.076 -0.4512  0.0035  0.4315
 7259TIP3    H143268   6.386   5.243  13.063 -0.4835  0.0203  0.6247
 7259TIP3    H243269   6.497   5.147  13.023 -1.9204 -0.6941 -1.8513
 7260TIP3   OH243270   5.400   3.875   4.038  0.2802 -0.2364  0.1026
 7260TIP3    H143271   5.341   3.894   4.111  0.9390 -1.1781  0.9090
 7260TIP3    H243272   5.356   3.806   3.989  0.4682 -0.5752  0.4077
 7261TIP3   OH243273   0.654   5.067   2.503  0.9338 -0.0222 -0.3843
 7261TIP3    H143274   0.697   5.110   2.429  0.8393 -0.1577 -0.5196
 7261TIP3    H243275   0.725   5.050   2.565  0.8379  1.0839  0.0436
 7262TIP3   OH243276   4.437   3.084   4.275 -0.2492 -0.0416 -0.0529
 7262TIP3    H143277   4.465   3.171   4.306 -0.3111  0.1243 -0.4533
 7262TIP3    H243278   4.513   3.028   4.289  0.3802  0.4510 -1.3234
 7263TIP3   OH243279   2.063   0.081  13.230  0.3045 -0.4179 -0.1134
 7263TIP3    H143280   2.126   0.042  13.290 -0.8441 -3.2576 -0.5537
 7263TIP3    H243281   2.116   0.129  13.166  1.9560 -1.8354  0.1164
 7264TIP3   OH243282   3.376   5.442   3.262  0.0455  0.1204  0.4684
 7264TIP3    H143283   3.464   5.405   3.259  0.7966  1.7786 -3.2128
 7264TIP3    H243284   3.382   5.514   3.325  1.4049  0.3480  0.1097
 7265TIP3   OH243285   0.377   0.580  12.431 -0.3737  0.1924 -0.7283
 7265TIP3    H143286   0.428   0.533  12.497  2.8178  0.6393 -2.6742
 7265TIP3    H243287   0.366   0.668  12.467 -0.9801 -0.2678  0.2670
 7266TIP3   OH243288   4.745   3.285   1.573  0.1270 -1.0605 -0.4652
 7266TIP3    H143289   4.833   3.286   1.537  0.4815  1.6811  0.2317
 7266TIP3    H243290   4.758   3.271   1.667  0.0838  1.3386 -0.0333
 7267TIP3   OH243291   5.328   1.530   0.994 -0.0844  0.4474  0.3668
 7267TIP3    H143292   5.376   1.498   0.918  2.4123 -1.9069  2.6926
 7267TIP3    H243293   5.241   1.493   0.985  0.9775 -2.1302 -0.0526
 7268TIP3   OH243294   3.195   4.724  16.120  0.2695 -0.6760  0.4609
 7268TIP3    H143295   3.217   4.709  16.212  2.7206 -0.6531 -0.0297
 7268TIP3    H243296   3.280   4.743  16.079 -1.0846  2.5825 -1.2230
 7269TIP3   OH243297   4.610   2.565  13.512 -0.4957 -0.0224 -0.3360
 7269TIP3    H143298   4.698   2.577  13.549 -0.3490 -1.6612 -0.0769
 7269TIP3    H243299   4.551   2.590  13.583 -0.2684  1.1873 -0.5439
 7270TIP3   OH243300   2.326   4.108  13.333  0.1730 -0.1025  0.6366
 7270TIP3    H143301   2.404   4.144  13.291  0.2092 -0.6881  0.1812
 7270TIP3    H243302   2.279   4.184  13.365  1.5481  0.1934  2.0413
 7271TIP3   OH243303   6.602   2.633   3.249 -0.4429 -0.7087 -0.1423
 7271TIP3    H143304   6.634   2.559   3.301  0.2541 -0.0259  0.4176
 7271TIP3    H243305   6.559   2.690   3.313  1.4220  0.6991 -0.0904
 7272TIP3   OH243306   4.785   2.805  13.379 -0.5955  0.2583  0.1762
 7272TIP3    H143307   4.811   2.718  13.410  1.7774  1.5519  2.1502
 7272TIP3    H243308   4.847   2.824  13.308 -2.0924 -0.2069 -1.3121
 7273TIP3   OH243309   0.508   4.430   2.396  0.5171  0.6085 -0.3559
 7273TIP3    H143310   0.489   4.341   2.424  2.5366  0.5355  0.9595
 7273TIP3    H243311   0.542   4.421   2.307  0.2392  0.1408 -0.4186
 7274TIP3   OH243312   0.953   2.714   5.460 -0.2225  0.0984  0.1196
 7274TIP3    H143313   0.931   2.797   5.416  1.6925  1.5426  1.7063
 7274TIP3    H243314   1.048   2.718   5.472  0.2726 -3.3330 -1.5954
 7275TIP3   OH243315   3.387   0.093   2.376  0.4993 -0.1503 -0.3729
 7275TIP3    H143316   3.325   0.108   2.305 -0.3413  1.8195  0.6974
 7275TIP3    H243317   3.404  -0.001   2.374 -2.6519 -0.8306 -0.6232
 7276TIP3   OH243318   5.206   3.116  16.404  0.0730 -0.2805 -0.5048
 7276TIP3    H143319   5.239   3.206  16.404 -0.7276  0.0217 -1.0673
 7276TIP3    H243320   5.227   3.083  16.491  1.6220 -0.0210 -0.7445
 7277TIP3   OH243321   1.219   0.266   0.602  0.0353 -0.6343  0.2787
 7277TIP3    H143322   1.210   0.261   0.697  2.8436  0.8757  0.7134
 7277TIP3    H243323   1.250   0.355   0.585  1.0047 -1.3254 -1.9110
 7278TIP3   OH243324   4.441   6.476  16.662  0.4875 -0.1547  0.0332
 7278TIP3    H143325   4.351   6.450  16.679  0.7708 -1.0888  0.1585
 7278TIP3    H243326   4.438   6.572  16.660 -0.2591 -0.1125  1.4822
 7279TIP3   OH243327   0.990   0.925   3.418 -0.1486 -0.7701 -0.4677
 7279TIP3    H143328   0.902   0.954   3.396  0.0397 -0.8626 -1.3605
 7279TIP3    H243329   1.043   0.946   3.341  0.5014 -1.1891 -0.1446
 7280TIP3   OH243330   2.185   2.626  11.721 -0.1346  0.2450  0.3407
 7280TIP3    H143331   2.174   2.531  11.726  0.3439  0.2522  2.5653
 7280TIP3    H243332   2.257   2.640  11.659 -0.5295 -0.7984 -0.3665
 7281TIP3   OH243333   5.891   5.101   0.980 -0.3693 -0.1866  0.3284
 7281TIP3    H143334   5.932   5.185   1.002 -0.8292  0.0585  0.2775
 7281TIP3    H243335   5.834   5.082   1.055 -0.3160 -0.4186  0.3090
 7282TIP3   OH243336   1.534   5.756  11.656 -0.1643  0.3315 -0.0707
 7282TIP3    H143337   1.593   5.726  11.726 -0.2759 -1.5757 -0.7318
 7282TIP3    H243338   1.587   5.750  11.577 -1.4595 -2.5181 -0.8521
 7283TIP3   OH243339   2.534   0.882   4.759 -1.1114  0.5877 -0.1955
 7283TIP3    H143340   2.619   0.902   4.798 -0.3041  0.9429 -2.0132
 7283TIP3    H243341   2.476   0.868   4.833  0.3542  1.0818  1.0987
 7284TIP3   OH243342   6.462   2.023  11.945 -0.2684  0.1232  0.4354
 7284TIP3    H143343   6.383   1.970  11.955 -0.0197 -0.8941 -2.2005
 7284TIP3    H243344   6.431   2.108  11.912 -0.2905 -0.3556 -0.8279
 7285TIP3   OH243345   6.712   4.554  13.787  0.1987 -0.0253 -0.9029
 7285TIP3    H143346   6.728   4.642  13.754 -0.3589  1.0241  1.4257
 7285TIP3    H243347   6.789   4.533  13.839 -0.5936  0.0170  0.3352
 7286TIP3   OH243348   3.197   1.123  11.322  0.0211 -0.1348  0.3601
 7286TIP3    H143349   3.140   1.094  11.251  0.4590 -0.1928  0.0238
 7286TIP3    H243350   3.268   1.171  11.278 -0.9340  1.9119  0.9310
 7287TIP3   OH243351   3.142   0.909  14.886  0.1411 -0.3578 -0.2802
 7287TIP3    H143352   3.236   0.896  14.875  0.1779  0.2829 -0.8343
 7287TIP3    H243353   3.132   0.939  14.976  0.6801  1.2810 -0.7358
 7288TIP3   OH243354   4.713   1.849  15.737 -0.5445  0.3242  0.0477
 7288TIP3    H143355   4.726   1.941  15.713 -0.8647  0.2634 -0.3719
 7288TIP3    H243356   4.683   1.807  15.656  0.1262 -0.2663  0.0980
 7289TIP3   OH243357   3.928   5.833  11.084  0.3323 -0.7889  0.0949
 7289TIP3    H143358   3.868   5.767  11.049  0.7380 -0.4695 -1.2781
 7289TIP3    H243359   3.892   5.917  11.055 -1.0218 -0.2187  3.1003
 7290TIP3   OH243360   1.991   0.251   2.352  0.1341 -0.3726  0.2700
 7290TIP3    H143361   2.083   0.262   2.376 -0.0592  1.4701  0.2717
 7290TIP3    H243362   1.952   0.336   2.367 -1.4186 -0.9202 -0.4798
 7291TIP3   OH243363   3.440   0.077  16.439 -0.1266 -0.1300  0.0931
 7291TIP3    H143364   3.391   0.071  16.521 -1.5841 -0.0909 -0.7425
 7291TIP3    H243365   3.524   0.037  16.459 -0.3386  0.1520  1.6889
 7292TIP3   OH243366   2.194   3.570  15.993 -0.1296 -0.2004 -0.3414
 7292TIP3    H143367   2.242   3.529  15.921 -0.1020  0.8704 -0.9418
 7292TIP3    H243368   2.136   3.633  15.950 -0.1429  0.4210  0.5777
 7293TIP3   OH243369   2.633   6.626   2.724  0.0962  0.6698  0.2564
 7293TIP3    H143370   2.713   6.677   2.732 -0.3164  1.2338  0.9437
 7293TIP3    H243371   2.564   6.686   2.750 -0.3819 -0.3019  1.2941
 7294TIP3   OH243372   5.507   1.305  15.467  0.3973  1.2588 -0.0695
 7294TIP3    H143373   5.475   1.221  15.500  1.4392  0.9020  0.0650
 7294TIP3    H243374   5.428   1.350  15.436 -0.2101  0.3543  0.1200
 7295TIP3   OH243375   4.891   6.235   0.957 -0.3419 -0.8558  0.0804
 7295TIP3    H143376   4.923   6.305   0.900 -0.6737  0.3452  1.3112
 7295TIP3    H243377   4.963   6.219   1.019  0.4294 -2.8826 -1.2419
 7296TIP3   OH243378   3.627   6.873  16.081  0.2046  0.1925 -0.6150
 7296TIP3    H143379   3.707   6.855  16.130  0.3246  0.5274 -0.6834
 7296TIP3    H243380   3.593   6.787  16.058  1.2317  0.0556 -1.7005
 7297TIP3   OH243381   2.197   1.192  13.291  0.4182 -0.3054 -0.5271
 7297TIP3    H143382   2.153   1.275  13.274 -1.4998 -1.3288 -0.8479
 7297TIP3    H243383   2.126   1.131  13.314  1.4584 -2.3963 -2.3626
 7298TIP3   OH243384   1.277   0.239   1.903  0.4286  0.4854  0.3993
 7298TIP3    H143385   1.341   0.179   1.941  0.9643  1.0766  0.4417
 7298TIP3    H243386   1.310   0.326   1.924 -0.3131  0.8017  0.2911
 7299TIP3   OH243387   4.639   1.920  16.170 -0.0171  0.0313 -0.6859
 7299TIP3    H143388   4.583   1.894  16.243  0.4277 -0.4417 -0.5124
 7299TIP3    H243389   4.605   1.871  16.095  0.2360 -0.3421 -0.5568
 7300TIP3   OH243390   1.477   4.560   5.082 -0.1322 -0.0625  0.1343
 7300TIP3    H143391   1.397   4.534   5.128  0.1473 -0.3493  0.4738
 7300TIP3    H243392   1.543   4.566   5.152  0.0544  0.5358 -0.0913
 7301TIP3   OH243393   3.534   5.580   1.442 -0.0331 -0.2031  0.0190
 7301TIP3    H143394   3.625   5.550   1.442  0.5285  1.3390  1.8853
 7301TIP3    H243395   3.487   5.510   1.396  1.9656 -1.3438 -0.4475
 7302TIP3   OH243396   0.611   0.776   3.941 -0.0826  0.3341 -0.0606
 7302TIP3    H143397   0.700   0.754   3.969  0.0438  1.5699  0.5935
 7302TIP3    H243398   0.557   0.705   3.975  0.8231 -1.4045 -1.9944
 7303TIP3   OH243399   1.613   1.622   0.741  0.6334 -0.0930  0.4971
 7303TIP3    H143400   1.693   1.575   0.761  0.5666 -0.2103  0.4921
 7303TIP3    H243401   1.638   1.715   0.739  1.2709 -0.2502 -1.8311
 7304TIP3   OH243402   0.802   6.527  13.493 -0.0683 -0.2567 -0.3724
 7304TIP3    H143403   0.741   6.585  13.538  0.3041 -1.0035  1.1945
 7304TIP3    H243404   0.862   6.586  13.447 -1.3985  0.4971 -1.1799
 7305TIP3   OH243405   2.635   4.571   3.139 -0.1226 -0.1116 -0.5697
 7305TIP3    H143406   2.687   4.493   3.158 -0.3713 -0.7513 -2.3185
 7305TIP3    H243407   2.692   4.624   3.083 -0.6144  0.1325 -0.8390
 7306TIP3   OH243408   3.241   6.880  16.059 -0.1021 -0.2786 -0.0565
 7306TIP3    H143409   3.259   6.850  16.148 -1.5849 -1.5625 -0.1428
 7306TIP3    H243410   3.283   6.815  16.003  0.1384  0.0831 -0.3016
 7307TIP3   OH243411   6.110   1.846  12.689 -0.2444 -0.1595  0.0756
 7307TIP3    H143412   6.114   1.763  12.642 -1.2790 -0.9506  1.2995
 7307TIP3    H243413   6.133   1.824  12.779  0.5814  1.1007  0.1910
 7308TIP3   OH243414   5.542   3.499   4.344 -0.2578 -0.1792 -0.2036
 7308TIP3    H143415   5.503   3.525   4.427 -1.5013  1.2238 -1.1705
 7308TIP3    H243416   5.609   3.566   4.327 -0.5579 -0.0068 -0.7103
 7309TIP3   OH243417   1.497   3.288   0.893  0.2095 -0.2984  0.6078
 7309TIP3    H143418   1.406   3.310   0.876  0.1107 -0.8733  0.3519
 7309TIP3    H243419   1.505   3.196   0.865  1.1794  0.1306 -0.6405
 7310TIP3   OH243420   5.930   6.215  13.621 -0.0419 -0.0721  0.4384
 7310TIP3    H143421   5.995   6.260  13.675  0.2678 -2.0189  1.8023
 7310TIP3    H243422   5.851   6.267  13.630  0.4655  0.5667  1.4065
 7311TIP3   OH243423   1.190   1.787   5.282 -0.3712  0.0497 -0.1551
 7311TIP3    H143424   1.177   1.866   5.229 -0.0431  0.2138  0.0065
 7311TIP3    H243425   1.103   1.765   5.313 -0.8414 -0.9319 -2.0031
 7312TIP3   OH243426   0.092   3.480  12.547  0.2333 -0.4537 -0.1038
 7312TIP3    H143427   0.120   3.392  12.521 -0.0398  0.0761 -2.4397
 7312TIP3    H243428   0.173   3.529  12.557  0.4040 -1.0140  1.5581
 7313TIP3   OH243429   6.819   0.935  10.876  0.0572 -0.2552  0.1964
 7313TIP3    H143430   6.896   0.983  10.846 -2.0864  2.3199 -1.6333
 7313TIP3    H243431   6.834   0.845  10.847  2.2191  0.2280 -0.3253
 7314TIP3   OH243432   5.577   3.844  12.395  0.2732  0.1364 -0.0205
 7314TIP3    H143433   5.510   3.793  12.350  1.1160 -0.3108 -0.7901
 7314TIP3    H243434   5.577   3.929  12.350  0.1367  0.1859  0.0709
 7315TIP3   OH243435   4.041   6.052  16.752  0.9263 -0.8070 -0.4250
 7315TIP3    H143436   4.043   6.062  16.656  0.6249  0.4677 -0.3161
 7315TIP3    H243437   4.133   6.043  16.777  1.0525 -0.5213 -0.7786
 7316TIP3   OH243438   4.550   4.124   4.575 -0.3513  0.0394 -0.3263
 7316TIP3    H143439   4.579   4.215   4.568  0.4689 -0.2124 -0.3011
 7316TIP3    H243440   4.545   4.094   4.485  1.6440 -0.5617 -0.3026
 7317TIP3   OH243441   0.856   2.772  11.830  0.2898  0.7926 -0.3402
 7317TIP3    H143442   0.867   2.839  11.898 -0.5790 -0.1763  0.8073
 7317TIP3    H243443   0.814   2.817  11.757 -3.2461  0.9644  1.5701
 7318TIP3   OH243444   4.783   0.341  14.712  0.3329 -0.2301 -0.6944
 7318TIP3    H143445   4.806   0.424  14.669 -1.9451 -0.2600 -2.1308
 7318TIP3    H243446   4.799   0.274  14.645 -0.0121 -0.7001 -0.3141
 7319TIP3   OH243447   4.528   3.281   1.903  0.3492 -0.7495 -0.3179
 7319TIP3    H143448   4.540   3.369   1.869  0.3865 -0.0558  1.3918
 7319TIP3    H243449   4.612   3.238   1.890  0.5820 -0.2625 -0.4507
 7320TIP3   OH243450   1.905   1.633  16.099 -0.2234 -0.3049  0.0063
 7320TIP3    H143451   1.869   1.544  16.096 -0.3814 -0.2327 -2.0397
 7320TIP3    H243452   1.832   1.688  16.124 -0.3556 -0.6592  0.4051
 7321TIP3   OH243453   5.838   1.203   2.177 -0.0884 -0.2963 -0.5941
 7321TIP3    H143454   5.751   1.210   2.138  0.3242 -0.2294 -1.5447
 7321TIP3    H243455   5.898   1.210   2.102  0.7580  0.4166  0.1273
 7322TIP3   OH243456   5.835   0.006   1.086  0.1571 -0.0640  0.7232
 7322TIP3    H143457   5.877  -0.052   1.149  3.0354  0.4656 -0.5518
 7322TIP3    H243458   5.818   0.087   1.135  2.6265  0.4513  0.8497
 7323TIP3   OH243459   2.016   6.652  10.632  0.5654 -0.3668  0.2609
 7323TIP3    H143460   2.017   6.648  10.728  1.5279 -0.1614  0.2755
 7323TIP3    H243461   2.055   6.569  10.604  0.3048 -0.4162  0.0532
 7324TIP3   OH243462   5.925   3.919  10.875 -0.2739  0.4044  0.4322
 7324TIP3    H143463   5.888   3.834  10.850  1.3994 -0.2032 -0.1073
 7324TIP3    H243464   5.902   3.928  10.968 -2.5181  0.5005 -0.0915
 7325TIP3   OH243465   4.629   3.894   5.586  0.4353  0.0337  0.1469
 7325TIP3    H143466   4.575   3.965   5.622  0.5983 -0.0919  0.6445
 7325TIP3    H243467   4.719   3.926   5.594  0.4923 -0.1258  0.1371
 7326TIP3   OH243468   4.100   4.890  16.070  0.4196 -0.8224  0.1830
 7326TIP3    H143469   4.055   4.948  16.131  2.9009  0.5764  0.8555
 7326TIP3    H243470   4.161   4.840  16.125  0.1867 -2.1802 -0.7364
 7327TIP3   OH243471   6.273   6.067   0.497 -0.2582 -0.8953  0.2323
 7327TIP3    H143472   6.199   6.012   0.473 -0.8399 -0.1205  0.1920
 7327TIP3    H243473   6.238   6.156   0.495  0.2409 -0.6331  1.8287
 7328TIP3   OH243474   1.011   5.350  14.862  0.1397  0.4743 -0.6369
 7328TIP3    H143475   1.085   5.314  14.812  0.8989  1.7817 -0.5076
 7328TIP3    H243476   0.963   5.402  14.798 -0.8217 -0.5502 -0.7707
 7329TIP3   OH243477   1.875   0.926   4.152  1.1899  0.6056  0.2479
 7329TIP3    H143478   1.807   0.872   4.191 -0.8113  1.7056 -1.4940
 7329TIP3    H243479   1.916   0.869   4.086 -1.0329  1.1420 -1.7105
 7330TIP3   OH243480   1.960   5.299   3.537  0.5989 -0.3279 -0.2951
 7330TIP3    H143481   1.927   5.387   3.522  0.5039  0.2689  2.7071
 7330TIP3    H243482   1.882   5.247   3.555  0.8217 -0.4053  0.4776
 7331TIP3   OH243483   4.582   4.730  16.879  0.2221  0.0861 -0.2520
 7331TIP3    H143484   4.507   4.789  16.881  0.3116  0.2553 -1.2171
 7331TIP3    H243485   4.552   4.656  16.825  0.3564 -0.4084  0.3418
 7332TIP3   OH243486   5.785   1.371   0.130  0.0897  0.2576 -0.4175
 7332TIP3    H143487   5.797   1.435   0.059 -0.6612  1.3625  0.4150
 7332TIP3    H243488   5.691   1.354   0.131  0.1260  0.0703  0.1621
 7333TIP3   OH243489   1.405   6.157   4.528  0.3290  0.2104 -0.2257
 7333TIP3    H143490   1.373   6.088   4.586  0.7647  0.4515  0.3268
 7333TIP3    H243491   1.480   6.118   4.484 -0.1243 -0.0378 -0.7811
 7334TIP3   OH243492   2.328   3.024  10.019  0.2365  0.2410 -0.8333
 7334TIP3    H143493   2.337   3.110   9.979  1.5217  0.4407 -0.1462
 7334TIP3    H243494   2.233   3.007  10.018 -0.0994  1.9652 -0.3336
 7335TIP3   OH243495   2.036   2.168  15.152  0.0185  0.0765  0.2726
 7335TIP3    H143496   2.035   2.135  15.242  0.4720  0.7555  0.5275
 7335TIP3    H243497   1.946   2.195  15.135 -0.9206 -3.0845 -0.6366
 7336TIP3   OH243498   3.689   6.834  16.457 -0.2678 -0.1377  0.0656
 7336TIP3    H143499   3.701   6.782  16.536  0.1282 -0.5230 -0.2414
 7336TIP3    H243500   3.765   6.892  16.454  0.4992 -1.1363 -0.7855
 7337TIP3   OH243501   1.387   6.099   5.690  0.3051 -0.3032  0.7389
 7337TIP3    H143502   1.405   6.107   5.784  0.4941  0.5340  0.6390
 7337TIP3    H243503   1.304   6.145   5.678  1.7361  2.3313  0.0391
 7338TIP3   OH243504   3.540   1.345  15.456 -0.1253  0.2631  0.4712
 7338TIP3    H143505   3.467   1.328  15.516 -0.0792 -0.2310  0.3906
 7338TIP3    H243506   3.582   1.424  15.491  0.1738 -0.2650  1.3606
 7339TIP3   OH243507   6.850   5.725   1.566  0.8627 -0.4733  0.2676
 7339TIP3    H143508   6.838   5.654   1.629 -0.3738  0.5035  1.1783
 7339TIP3    H243509   6.800   5.697   1.489 -2.8301  0.9062  1.9076
 7340TIP3   OH243510   1.320   0.982   2.071 -0.4216  0.9796 -0.5703
 7340TIP3    H143511   1.275   1.064   2.049  1.5279  1.5392 -2.8339
 7340TIP3    H243512   1.412   0.999   2.051  0.2448 -1.3609  0.1945
 7341TIP3   OH243513   1.995   1.193   2.269  0.1171  0.1077  0.4274
 7341TIP3    H143514   1.985   1.287   2.280  0.1869  0.0965  0.5974
 7341TIP3    H243515   1.906   1.160   2.257  0.2219  0.4141 -1.5021
 7342TIP3   OH243516   1.186   2.356  11.287 -0.1219 -0.0274 -0.3627
 7342TIP3    H143517   1.184   2.313  11.202 -1.7589 -0.2052 -0.2542
 7342TIP3    H243518   1.274   2.395  11.292  2.0117 -4.2964  0.0153
 7343TIP3   OH243519   3.282   2.450  15.326 -0.0962 -0.0874  0.1143
 7343TIP3    H143520   3.190   2.460  15.348 -0.0293 -1.4968  1.1579
 7343TIP3    H243521   3.294   2.356  15.311  1.1274  0.0883 -0.1614
 7344TIP3   OH243522   5.846   2.801   3.213 -0.0934 -0.1847  0.6736
 7344TIP3    H143523   5.871   2.892   3.196 -0.9503 -0.0437  0.1202
 7344TIP3    H243524   5.793   2.805   3.292 -0.4066 -0.1507  0.4655
 7345TIP3   OH243525   4.534   2.864  12.058  0.3504  0.9612  0.2312
 7345TIP3    H143526   4.600   2.839  12.122  1.2163 -0.2830 -1.0865
 7345TIP3    H243527   4.532   2.791  11.996  0.4057  2.6234 -1.8268
 7346TIP3   OH243528   5.536   6.815   2.681 -0.5900 -0.8576  0.4834
 7346TIP3    H143529   5.575   6.898   2.655 -0.3029 -1.2484 -0.4062
 7346TIP3    H243530   5.548   6.811   2.775 -2.2032  0.9028  0.8159
 7347TIP3   OH243531   6.878   2.699   2.179 -0.4126  1.2248 -0.2876
 7347TIP3    H143532   6.819   2.762   2.222 -0.0107  1.7361 -0.4739
 7347TIP3    H243533   6.917   2.650   2.251 -1.4520  0.5177 -0.1813
 7348TIP3   OH243534   4.482   0.768   4.986  0.0279  0.3134 -0.0525
 7348TIP3    H143535   4.410   0.711   5.012 -0.6192  1.9835  2.1647
 7348TIP3    H243536   4.543   0.711   4.938 -1.0050 -1.9805  1.2128
 7349TIP3   OH243537   0.059   4.007   6.312 -0.0732 -0.4304  0.3864
 7349TIP3    H143538  -0.004   3.983   6.244  0.3480 -1.0403  0.1997
 7349TIP3    H243539   0.010   4.064   6.372 -0.5541 -0.2110 -0.2132
 7350TIP3   OH243540   3.172   1.645  15.730 -0.2776 -0.0361 -0.1610
 7350TIP3    H143541   3.155   1.553  15.751 -1.7512  0.1585 -0.4015
 7350TIP3    H243542   3.189   1.645  15.635 -2.9790  0.2176 -0.7316
 7351TIP3   OH243543   5.769   2.180  16.567 -0.1759 -0.1424 -0.4744
 7351TIP3    H143544   5.792   2.191  16.660  0.2023 -0.7806 -0.4842
 7351TIP3    H243545   5.692   2.124  16.568  1.2151 -2.1737 -0.6026
 7352TIP3   OH243546   5.935   1.787  11.629 -0.2921  0.1679  0.5018
 7352TIP3    H143547   5.847   1.751  11.635 -0.3401 -0.4411 -2.4399
 7352TIP3    H243548   5.927   1.877  11.662 -1.8970 -0.0039  0.6267
 7353TIP3   OH243549   4.835   6.884   6.068 -0.7306  0.2161  0.5824
 7353TIP3    H143550   4.789   6.825   6.008  0.9484  0.5928 -1.1956
 7353TIP3    H243551   4.896   6.932   6.012 -0.0314  1.5993  2.4202
 7354TIP3   OH243552   1.147   2.109   2.235 -0.1953 -0.8675 -0.7809
 7354TIP3    H143553   1.124   2.132   2.325  2.6765 -0.1697 -0.1222
 7354TIP3    H243554   1.098   2.171   2.181 -2.2658 -1.5502  0.2182
 7355TIP3   OH243555   1.634   4.222  16.846  0.2220 -0.0645 -0.6210
 7355TIP3    H143556   1.622   4.129  16.827  0.0324 -0.1100 -0.2893
 7355TIP3    H243557   1.559   4.264  16.804  1.1900  0.1357 -2.2132
 7356TIP3   OH243558   0.180   2.878   3.662 -0.1538  0.3127  0.3093
 7356TIP3    H143559   0.248   2.938   3.631 -0.8564  1.0258  0.0977
 7356TIP3    H243560   0.203   2.860   3.753  0.5525  0.2024  0.1117
 7357TIP3   OH243561   4.728   0.019   0.433  0.1976 -0.3760 -0.0021
 7357TIP3    H143562   4.747   0.001   0.525  1.6637  1.6817  0.1637
 7357TIP3    H243563   4.718   0.114   0.429  1.1716 -0.3030 -2.1229
 7358TIP3   OH243564   0.643   5.059   2.825 -0.0527 -0.0006 -0.0035
 7358TIP3    H143565   0.589   5.136   2.837 -0.5217 -0.2649 -0.3525
 7358TIP3    H243566   0.708   5.085   2.760 -1.9932 -0.7114 -2.4143
 7359TIP3   OH243567   0.430   1.991  12.304  0.1737 -0.0771 -0.5331
 7359TIP3    H143568   0.401   1.950  12.221 -0.3443 -1.2041  0.1698
 7359TIP3    H243569   0.452   2.081  12.280 -0.4299 -0.2419 -1.8134
 7360TIP3   OH243570   4.897   5.323   3.423 -0.6530 -0.7247  0.4245
 7360TIP3    H143571   4.815   5.354   3.462 -0.4538 -1.1453  1.1997
 7360TIP3    H243572   4.964   5.346   3.487 -0.1237 -0.1356 -0.3307
 7361TIP3   OH243573   4.794   3.902  14.987  0.0656  0.4846 -0.3532
 7361TIP3    H143574   4.800   3.811  15.018  1.0003  0.2920 -1.0571
 7361TIP3    H243575   4.744   3.896  14.906  3.0594  0.0515 -2.3234
 7362TIP3   OH243576   5.415   6.482  14.345 -0.6913 -0.1032  0.2388
 7362TIP3    H143577   5.388   6.455  14.258 -0.1339  1.7358 -0.5396
 7362TIP3    H243578   5.487   6.422  14.367  1.3562  1.4001 -1.9529
 7363TIP3   OH243579   1.310   2.803   1.320  0.0931  0.4741  0.0636
 7363TIP3    H143580   1.270   2.890   1.317  1.0979  0.9937  1.1501
 7363TIP3    H243581   1.244   2.748   1.362 -0.7972  0.5411 -1.1870
 7364TIP3   OH243582   3.391   6.234  11.347  0.1407  0.6805  0.0794
 7364TIP3    H143583   3.372   6.141  11.359 -1.9794  1.1266  0.6898
 7364TIP3    H243584   3.315   6.267  11.300 -0.4303  2.5676  2.1588
 7365TIP3   OH243585   4.640   4.934   0.364 -0.4891 -0.1427  0.7976
 7365TIP3    H143586   4.552   4.912   0.333 -1.4660  0.7335  2.7660
 7365TIP3    H243587   4.643   5.030   0.360 -0.4086 -0.0309  2.6258
 7366TIP3   OH243588   1.181   2.101  15.155  0.2547 -0.2421 -0.0320
 7366TIP3    H143589   1.186   2.012  15.120 -0.1875 -0.5544  0.6738
 7366TIP3    H243590   1.087   2.117  15.166  0.2333  0.9007 -1.6055
 7367TIP3   OH243591   5.000   5.253  15.327 -0.3718  0.0787  0.5351
 7367TIP3    H143592   5.043   5.204  15.257 -1.4780 -1.7624  1.0792
 7367TIP3    H243593   4.907   5.230  15.318 -0.6934  0.8125  1.8206
 7368TIP3   OH243594   6.645   4.257  12.747  0.4988  0.0094 -0.7507
 7368TIP3    H143595   6.574   4.193  12.746  0.4207  0.0546  0.7492
 7368TIP3    H243596   6.605   4.338  12.716  0.7564 -0.7613 -3.3463
 7369TIP3   OH243597   0.963   5.437   4.079  0.1033 -0.0071  0.6049
 7369TIP3    H143598   0.998   5.504   4.137  1.0655 -0.8585  1.0270
 7369TIP3    H243599   0.903   5.387   4.133  0.0005  0.0055  0.5040
 7370TIP3   OH243600   5.328   4.343  12.299  0.3498  0.2993 -0.2410
 7370TIP3    H143601   5.389   4.374  12.232  0.5776 -1.0735 -0.6949
 7370TIP3    H243602   5.380   4.337  12.379  0.0497  2.0568  0.1369
 7371TIP3   OH243603   5.279   2.028   1.053 -0.3787 -0.5245  0.5601
 7371TIP3    H143604   5.362   1.983   1.069 -0.3923 -0.2697  1.3806
 7371TIP3    H243605   5.241   2.041   1.140 -0.3788  1.0747  0.3448
 7372TIP3   OH243606   5.219   0.091  11.924  0.4858  0.2095  0.4694
 7372TIP3    H143607   5.303   0.061  11.959  0.4203 -0.9604 -0.3047
 7372TIP3    H243608   5.153   0.044  11.975  0.3168  0.6759  0.6812
 7373TIP3   OH243609   2.108   4.631  11.549  0.1630  0.3735 -0.1326
 7373TIP3    H143610   2.171   4.560  11.563 -2.0493 -1.4319  1.4553
 7373TIP3    H243611   2.093   4.667  11.636 -1.8308 -0.0437 -0.2683
 7374TIP3   OH243612   5.077   5.438  11.674 -0.3120  0.3309 -0.0470
 7374TIP3    H143613   5.157   5.464  11.629  0.6640 -0.2662  1.2928
 7374TIP3    H243614   5.082   5.483  11.759 -1.3424  0.1853  0.1030
 7375TIP3   OH243615   2.553   3.551  11.858  0.2868  0.7498  0.2896
 7375TIP3    H143616   2.594   3.479  11.811 -1.0672 -0.3897  0.7852
 7375TIP3    H243617   2.625   3.594  11.905  1.5088  1.3412 -1.9996
 7376TIP3   OH243618   5.236   4.393   4.570 -0.9212  0.3900  0.0290
 7376TIP3    H143619   5.191   4.464   4.525  0.0266  0.8805 -0.1649
 7376TIP3    H243620   5.287   4.350   4.501  1.1898  1.6531  0.7224
 7377TIP3   OH243621   2.260   2.224   6.012  0.2849 -0.8448  0.1344
 7377TIP3    H143622   2.341   2.273   6.025  0.3298 -0.4166 -1.4762
 7377TIP3    H243623   2.192   2.279   6.051  0.4582  0.0906 -0.8177
 7378TIP3   OH243624   2.208   1.280  14.077  0.1694  0.3527  0.3304
 7378TIP3    H143625   2.139   1.258  14.014 -1.0813  1.1926  1.3568
 7378TIP3    H243626   2.289   1.274  14.026 -0.5552 -1.4048 -0.7285
 7379TIP3   OH243627   5.207   4.286  13.241  0.5097  0.2453 -0.1213
 7379TIP3    H143628   5.120   4.249  13.256  1.0236 -0.2071  2.0878
 7379TIP3    H243629   5.267   4.213  13.253  1.2269  0.4964 -1.8501
 7380TIP3   OH243630   6.118   4.152  12.361 -0.7041  0.2986  0.4770
 7380TIP3    H143631   6.157   4.115  12.440 -0.0392  2.4519  1.2172
 7380TIP3    H243632   6.187   4.207  12.324 -0.7299 -1.2633 -2.0869
 7381TIP3   OH243633   0.235   6.732  13.754 -0.1752 -0.6734  0.6326
 7381TIP3    H143634   0.232   6.648  13.709  1.2320 -1.7906  2.4887
 7381TIP3    H243635   0.147   6.744  13.789 -0.3211 -1.4934  0.5525
 7382TIP3   OH243636   1.061   1.447  12.499 -0.1715 -0.3830 -0.2877
 7382TIP3    H143637   1.144   1.406  12.521 -0.2611 -0.9363 -0.9501
 7382TIP3    H243638   1.021   1.468  12.583  1.4846  1.6723  0.0714
 7383TIP3   OH243639   5.393   0.165   3.283  0.5435 -0.2569 -0.0220
 7383TIP3    H143640   5.383   0.181   3.189 -1.0463  0.5165  0.2475
 7383TIP3    H243641   5.477   0.205   3.305  0.2090  0.9522 -0.8344
 7384TIP3   OH243642   0.445   1.307  11.182 -0.1225  0.1839 -0.4514
 7384TIP3    H143643   0.441   1.392  11.227 -0.3588 -0.3124  0.4933
 7384TIP3    H243644   0.362   1.301  11.135 -0.1544  0.4339 -0.4282
 7385TIP3   OH243645   6.238   4.011  16.439  0.5540 -0.1942  0.1874
 7385TIP3    H143646   6.332   4.013  16.455  0.3488  0.4331  1.4667
 7385TIP3    H243647   6.210   4.102  16.448 -0.0166 -0.1996 -1.3015
 7386TIP3   OH243648   4.179   5.862   3.643 -0.0634  0.2719  0.8563
 7386TIP3    H143649   4.159   5.795   3.709  0.3478  0.6605  1.3847
 7386TIP3    H243650   4.207   5.938   3.694  0.3887  0.5382  0.2246
 7387TIP3   OH243651   6.263   3.092  12.895 -0.2743 -0.3945  0.8819
 7387TIP3    H143652   6.202   3.153  12.854  0.4314 -1.0023 -1.2520
 7387TIP3    H243653   6.237   3.006  12.860  0.6564 -0.8886  1.3645
 7388TIP3   OH243654   2.240   1.336   2.930 -0.4064  0.3892  0.4621
 7388TIP3    H143655   2.192   1.279   2.870  1.6897 -1.7554  0.6425
 7388TIP3    H243656   2.225   1.298   3.017 -0.7650  1.4803  0.8899
 7389TIP3   OH243657   1.477   1.142   0.687  0.3209 -0.1699 -0.0497
 7389TIP3    H143658   1.491   1.056   0.647 -1.6347 -0.1973 -0.8097
 7389TIP3    H243659   1.384   1.142   0.711  0.2258  1.8163 -0.2661
 7390TIP3   OH243660   4.502   2.239   0.871 -0.6913 -0.1385 -0.2364
 7390TIP3    H143661   4.499   2.179   0.945  1.5005 -1.9735 -1.4638
 7390TIP3    H243662   4.566   2.305   0.896  0.6496 -1.2034 -0.6929
 7391TIP3   OH243663   3.623   3.303  10.651  0.0065  0.0441  0.3497
 7391TIP3    H143664   3.542   3.280  10.605  0.1717  0.8779 -0.3722
 7391TIP3    H243665   3.625   3.399  10.649  0.7131  0.0455  0.8922
 7392TIP3   OH243666   0.731   2.470   0.197  0.4662 -0.0678  0.2274
 7392TIP3    H143667   0.812   2.419   0.206 -0.2233 -1.2258 -0.0395
 7392TIP3    H243668   0.712   2.469   0.103 -0.1352 -0.2369  0.3469
 7393TIP3   OH243669   5.852   0.603   2.979  0.2799 -0.1871 -0.0704
 7393TIP3    H143670   5.859   0.626   2.886  0.0985 -0.0138 -0.0432
 7393TIP3    H243671   5.857   0.508   2.981  1.3187 -0.1526 -0.1661
 7394TIP3   OH243672   4.277   3.163  11.023 -0.0923  0.0881  0.1365
 7394TIP3    H143673   4.267   3.243  11.074  2.0791 -0.0485  0.8752
 7394TIP3    H243674   4.315   3.192  10.940  0.5338 -0.1565  0.3364
 7395TIP3   OH243675   6.651   3.826  15.849  0.5300  0.7568  0.3913
 7395TIP3    H143676   6.705   3.763  15.802 -0.9273 -1.0256  0.9791
 7395TIP3    H243677   6.629   3.893  15.785  2.8223  1.1631 -0.0275
 7396TIP3   OH243678   2.148   6.309   5.011 -0.1920 -0.1038  0.3073
 7396TIP3    H143679   2.095   6.287   4.935 -0.3985 -0.0068  0.4220
 7396TIP3    H243680   2.120   6.397   5.035 -0.3086 -0.2316  0.6485
 7397TIP3   OH243681   3.487   2.093  11.286  0.0861 -0.0963 -0.6089
 7397TIP3    H143682   3.538   2.023  11.246  2.5921  0.3701  1.4946
 7397TIP3    H243683   3.412   2.049  11.326  0.8735 -1.3989 -0.5293
 7398TIP3   OH243684   1.773   2.697  16.512 -0.0729 -0.0172 -0.5906
 7398TIP3    H143685   1.741   2.771  16.460  0.6409 -0.5393 -1.8326
 7398TIP3    H243686   1.699   2.638  16.518 -1.3441  1.6684  2.2543
 7399TIP3   OH243687   3.750   1.402  10.495  0.3852 -0.4020 -0.1309
 7399TIP3    H143688   3.833   1.422  10.539  0.9419 -0.1377 -1.2751
 7399TIP3    H243689   3.773   1.336  10.429 -0.4105 -0.6768 -0.1414
 7400TIP3   OH243690   3.602   3.093   0.823  0.2024 -0.0230  0.3683
 7400TIP3    H143691   3.574   3.165   0.879  0.4440 -0.9524  1.7365
 7400TIP3    H243692   3.646   3.136   0.749  2.5384  1.2528  2.3318
 7401TIP3   OH243693   5.135   4.402   3.708  0.0420 -0.2677 -0.0371
 7401TIP3    H143694   5.133   4.398   3.803 -0.1562 -0.5285 -0.0516
 7401TIP3    H243695   5.225   4.379   3.685  0.5566  1.4291  0.1520
 7402TIP3   OH243696   5.824   5.144  12.505 -0.1678  0.5293  0.4982
 7402TIP3    H143697   5.827   5.092  12.425  0.1446  0.7284  0.3782
 7402TIP3    H243698   5.769   5.219  12.483  0.7317  1.1098  0.1438
 7403TIP3   OH243699   5.693   3.882   6.486  0.4853  0.6218  0.1621
 7403TIP3    H143700   5.687   3.914   6.396 -1.7967  1.6708  0.6271
 7403TIP3    H243701   5.613   3.832   6.500  0.5592  0.8922  1.7719
 7404TIP3   OH243702   2.713   4.795  15.560 -0.0411 -0.6616 -0.4078
 7404TIP3    H143703   2.715   4.792  15.656  1.3535  1.5637 -0.2874
 7404TIP3    H243704   2.655   4.724  15.535 -1.0129 -0.8634  2.1210
 7405TIP3   OH243705   5.889   0.979   1.317  0.6960 -0.2276  0.2034
 7405TIP3    H143706   5.956   0.912   1.329 -1.7392 -2.5874  1.4660
 7405TIP3    H243707   5.824   0.962   1.385 -1.5824  1.4802 -1.3820
 7406TIP3   OH243708   5.810   2.554   0.821 -0.1025 -0.4218  0.6520
 7406TIP3    H143709   5.784   2.477   0.872 -2.5585 -0.0306  0.1189
 7406TIP3    H243710   5.729   2.585   0.781  0.6858  2.7144  1.1960
 7407TIP3   OH243711   4.081   4.085  13.221 -0.1905 -0.5467  0.2030
 7407TIP3    H143712   4.106   4.177  13.219 -2.3705  0.1044  0.3380
 7407TIP3    H243713   4.082   4.057  13.129 -0.5787 -0.0697  0.0528
 7408TIP3   OH243714   0.255   1.200  14.800  0.5552  0.2125  0.5784
 7408TIP3    H143715   0.242   1.143  14.876  0.9392 -0.9678 -0.2182
 7408TIP3    H243716   0.318   1.266  14.831  2.2115 -1.3835  0.7462
 7409TIP3   OH243717   2.138   2.159  10.798  1.0555  0.0282 -0.5514
 7409TIP3    H143718   2.171   2.077  10.835 -1.7025 -1.4689 -1.1229
 7409TIP3    H243719   2.161   2.225  10.863 -0.7678 -1.9657  2.3864
 7410TIP3   OH243720   4.765   5.652  12.143  0.6605  0.1166 -0.1246
 7410TIP3    H143721   4.696   5.585  12.137  0.7633 -0.0043  0.0363
 7410TIP3    H243722   4.846   5.603  12.148  0.7679  0.2629 -0.4131
 7411TIP3   OH243723   1.923   0.518   3.695 -0.5263 -0.2262 -0.2676
 7411TIP3    H143724   1.984   0.445   3.711 -1.3453 -0.7292  0.6064
 7411TIP3    H243725   1.891   0.503   3.606  1.7975  0.9369 -1.4053
 7412TIP3   OH243726   0.563   2.761   2.425  0.0646  0.0526  0.0552
 7412TIP3    H143727   0.480   2.712   2.419 -1.2014  2.1326 -0.2885
 7412TIP3    H243728   0.577   2.795   2.336  1.9526 -1.1975 -0.1943
 7413TIP3   OH243729   5.683   6.002  14.822  0.2137  0.0976  0.3393
 7413TIP3    H143730   5.755   6.045  14.868 -0.3615  1.0118  0.4103
 7413TIP3    H243731   5.612   5.998  14.887  0.2187 -0.8805  0.3009
 7414TIP3   OH243732   5.174   6.388   5.260  0.0176 -0.2251  0.1650
 7414TIP3    H143733   5.103   6.377   5.324 -0.2213  0.4946  0.0361
 7414TIP3    H243734   5.227   6.459   5.296 -0.9081  1.1726 -1.0935
 7415TIP3   OH243735   0.214   5.925   5.162 -0.0565  0.1706  0.1039
 7415TIP3    H143736   0.163   5.915   5.243 -0.3335 -3.0797 -0.3426
 7415TIP3    H243737   0.154   5.900   5.092  1.0880 -0.1687 -0.7911
 7416TIP3   OH243738   2.486   0.713  15.386 -0.3829  0.0977  0.3038
 7416TIP3    H143739   2.501   0.628  15.427 -1.5800  0.3398  1.2913
 7416TIP3    H243740   2.540   0.774  15.436  0.3695 -0.0334 -0.3186
 7417TIP3   OH243741   6.684   3.786   2.023  0.2228 -0.4407 -0.1911
 7417TIP3    H143742   6.735   3.805   1.944 -0.8800 -1.0545 -1.0916
 7417TIP3    H243743   6.624   3.860   2.031 -1.1255 -1.3832 -1.1981
 7418TIP3   OH243744   3.933   3.058  10.921  0.0480  0.3960  0.1153
 7418TIP3    H143745   3.933   3.125  10.989  0.3265 -0.3459  0.8592
 7418TIP3    H243746   3.904   2.978  10.965  0.4423 -0.1470 -0.5744
 7419TIP3   OH243747   5.991   0.702   5.477  0.2940 -0.3498 -0.1393
 7419TIP3    H143748   5.915   0.727   5.425 -0.0933 -0.4047  0.3945
 7419TIP3    H243749   5.959   0.699   5.567  0.8366 -0.7457  0.0459
 7420TIP3   OH243750   3.845   0.501   3.066 -0.2272 -0.4673  0.7025
 7420TIP3    H143751   3.774   0.447   3.033 -1.4229  0.4282  1.7202
 7420TIP3    H243752   3.922   0.444   3.061 -0.8666 -1.2549 -0.9704
 7421TIP3   OH243753   4.034   5.374   4.284 -0.2763  0.0913  0.0542
 7421TIP3    H143754   4.055   5.397   4.193 -0.1777  0.9462  0.2880
 7421TIP3    H243755   3.949   5.415   4.300 -0.4348 -0.3117  0.2558
 7422TIP3   OH243756   0.812   1.201  15.459  0.4074  0.7111 -0.1518
 7422TIP3    H143757   0.801   1.239  15.371 -0.2107 -0.1081 -0.4491
 7422TIP3    H243758   0.810   1.106  15.444 -1.9054  0.5106  0.9602
 7423TIP3   OH243759   6.037   2.683   0.803 -0.1977 -0.0254  0.0626
 7423TIP3    H143760   5.949   2.645   0.806 -0.9717  1.7706  1.5854
 7423TIP3    H243761   6.025   2.767   0.759  0.9825 -0.2419 -0.7140
 7424TIP3   OH243762   2.296   5.303  11.548 -0.1671  0.3218 -0.3288
 7424TIP3    H143763   2.209   5.336  11.525 -0.6400 -0.6125  0.0611
 7424TIP3    H243764   2.304   5.317  11.642  1.1823  2.8001 -0.7451
 7425TIP3   OH243765   3.372   4.916  14.751  0.4015  0.1364 -0.2662
 7425TIP3    H143766   3.315   4.929  14.827 -1.7256  1.9086 -2.0270
 7425TIP3    H243767   3.410   5.003  14.735  0.4966 -0.1085 -1.4558
 7426TIP3   OH243768   3.898   5.311   9.877 -0.5032  0.3470 -0.3075
 7426TIP3    H143769   3.976   5.316   9.822 -1.6458  0.4777 -2.0198
 7426TIP3    H243770   3.926   5.265   9.956  1.5874  1.5386 -0.2951
 7427TIP3   OH243771   2.643   0.373   0.216  0.1633  0.0745  0.5051
 7427TIP3    H143772   2.576   0.425   0.261 -1.2081  1.7893 -3.1037
 7427TIP3    H243773   2.683   0.435   0.155  2.1417 -1.9381 -0.3657
 7428TIP3   OH243774   1.707   3.802  16.058  0.2170 -0.2879  0.3605
 7428TIP3    H143775   1.688   3.709  16.073 -0.8638 -0.1452 -0.0242
 7428TIP3    H243776   1.621   3.843  16.050  0.6842  0.7265  0.3691
 7429TIP3   OH243777   0.685   3.466   1.828 -0.1372  0.0948  0.7246
 7429TIP3    H143778   0.725   3.396   1.777 -2.2517 -1.1459  0.6435
 7429TIP3    H243779   0.699   3.545   1.777 -1.8760 -1.0381 -1.7043
 7430TIP3   OH243780   5.371   1.000  16.353 -0.7819  0.5260  0.4198
 7430TIP3    H143781   5.364   0.975  16.446  0.3649  0.9757  0.6419
 7430TIP3    H243782   5.433   0.937  16.316 -1.3422  0.2606 -0.0909
 7431TIP3   OH243783   5.688   5.915  12.074 -0.6062 -0.0969  0.0926
 7431TIP3    H143784   5.727   5.830  12.096 -1.6979 -0.7967 -0.5817
 7431TIP3    H243785   5.705   5.926  11.981 -0.3669  0.4924  0.2004
 7432TIP3   OH243786   5.318   1.235  13.261  0.1029 -0.2008 -0.4688
 7432TIP3    H143787   5.329   1.177  13.186  1.3718  0.3947 -0.7556
 7432TIP3    H243788   5.368   1.313  13.239  0.6254 -0.0707  1.0563
 7433TIP3   OH243789   2.373   2.086  13.785 -0.3187  0.6451  0.3176
 7433TIP3    H143790   2.327   2.094  13.701  0.6351 -0.7867 -0.3728
 7433TIP3    H243791   2.355   2.169  13.830 -2.8974  0.4947 -0.2422
 7434TIP3   OH243792   2.787   2.460   6.491  0.2769  0.6290  0.5423
 7434TIP3    H143793   2.844   2.415   6.429  0.0592 -0.5359  1.1622
 7434TIP3    H243794   2.844   2.523   6.536  1.3909 -1.2565  1.9206
 7435TIP3   OH243795   1.674   2.070  13.957 -0.3374  0.5188 -0.1214
 7435TIP3    H143796   1.712   2.061  13.870  0.2535  2.3344 -0.1092
 7435TIP3    H243797   1.608   2.001  13.963  0.1536 -0.1168 -1.7011
 7436TIP3   OH243798   4.947   1.490   2.888  0.5089 -0.4320  0.0662
 7436TIP3    H143799   4.964   1.522   2.977  0.5268 -1.9239  0.6324
 7436TIP3    H243800   4.973   1.562   2.831  1.6189  0.1187  1.2217
 7437TIP3   OH243801   4.833   2.208  10.775  0.3345  0.1983 -0.0697
 7437TIP3    H143802   4.748   2.247  10.758 -0.0140 -1.1642 -1.7191
 7437TIP3    H243803   4.820   2.114  10.760  2.1161 -0.0348 -0.3421
 7438TIP3   OH243804   2.371   4.942  14.084 -0.0610 -0.3993  0.0384
 7438TIP3    H143805   2.463   4.923  14.069 -0.1776 -1.4899  0.5972
 7438TIP3    H243806   2.330   4.937  13.998  0.4249  0.3297 -0.2468
 7439TIP3   OH243807   1.374   4.136   1.508 -0.2484  0.5875  0.1041
 7439TIP3    H143808   1.379   4.044   1.481 -0.4573 -0.1538  2.3976
 7439TIP3    H243809   1.428   4.182   1.444 -0.5923 -1.0246 -1.4442
 7440TIP3   OH243810   4.028   3.101   2.036  0.5287  0.1145 -0.5468
 7440TIP3    H143811   3.988   3.183   2.006 -0.6206  0.2471  1.1861
 7440TIP3    H243812   4.119   3.107   2.008  0.9379  2.8156  1.0176
 7441TIP3   OH243813   5.934   5.404   5.431  0.4638  0.0821 -0.4230
 7441TIP3    H143814   5.872   5.331   5.426 -1.5061  1.6810 -0.7097
 7441TIP3    H243815   5.927   5.435   5.522 -0.1334  1.0696 -0.7998
 7442TIP3   OH243816   0.391   3.532   1.098  0.3929 -0.1959  0.2227
 7442TIP3    H143817   0.391   3.608   1.157  3.3187 -0.8575  1.2691
 7442TIP3    H243818   0.483   3.522   1.073 -0.1001 -2.6691 -0.8672
 7443TIP3   OH243819   6.164   2.494   3.348 -0.4704 -0.0563  0.3719
 7443TIP3    H143820   6.078   2.481   3.388  0.4280 -2.4148  1.7474
 7443TIP3    H243821   6.173   2.421   3.286  1.4886 -1.3819  2.1040
 7444TIP3   OH243822   3.305   2.531  16.017 -0.3404 -0.7784 -0.0837
 7444TIP3    H143823   3.298   2.622  16.048  0.6208 -0.0246 -1.8972
 7444TIP3    H243824   3.341   2.483  16.091  1.5865  0.8547  0.1302
 7445TIP3   OH243825   6.748   2.649  12.585  0.4920  0.1962 -0.1341
 7445TIP3    H143826   6.791   2.735  12.576  0.7030  0.0682 -0.3639
 7445TIP3    H243827   6.778   2.617  12.670 -0.3871  0.7903  0.4070
 7446TIP3   OH243828   2.806   5.096  16.810  0.2863 -0.0581  0.4249
 7446TIP3    H143829   2.838   5.091  16.720 -0.0047  0.7104  0.2677
 7446TIP3    H243830   2.885   5.095  16.864  0.6080  1.6293  0.0487
 7447TIP3   OH243831   5.891   2.167  14.651  0.0509 -0.0971  0.2653
 7447TIP3    H143832   5.826   2.098  14.665  1.9411 -1.7937  1.3182
 7447TIP3    H243833   5.950   2.159  14.726  1.2301  1.6493 -0.4229
 7448TIP3   OH243834   3.850   3.495  12.706 -0.0883 -0.1214  0.1437
 7448TIP3    H143835   3.779   3.519  12.646 -0.1724  0.9600  0.6459
 7448TIP3    H243836   3.823   3.532  12.790  0.0604 -1.5530  0.8467
 7449TIP3   OH243837   0.911   1.174   2.604  0.2990  0.7779  0.0376
 7449TIP3    H143838   0.984   1.113   2.610  0.5011  0.9894 -0.2426
 7449TIP3    H243839   0.911   1.203   2.512 -2.2254 -1.8165 -0.9618
 7450TIP3   OH243840   6.389   2.292   0.331 -0.9070  0.2340 -0.0094
 7450TIP3    H143841   6.308   2.330   0.298 -2.4756  0.2327  3.3630
 7450TIP3    H243842   6.362   2.208   0.369  0.7385  0.0369  0.8242
 7451TIP3   OH243843   0.025   2.972  10.763  0.5204 -0.3202 -0.9069
 7451TIP3    H143844   0.031   3.026  10.841  0.8393 -0.6038 -0.7334
 7451TIP3    H243845   0.011   3.034  10.692 -2.3205 -0.1987 -0.3680
 7452TIP3   OH243846   1.076   2.627  12.392 -0.0861 -0.5523  0.0754
 7452TIP3    H143847   1.016   2.686  12.439  0.0215 -0.9309  0.6877
 7452TIP3    H243848   1.038   2.540  12.403 -0.9235 -0.4923 -1.8647
 7453TIP3   OH243849   3.552   1.031  15.434 -0.4665  0.3376  0.2998
 7453TIP3    H143850   3.577   1.124  15.436 -2.4515  0.9115  0.4266
 7453TIP3    H243851   3.540   1.008  15.526  1.8402 -0.6251  0.4169
 7454TIP3   OH243852   1.680   4.322   2.703  0.3465 -0.5147 -0.4235
 7454TIP3    H143853   1.674   4.264   2.779  0.4272  1.0827  0.8365
 7454TIP3    H243854   1.601   4.302   2.652  0.3831 -1.7359 -0.0442
 7455TIP3   OH243855   3.889   0.880  12.359  0.2078  0.2180  0.4353
 7455TIP3    H143856   3.910   0.860  12.268  0.0418  0.8214  0.2584
 7455TIP3    H243857   3.868   0.795  12.398  1.3437 -0.1896  0.2017
 7456TIP3   OH243858   0.579   1.613   0.118 -0.0942 -0.5331 -0.1423
 7456TIP3    H143859   0.500   1.560   0.127 -0.8166  0.6055  0.4934
 7456TIP3    H243860   0.601   1.639   0.207  0.6518 -0.3385 -0.3777
 7457TIP3   OH243861   0.263   0.938  12.405 -0.4072 -0.3465  0.1744
 7457TIP3    H143862   0.291   0.904  12.320  3.1239  0.1595  0.9567
 7457TIP3    H243863   0.207   0.869  12.441  1.9975 -2.8883 -0.5798
 7458TIP3   OH243864   4.492   3.566  13.425  0.5060  0.3225 -0.5938
 7458TIP3    H143865   4.515   3.584  13.334  0.6230 -1.4353 -0.9416
 7458TIP3    H243866   4.498   3.471  13.433 -0.0058  0.4034  1.1219
 7459TIP3   OH243867   5.355   0.651   0.653  0.4093 -0.3370  0.1303
 7459TIP3    H143868   5.417   0.719   0.681  1.2009 -1.2459  0.6570
 7459TIP3    H243869   5.404   0.569   0.660  0.0030 -0.8378 -2.0358
 7460TIP3   OH243870   4.218   0.469   5.497  0.0237 -0.4747 -0.3437
 7460TIP3    H143871   4.250   0.531   5.563 -1.9280  0.2736 -0.0268
 7460TIP3    H243872   4.293   0.414   5.477  1.0398  0.1772  1.4824
 7461TIP3   OH243873   1.985   2.450   0.920 -0.3706  0.1000  0.0283
 7461TIP3    H143874   1.911   2.451   0.981 -0.6672 -0.8844 -0.3071
 7461TIP3    H243875   2.058   2.415   0.972 -0.6712 -0.9251 -0.2159
 7462TIP3   OH243876   0.645   1.002   5.683  0.4033 -0.3133  0.4070
 7462TIP3    H143877   0.715   1.042   5.631 -0.8940  1.5593 -0.0141
 7462TIP3    H243878   0.618   0.925   5.632  0.9484 -0.0310 -0.3287
 7463TIP3   OH243879   5.381   2.957  12.618 -0.5512 -0.1385 -0.3269
 7463TIP3    H143880   5.325   2.886  12.588 -0.1768 -1.5826  2.1727
 7463TIP3    H243881   5.471   2.927  12.600 -0.3685 -0.5889  1.2081
 7464TIP3   OH243882   2.406   4.103  13.058 -0.3923 -0.0704  0.2468
 7464TIP3    H143883   2.425   4.028  13.115 -1.4777 -0.1894  0.4870
 7464TIP3    H243884   2.310   4.111  13.061 -0.2328  2.3094  1.4924
 7465TIP3   OH243885   3.044   0.741   0.924 -0.0501  0.0993 -0.0718
 7465TIP3    H143886   3.139   0.730   0.922 -0.1674 -0.9192 -0.4083
 7465TIP3    H243887   3.011   0.680   0.858 -1.0117 -0.3981  0.8415
 7466TIP3   OH243888   1.474   5.440   3.806 -0.1340 -0.6418  0.0236
 7466TIP3    H143889   1.412   5.424   3.877  0.3186 -0.3595  0.4894
 7466TIP3    H243890   1.552   5.390   3.831 -0.3506 -1.4322 -0.8261
 7467TIP3   OH243891   1.584   3.683   0.651 -0.0241  0.0208 -0.1735
 7467TIP3    H143892   1.613   3.718   0.566  0.1269 -2.1475 -1.0738
 7467TIP3    H243893   1.510   3.738   0.675  1.0852  1.8803 -0.7615
 7468TIP3   OH243894   6.113   4.723  15.521  0.1536 -0.0798 -0.6027
 7468TIP3    H143895   6.050   4.676  15.467  0.2272  1.6419 -2.2531
 7468TIP3    H243896   6.198   4.697  15.487  0.2317  0.2432 -0.6579
 7469TIP3   OH243897   4.737   2.266  11.513 -0.1246 -0.3953  0.1089
 7469TIP3    H143898   4.650   2.280  11.551  0.5663  0.2434  1.5484
 7469TIP3    H243899   4.735   2.177  11.479 -0.6702 -1.1693  2.0647
 7470TIP3   OH243900   0.588   6.171  12.802  0.3127 -0.5344  0.3041
 7470TIP3    H143901   0.579   6.084  12.842 -0.3380 -0.7099 -0.2115
 7470TIP3    H243902   0.649   6.217  12.859  0.4057 -1.2212  0.7702
 7471TIP3   OH243903   4.538   5.162   0.042 -0.2798 -0.2875 -0.5788
 7471TIP3    H143904   4.458   5.116   0.014 -1.3414  0.4004  1.1637
 7471TIP3    H243905   4.609   5.109   0.007 -1.4884 -1.4699 -1.3601
 7472TIP3   OH243906   5.630   5.042   0.494  0.3703  0.4220 -0.1603
 7472TIP3    H143907   5.565   4.974   0.475 -0.9429  1.0768  1.7052
 7472TIP3    H243908   5.683   5.005   0.565  2.0261 -0.0414 -1.5546
 7473TIP3   OH243909   3.352   1.667   1.500 -0.3134 -0.3875  0.6007
 7473TIP3    H143910   3.322   1.668   1.591 -0.5328 -1.3070  0.5491
 7473TIP3    H243911   3.443   1.636   1.505 -0.7393 -1.7611  0.4224
 7474TIP3   OH243912   5.015   0.659  12.403  0.5454 -0.1869  0.1504
 7474TIP3    H143913   4.972   0.597  12.344  3.0270  0.5322 -2.6474
 7474TIP3    H243914   5.072   0.605  12.457 -0.0033 -0.6589  0.2662
 7475TIP3   OH243915   0.458   1.691   4.732 -0.4936  0.1012 -0.9848
 7475TIP3    H143916   0.448   1.744   4.653 -0.8474  2.4253  0.5409
 7475TIP3    H243917   0.495   1.750   4.797  2.2691 -2.3991 -0.0507
 7476TIP3   OH243918   1.533   1.265  10.791 -0.0195  0.4167 -0.7872
 7476TIP3    H143919   1.451   1.303  10.821  0.9546  1.2036  1.0414
 7476TIP3    H243920   1.599   1.297  10.853  1.7613  0.1831 -2.4437
 7477TIP3   OH243921   3.832   4.980   6.063 -0.6356  0.0452  0.3312
 7477TIP3    H143922   3.750   4.935   6.041 -0.7261  0.9886 -1.4714
 7477TIP3    H243923   3.890   4.910   6.091 -2.1631 -0.6010  2.1081
 7478TIP3   OH243924   5.963   0.995   3.113  0.1227 -0.3961 -0.0270
 7478TIP3    H143925   5.888   1.033   3.159 -0.1689 -1.5639  0.5068
 7478TIP3    H243926   5.931   0.979   3.024 -0.1831 -0.6329  0.1232
 7479TIP3   OH243927   1.466   0.933   3.463 -0.2294 -0.2676  0.5760
 7479TIP3    H143928   1.503   0.867   3.405 -1.0644  0.4758 -0.8328
 7479TIP3    H243929   1.512   0.919   3.546  1.7899 -0.6382 -0.5385
 7480TIP3   OH243930   1.767   2.292  13.149  0.0204 -0.1814  0.2639
 7480TIP3    H143931   1.787   2.207  13.111  2.9139  0.6174 -0.3178
 7480TIP3    H243932   1.788   2.355  13.080  0.4428  1.0922  1.4814
 7481TIP3   OH243933   4.378   4.641   0.715 -0.0565 -0.4848 -0.4002
 7481TIP3    H143934   4.431   4.716   0.742  0.0071  0.1080 -2.0410
 7481TIP3    H243935   4.324   4.675   0.643 -0.5013 -1.8460 -0.7399
 7482TIP3   OH243936   5.396   4.574   3.123 -0.3931  0.4789 -0.0493
 7482TIP3    H143937   5.373   4.643   3.060 -3.3824 -1.0175 -0.7717
 7482TIP3    H243938   5.364   4.607   3.207  0.9533  1.1997  0.2223
 7483TIP3   OH243939   5.453   6.762  14.460  0.5249  0.1503  0.5934
 7483TIP3    H143940   5.414   6.675  14.470  0.4652  0.3045  1.9163
 7483TIP3    H243941   5.497   6.759  14.375  1.0338 -1.3819  0.8722
 7484TIP3   OH243942   0.911   0.515  16.747 -0.2041 -0.7229 -0.3338
 7484TIP3    H143943   0.974   0.465  16.799  1.0203  2.0629  1.0787
 7484TIP3    H243944   0.924   0.485  16.657 -0.6982 -3.9912  0.5827
 7485TIP3   OH243945   1.125   2.495   1.967 -0.2884  0.2164 -0.1455
 7485TIP3    H143946   1.215   2.507   1.935 -0.0501  0.8964  0.7229
 7485TIP3    H243947   1.072   2.494   1.888  0.4986 -0.3794 -0.6871
 7486TIP3   OH243948   0.069   4.476  13.208 -0.1237  0.0736 -0.0614
 7486TIP3    H143949   0.039   4.566  13.220  0.9088  0.8832 -2.7019
 7486TIP3    H243950  -0.005   4.431  13.168  0.1556  0.4912 -1.1019
 7487TIP3   OH243951   2.466   3.752  11.244 -0.1732 -0.6914  0.6321
 7487TIP3    H143952   2.381   3.708  11.233 -1.6796  1.0523  3.9280
 7487TIP3    H243953   2.506   3.707  11.318  0.3008  0.5409  1.1391
 7488TIP3   OH243954   4.959   0.562  13.869 -0.1978 -0.1958 -0.3367
 7488TIP3    H143955   5.016   0.637  13.853  1.9638 -1.4376  1.0638
 7488TIP3    H243956   4.981   0.499  13.801 -1.3631  0.0198 -0.9573
 7489TIP3   OH243957   0.330   0.795  16.211  0.2449  0.2853  0.8944
 7489TIP3    H143958   0.286   0.786  16.296  0.4065  1.4090  1.1121
 7489TIP3    H243959   0.270   0.847  16.158  0.5801  0.4382  0.6588
 7490TIP3   OH243960   1.601   2.351   1.938  0.0573  0.2301  0.2526
 7490TIP3    H143961   1.636   2.419   1.880 -0.7825  1.3516  1.0090
 7490TIP3    H243962   1.641   2.371   2.023 -1.4353  0.8115  0.8599
 7491TIP3   OH243963   4.181   6.285   0.420  0.5776 -0.3329 -0.3808
 7491TIP3    H143964   4.220   6.370   0.440  0.8996 -0.5517 -0.0557
 7491TIP3    H243965   4.189   6.276   0.325  1.9289 -0.6585 -0.2532
 7492TIP3   OH243966   6.758   4.448  14.446 -0.0317  0.3161  0.5275
 7492TIP3    H143967   6.681   4.491  14.483 -0.0723  0.9006 -0.2064
 7492TIP3    H243968   6.829   4.511  14.459 -0.2097  0.8956 -1.0837
 7493TIP3   OH243969   2.232   0.250  13.077  0.3725 -0.3290  0.2539
 7493TIP3    H143970   2.320   0.230  13.107  0.7960  0.4837 -0.4390
 7493TIP3    H243971   2.236   0.241  12.982 -1.2679 -4.2164  0.3612
 7494TIP3   OH243972   5.884   3.803   1.231  0.3755 -0.2954 -0.2381
 7494TIP3    H143973   5.931   3.721   1.245  0.2905 -0.4932 -1.0602
 7494TIP3    H243974   5.919   3.862   1.298  0.1628 -1.1046  0.6105
 7495TIP3   OH243975   0.112   5.461  11.452  0.3111  0.0857  0.9915
 7495TIP3    H143976   0.083   5.546  11.417 -0.0068 -0.5221 -0.2770
 7495TIP3    H243977   0.190   5.482  11.503  0.7353  1.0404 -0.0069
 7496TIP3   OH243978   6.642   0.830  11.059 -0.3488 -0.3152  0.2912
 7496TIP3    H143979   6.590   0.824  10.979  0.7565  1.6674 -0.6405
 7496TIP3    H243980   6.709   0.896  11.040 -0.6173  0.9493  3.1527
 7497TIP3   OH243981   4.649   4.655   5.682  0.2571  0.2596  0.0115
 7497TIP3    H143982   4.739   4.684   5.692 -0.5028  2.2844  2.0770
 7497TIP3    H243983   4.632   4.601   5.759 -0.4960  0.5562  0.0716
 7498TIP3   OH243984   3.240   1.562  13.719  0.3103 -0.7159 -0.5875
 7498TIP3    H143985   3.202   1.581  13.805 -2.1961  0.5384 -1.8797
 7498TIP3    H243986   3.284   1.643  13.694 -1.2741 -0.1347 -1.5892
 7499TIP3   OH243987   3.771   3.952  11.352 -0.0553  0.4878  0.0076
 7499TIP3    H143988   3.678   3.975  11.346 -0.4100 -0.4268  1.4799
 7499TIP3    H243989   3.792   3.962  11.445  1.8345  2.4567 -0.5443
 7500TIP3   OH243990   3.770   3.563   6.193 -0.1659  0.0110  0.1927
 7500TIP3    H143991   3.753   3.641   6.141 -2.3321 -0.6670 -0.2178
 7500TIP3    H243992   3.697   3.504   6.173  0.8163 -1.6848  1.3266
 7501TIP3   OH243993   5.868   0.023  15.637  0.1474 -0.4225 -0.6502
 7501TIP3    H143994   5.798  -0.041  15.623 -1.9193  1.7861 -1.0064
 7501TIP3    H243995   5.870   0.075  15.557  2.2457 -0.3977 -0.6517
 7502TIP3   OH243996   0.783   4.712  16.000  0.1525 -0.3213 -0.2436
 7502TIP3    H143997   0.777   4.752  16.087  0.8304 -0.0206 -0.3341
 7502TIP3    H243998   0.708   4.749  15.953 -0.6885 -1.0967  0.4483
 7503TIP3   OH243999   1.414   5.330  13.083 -0.1057 -0.4016 -0.4167
 7503TIP3    H144000   1.394   5.386  13.008 -0.2714 -2.0467 -1.6597
 7503TIP3    H244001   1.479   5.379  13.133 -1.3173  1.5204 -0.6342
 7504TIP3   OH244002   5.813   5.451  12.454  0.5026 -0.0107 -0.3470
 7504TIP3    H144003   5.780   5.541  12.466  1.5250  0.3418 -0.0682
 7504TIP3    H244004   5.891   5.462  12.399 -0.0738 -0.8696 -1.3499
 7505TIP3   OH244005   3.203   2.482  11.441  0.0005  0.4922  0.4386
 7505TIP3    H144006   3.291   2.444  11.448 -1.0329 -2.1997  0.0342
 7505TIP3    H244007   3.161   2.432  11.371 -2.0965  1.2093  1.1126
 7506TIP3   OH244008   2.041   3.102   5.557  0.1900 -0.4909 -0.0857
 7506TIP3    H144009   2.110   3.139   5.612  0.1374 -1.7304  0.8548
 7506TIP3    H244010   1.992   3.178   5.525  0.9406  0.3111  0.6328
 7507TIP3   OH244011   1.218   2.952   4.085  0.1425  0.4563 -0.1703
 7507TIP3    H144012   1.229   3.047   4.088  0.2709  0.4298  0.2576
 7507TIP3    H244013   1.126   2.937   4.108  0.1928  0.4617  0.0346
 7508TIP3   OH244014   0.059   3.659   0.885 -0.3868 -0.2294  0.0346
 7508TIP3    H144015   0.131   3.699   0.934  0.1688 -1.4067  0.2053
 7508TIP3    H244016   0.033   3.727   0.822  1.0613  0.1276 -0.2222
 7509TIP3   OH244017   3.241   6.022   4.833 -0.7465  0.0453 -0.0220
 7509TIP3    H144018   3.304   5.957   4.802 -0.6234  0.8890 -1.6922
 7509TIP3    H244019   3.190   6.043   4.755 -0.3680  2.3906  0.3092
 7510TIP3   OH244020   2.818   6.408  10.423  0.1136  0.0381 -0.2946
 7510TIP3    H144021   2.839   6.372  10.509 -1.6577  0.0910  0.1978
 7510TIP3    H244022   2.887   6.471  10.407  1.4098 -1.1579  0.3242
 7511TIP3   OH244023   1.420   5.627   5.485 -0.0986  0.3281 -0.2104
 7511TIP3    H144024   1.404   5.674   5.566  1.0094  0.3696 -0.0136
 7511TIP3    H244025   1.386   5.539   5.502 -1.4095  0.7932 -0.2980
 7512TIP3   OH244026   1.985   0.605   1.374 -0.2443 -0.4678  0.1602
 7512TIP3    H144027   1.969   0.513   1.352  0.5026 -0.6190  0.2328
 7512TIP3    H244028   1.965   0.611   1.467  1.2286 -0.9264  0.5243
 7513TIP3   OH244029   4.630   6.205   5.504  0.0583  0.4965 -0.4761
 7513TIP3    H144030   4.594   6.117   5.496  0.7286  0.3785 -3.2126
 7513TIP3    H244031   4.723   6.192   5.523 -0.1436  0.6816  0.7164
 7514TIP3   OH244032   2.957   1.373  16.164  0.7230 -0.0903 -0.7954
 7514TIP3    H144033   2.890   1.317  16.124 -0.5172  0.7445  0.0359
 7514TIP3    H244034   2.915   1.408  16.242  1.9584  0.9135 -0.5560
 7515TIP3   OH244035   5.915   2.089  14.276  0.5828  0.0782 -0.3088
 7515TIP3    H144036   5.991   2.132  14.313  0.0416  0.9265 -0.1684
 7515TIP3    H244037   5.915   2.001  14.315  1.9791 -0.2549 -0.9928
 7516TIP3   OH244038   0.775   1.079  13.620 -0.7514  0.0762 -0.3944
 7516TIP3    H144039   0.742   1.127  13.696 -0.7744 -1.1503  0.3966
 7516TIP3    H244040   0.824   1.006  13.657  0.6094  0.3407 -1.5549
 7517TIP3   OH244041   2.853   3.339  14.407 -0.0737  0.6773  0.4825
 7517TIP3    H144042   2.871   3.410  14.468 -2.4512  0.2163  1.8299
 7517TIP3    H244043   2.808   3.382  14.333  0.9840  0.9336 -0.0347
 7518TIP3   OH244044   1.978   4.351   1.745 -0.3208  0.0408 -0.6867
 7518TIP3    H144045   1.982   4.309   1.831  0.2568  0.6014 -0.4262
 7518TIP3    H244046   2.024   4.434   1.758  0.2024 -0.0875 -1.6596
 7519TIP3   OH244047   5.168   6.051   4.176  0.0697  0.7239 -0.1865
 7519TIP3    H144048   5.117   5.991   4.231  1.2096  1.3496  1.6526
 7519TIP3    H244049   5.111   6.070   4.102 -1.0386 -1.1781  0.1115
 7520TIP3   OH244050   1.712   4.705   3.023  0.3825 -0.5112  0.6882
 7520TIP3    H144051   1.791   4.725   2.973  0.0826  3.7805  1.4813
 7520TIP3    H244052   1.644   4.695   2.956  0.9774 -0.7344  0.1009
 7521TIP3   OH244053   0.510   0.586   0.486  0.2240  0.5840 -0.2775
 7521TIP3    H144054   0.563   0.506   0.489  0.1673  0.5163 -0.8837
 7521TIP3    H244055   0.575   0.656   0.476  0.2573  0.5935 -0.0087
 7522TIP3   OH244056   1.760   6.252  12.369 -1.0418  0.7800  0.3021
 7522TIP3    H144057   1.765   6.223  12.460 -0.2565  1.8651  0.6265
 7522TIP3    H244058   1.711   6.334  12.373 -0.9162  0.8897 -0.2444
 7523TIP3   OH244059   0.936   5.308  14.422 -0.0256  0.5265  0.7101
 7523TIP3    H144060   0.930   5.379  14.359  0.3171 -0.8135 -0.8951
 7523TIP3    H244061   1.029   5.283  14.421 -0.0541  0.3324  1.5991
 7524TIP3   OH244062   4.824   4.850   0.710 -0.7697 -0.6529 -0.2612
 7524TIP3    H144063   4.897   4.871   0.767 -0.2305 -0.3662 -1.0338
 7524TIP3    H244064   4.748   4.842   0.768 -0.2011 -0.5417  0.4945
 7525TIP3   OH244065   3.611   0.858  10.879  0.2177 -0.0635 -0.5627
 7525TIP3    H144066   3.608   0.882  10.972  3.4786 -1.8096  0.1297
 7525TIP3    H244067   3.531   0.807  10.865 -0.6623  0.7616  1.0676
 7526TIP3   OH244068   4.973   6.777   2.903  0.1683  0.5219  0.1777
 7526TIP3    H144069   4.895   6.827   2.876 -0.2601  0.8519  1.8999
 7526TIP3    H244070   4.997   6.815   2.987  2.2868  0.4807 -0.3657
 7527TIP3   OH244071   4.015   4.244  16.699  0.2782 -0.0903 -0.4203
 7527TIP3    H144072   4.098   4.278  16.733 -0.2720  1.7959 -0.8967
 7527TIP3    H244073   4.029   4.149  16.694  2.5773  0.2244 -0.9597
 7528TIP3   OH244074   4.326   4.034   3.460  0.4458  0.1712 -0.0753
 7528TIP3    H144075   4.269   4.037   3.383 -1.2353 -0.8004  1.0782
 7528TIP3    H244076   4.276   4.078   3.529  2.0409  1.2698  0.4330
 7529TIP3   OH244077   4.122   2.477  12.730  0.0538 -0.0068  0.2145
 7529TIP3    H144078   4.142   2.476  12.823  0.9051 -1.6221  0.0687
 7529TIP3    H244079   4.163   2.557  12.697  1.2213 -0.2621  0.9694
 7530TIP3   OH244080   0.103   1.938  14.660 -0.3138 -0.3131  0.3708
 7530TIP3    H144081   0.156   2.018  14.664  2.0343 -1.4603 -3.0857
 7530TIP3    H244082   0.121   1.893  14.743  2.5168  0.3850  0.2438
 7531TIP3   OH244083   3.759   1.606   3.852 -0.2943 -0.5350  0.1825
 7531TIP3    H144084   3.841   1.579   3.812 -1.3690 -1.0540 -1.8079
 7531TIP3    H244085   3.730   1.530   3.902 -0.6067 -1.1472 -0.8995
 7532TIP3   OH244086   5.674   1.259   2.759  0.1419  0.3112 -0.3512
 7532TIP3    H144087   5.756   1.241   2.713  0.1517 -0.5005 -0.0366
 7532TIP3    H244088   5.624   1.313   2.698 -0.2488 -1.5337 -1.7592
 7533TIP3   OH244089   5.107   2.947   3.340 -0.4646  0.4769 -0.1801
 7533TIP3    H144090   5.042   2.999   3.293  1.8468  2.2156 -1.6893
 7533TIP3    H244091   5.176   3.009   3.361  1.8150 -1.6956 -0.8216
 7534TIP3   OH244092   3.978   2.462   6.292 -0.1096  0.6419 -0.1528
 7534TIP3    H144093   3.941   2.456   6.380  0.5260 -1.0768  0.0357
 7534TIP3    H244094   3.919   2.411   6.237 -0.0189  0.9747 -0.5646
 7535TIP3   OH244095   1.649   0.218  10.251  0.1115 -0.0203 -0.5741
 7535TIP3    H144096   1.687   0.196  10.336  0.1414 -0.4699 -0.7030
 7535TIP3    H244097   1.648   0.313  10.250  0.4336 -0.0078 -0.2122
 7536TIP3   OH244098   0.457   6.880  14.685 -0.0332 -0.4671 -0.4490
 7536TIP3    H144099   0.370   6.840  14.691 -0.1775 -0.0790  0.2368
 7536TIP3    H244100   0.516   6.807  14.665 -0.6491 -0.5605 -2.0187
 7537TIP3   OH244101   3.184   0.136  15.173  0.0193  0.6183 -0.0956
 7537TIP3    H144102   3.211   0.218  15.214  2.6429  0.4017 -1.1814
 7537TIP3    H244103   3.091   0.148  15.154  0.7249  4.3094 -2.2141
 7538TIP3   OH244104   2.322   5.902  16.117  0.2181  0.3722  0.4952
 7538TIP3    H144105   2.233   5.869  16.134  0.0514  0.2141 -0.6265
 7538TIP3    H244106   2.309   5.982  16.067  0.6846  1.1434  1.5673
 7539TIP3   OH244107   6.259   2.916  14.043  0.0453 -0.4559 -0.2993
 7539TIP3    H144108   6.316   2.841  14.060  1.3534  0.3575 -0.9511
 7539TIP3    H244109   6.311   2.992  14.070 -1.1842  0.2374  0.1711
 7540TIP3   OH244110   4.007   4.377   2.008 -0.2311 -0.0002  0.4329
 7540TIP3    H144111   3.985   4.328   2.087  3.5318 -1.7217  0.6678
 7540TIP3    H244112   4.031   4.464   2.040 -3.3585  0.9679  0.4586
 7541TIP3   OH244113   4.451   4.114  16.172 -0.3869 -0.1172  0.2703
 7541TIP3    H144114   4.380   4.177  16.155  0.6600  0.6137 -1.6861
 7541TIP3    H244115   4.407   4.040  16.214 -2.1197  0.7896  0.1719
 7542TIP3   OH244116   2.517   1.821  16.027 -0.0411  0.0211  0.6426
 7542TIP3    H144117   2.423   1.842  16.027  0.0092  0.4926 -1.3456
 7542TIP3    H244118   2.547   1.849  15.941  1.8355 -0.6342  1.0418
 7543TIP3   OH244119   3.881   1.601   4.579 -0.6071  0.7431  0.3407
 7543TIP3    H144120   3.941   1.543   4.625 -1.4153 -0.4284 -0.0597
 7543TIP3    H244121   3.811   1.618   4.641 -1.9816 -1.2812 -0.5628
 7544TIP3   OH244122   4.141   2.498  16.567 -0.5270  0.2508 -0.3245
 7544TIP3    H144123   4.201   2.424  16.556 -0.0004  0.6874 -0.4372
 7544TIP3    H244124   4.145   2.519  16.660 -0.2368  0.5042 -0.3952
 7545TIP3   OH244125   3.704   1.882   3.507  0.6616  0.2765 -0.7522
 7545TIP3    H144126   3.705   1.978   3.502 -3.4483  0.5031 -0.5797
 7545TIP3    H244127   3.677   1.863   3.596 -1.1303 -0.8713 -1.4752
 7546TIP3   OH244128   4.915   6.482  10.558 -0.3516 -0.1776  0.5505
 7546TIP3    H144129   5.007   6.498  10.580 -0.1297 -2.1921  1.3107
 7546TIP3    H244130   4.875   6.569  10.557  1.3436  0.6571  1.2097
 7547TIP3   OH244131   5.021   0.366  13.670  0.4689  0.3031 -0.1280
 7547TIP3    H144132   4.994   0.275  13.679 -2.0470  0.8421 -1.2503
 7547TIP3    H244133   5.067   0.370  13.587  2.6092 -0.2878  0.9559
 7548TIP3   OH244134   3.145   3.298  12.701  0.6419  0.3744 -0.8530
 7548TIP3    H144135   3.240   3.311  12.701  0.5364  1.2959 -1.8123
 7548TIP3    H244136   3.110   3.379  12.665 -0.4508 -0.3714 -1.5215
 7549TIP3   OH244137   6.412   5.903  11.781 -0.1544  0.2673  0.1813
 7549TIP3    H144138   6.328   5.857  11.779 -1.0756  1.8170  0.9852
 7549TIP3    H244139   6.399   5.979  11.725  0.3461  1.0593  1.0999
 7550TIP3   OH244140   3.776   3.215  12.694  0.4163 -0.0035 -0.1850
 7550TIP3    H144141   3.777   3.311  12.688 -0.9176  0.3890  3.1948
 7550TIP3    H244142   3.720   3.187  12.622 -0.8113  1.9699 -0.0982
 7551TIP3   OH244143   1.483   3.739   4.238 -0.7422 -0.4770  0.0383
 7551TIP3    H144144   1.513   3.648   4.232 -2.1438 -1.1878  2.4017
 7551TIP3    H244145   1.457   3.749   4.329  0.3757  2.6751  0.1110
 7552TIP3   OH244146   3.476   1.789   4.745  0.1542 -0.0850  0.3515
 7552TIP3    H144147   3.543   1.722   4.736  1.8263  1.6549 -1.3099
 7552TIP3    H244148   3.455   1.790   4.839  0.3186 -2.5977  0.4743
 7553TIP3   OH244149   1.826   5.249  13.821  0.1170  0.4069  0.1084
 7553TIP3    H144150   1.785   5.177  13.773  0.8818  0.2656 -0.3436
 7553TIP3    H244151   1.842   5.214  13.908  0.5461 -0.0012 -0.1304
 7554TIP3   OH244152   1.226   4.624   5.731 -0.4346 -0.4864  0.0486
 7554TIP3    H144153   1.136   4.611   5.763 -0.5307  0.9319  0.4502
 7554TIP3    H244154   1.276   4.553   5.770 -1.5347 -1.8354 -0.9062
 7555TIP3   OH244155   0.138   2.636   3.998 -0.3183  0.3137  0.1550
 7555TIP3    H144156   0.042   2.640   4.002 -0.3430 -0.1869  0.1613
 7555TIP3    H244157   0.164   2.724   3.970 -0.8306  0.2312 -0.6273
 7556TIP3   OH244158   5.657   0.457   2.165 -0.5463  0.9472  0.1768
 7556TIP3    H144159   5.607   0.451   2.083  0.4054  1.5505 -0.4586
 7556TIP3    H244160   5.618   0.531   2.211 -2.1344 -0.3439  1.0304
 7557TIP3   OH244161   2.457   0.314   1.809 -0.4347 -0.4750 -0.1773
 7557TIP3    H144162   2.391   0.379   1.785 -1.3870 -1.9043 -1.6443
 7557TIP3    H244163   2.528   0.329   1.747 -0.0768 -0.0085  0.3351
 7558TIP3   OH244164   5.119   2.825  15.340 -0.3246  0.4523 -0.3766
 7558TIP3    H144165   5.178   2.848  15.412  0.5687 -1.2467 -0.5108
 7558TIP3    H244166   5.048   2.888  15.346  0.0703  0.7760  1.5867
 7559TIP3   OH244167   0.170   2.178  12.390 -0.1532  0.2005 -0.0321
 7559TIP3    H144168   0.249   2.221  12.358 -0.6748 -0.3774 -2.2593
 7559TIP3    H244169   0.166   2.096  12.341 -1.5762 -0.2752  0.8183
 7560TIP3   OH244170   6.689   4.770   1.048 -0.0391 -0.1821  0.0317
 7560TIP3    H144171   6.643   4.688   1.065 -0.3405  0.1482  0.8820
 7560TIP3    H244172   6.660   4.829   1.118  0.1018  0.6795 -0.6167
 7561TIP3   OH244173   3.650   5.809   0.176  0.0920 -0.0522  0.2567
 7561TIP3    H144174   3.634   5.869   0.103  1.0216  2.5043  2.0480
 7561TIP3    H244175   3.570   5.814   0.229  0.3737 -0.0414  0.6806
 7562TIP3   OH244176   6.865   5.010  16.276 -0.0337  0.0070 -0.0304
 7562TIP3    H144177   6.893   5.089  16.322 -0.7170  0.2270  0.0226
 7562TIP3    H244178   6.879   4.940  16.338 -3.6843  0.6241  1.7387
 7563TIP3   OH244179   5.933   5.133   2.242  0.1675  0.1184  0.3480
 7563TIP3    H144180   5.905   5.114   2.153 -1.2456 -0.0314  0.7863
 7563TIP3    H244181   5.916   5.227   2.253 -0.1185  0.0403  0.6012
 7564TIP3   OH244182   6.643   3.367  16.160  0.1764 -0.5407 -0.1130
 7564TIP3    H144183   6.658   3.423  16.236  0.3136 -0.0094 -0.5300
 7564TIP3    H244184   6.597   3.423  16.097  2.0304 -0.2715 -1.3140
 7565TIP3   OH244185   6.428   5.680   5.927  0.4457 -0.1190  0.2408
 7565TIP3    H144186   6.441   5.742   5.855 -1.5569 -0.3249 -0.3544
 7565TIP3    H244187   6.422   5.735   6.005  0.0313  0.3340 -0.1060
 7566TIP3   OH244188   2.619   6.674  10.516  0.2363  0.0051 -0.5440
 7566TIP3    H144189   2.711   6.667  10.539  0.1182 -0.6510 -0.2381
 7566TIP3    H244190   2.612   6.755  10.465  0.9878  0.0096 -0.6391
 7567TIP3   OH244191   4.218   3.217   6.340  0.4837 -0.1624 -0.8418
 7567TIP3    H144192   4.173   3.135   6.322  0.3650  0.0111 -1.3483
 7567TIP3    H244193   4.300   3.191   6.382 -0.1881 -0.4680  0.3154
 7568TIP3   OH244194   0.965   2.446  14.175  0.3043 -0.4625  0.4499
 7568TIP3    H144195   0.939   2.371  14.122  0.5960 -0.3858  0.1984
 7568TIP3    H244196   0.904   2.515  14.149  0.5680 -0.3690  0.0753
 7569TIP3   OH244197   1.638   5.232  15.105 -0.0932 -0.2781 -0.4381
 7569TIP3    H144198   1.546   5.240  15.079 -0.3129  0.5773  0.5236
 7569TIP3    H244199   1.635   5.200  15.195  0.4562  1.5726  0.2975
 7570TIP3   OH244200   5.586   3.770   5.377 -0.1253 -0.3324 -0.0485
 7570TIP3    H144201   5.676   3.737   5.370  0.6932  2.0167 -2.4215
 7570TIP3    H244202   5.546   3.749   5.292 -1.3927 -0.1753  0.4863
 7571TIP3   OH244203   5.978   5.658   3.530  0.4688  0.1655  0.0676
 7571TIP3    H144204   5.976   5.582   3.471 -0.5671  0.8635 -0.8284
 7571TIP3    H244205   5.890   5.696   3.523  1.8703  3.4144 -2.1382
 7572TIP3   OH244206   0.156   6.133   3.192 -0.1404  0.1535  0.3910
 7572TIP3    H144207   0.117   6.113   3.107  0.0537 -0.7602  0.5044
 7572TIP3    H244208   0.230   6.072   3.199  1.4180  1.9288  0.1139
 7573TIP3   OH244209   3.942   2.797  11.748  0.3956 -0.2095  0.5494
 7573TIP3    H144210   3.879   2.741  11.703 -0.1806 -0.7056  1.9531
 7573TIP3    H244211   3.932   2.883  11.706 -1.4282 -0.1949  0.9319
 7574TIP3   OH244212   4.663   0.763  14.987  0.4568  0.0695  0.9071
 7574TIP3    H144213   4.657   0.669  15.004  1.3918  0.0566  1.2238
 7574TIP3    H244214   4.602   0.802  15.049 -0.0807 -0.3423  0.6421
 7575TIP3   OH244215   2.708   5.275   0.501 -0.5434 -0.0790  0.8115
 7575TIP3    H144216   2.802   5.284   0.519 -0.4601  1.0528 -0.0303
 7575TIP3    H244217   2.704   5.254   0.407 -1.0758 -2.0602  1.2397
 7576TIP3   OH244218   1.202   3.412  15.018 -0.2363  0.3290 -0.0042
 7576TIP3    H144219   1.141   3.338  15.021  1.2099 -0.8985  0.5385
 7576TIP3    H244220   1.202   3.446  15.108 -0.7036  0.8202 -0.1902
 7577TIP3   OH244221   4.094   1.620  15.856  0.1451 -0.3260  0.1847
 7577TIP3    H144222   4.028   1.553  15.874 -0.6243  0.6111  0.8937
 7577TIP3    H244223   4.070   1.694  15.912  1.5779  0.1715  0.1824
 7578TIP3   OH244224   0.949   1.056   4.035  0.4916  0.1064 -0.4094
 7578TIP3    H144225   0.981   0.987   4.094  0.5981 -0.8432 -1.5342
 7578TIP3    H244226   0.867   1.084   4.075  0.4269 -0.6976  0.0627
 7579TIP3   OH244227   2.666   0.592   2.467  0.1111  0.5798  0.0781
 7579TIP3    H144228   2.692   0.500   2.472 -1.0527  0.0571 -1.9404
 7579TIP3    H244229   2.746   0.641   2.480  0.6466 -0.6780  1.8891
 7580TIP3   OH244230   5.337   0.337   5.437 -0.2601  0.1929  0.3746
 7580TIP3    H144231   5.389   0.294   5.369 -1.2792  0.2162 -0.4366
 7580TIP3    H244232   5.399   0.393   5.483  0.6251 -0.4860  0.0322
 7581TIP3   OH244233   3.222   3.962  15.726 -0.0065 -0.3317 -0.4324
 7581TIP3    H144234   3.195   3.994  15.812  2.0795  0.0812  0.1368
 7581TIP3    H244235   3.179   4.021  15.663 -2.2758 -1.1831  0.2181
 7582TIP3   OH244236   2.974   6.441  15.569  0.1045  0.1368 -0.2930
 7582TIP3    H144237   2.956   6.417  15.478  0.9504 -0.1751 -0.3823
 7582TIP3    H244238   3.069   6.455  15.573 -0.0980  1.6523  0.1940
 7583TIP3   OH244239   2.920   0.942  14.721 -0.0916  0.0675  0.2451
 7583TIP3    H144240   3.002   0.917  14.762 -0.9292 -3.0771  0.2649
 7583TIP3    H244241   2.858   0.874  14.748 -2.6513  2.1297 -0.0169
 7584TIP3   OH244242   6.450   5.345   5.513 -0.3727 -0.3971  0.9736
 7584TIP3    H144243   6.376   5.287   5.496 -2.0055  1.4017  1.5752
 7584TIP3    H244244   6.426   5.393   5.592 -0.0115  2.3855 -0.4494
 7585TIP3   OH244245   6.852   2.165   3.012  0.1255 -0.5573  0.1107
 7585TIP3    H144246   6.832   2.096   3.075 -0.8689 -0.6183 -0.2425
 7585TIP3    H244247   6.944   2.153   2.991  0.5189 -0.4454  1.6486
 7586TIP3   OH244248   6.103   2.388  10.107 -0.2228 -0.4068 -0.2124
 7586TIP3    H144249   6.124   2.301  10.072 -0.8487 -1.1320  1.1284
 7586TIP3    H244250   6.099   2.375  10.202 -3.4642  0.3287 -0.1284
 7587TIP3   OH244251   6.348   4.342   5.639 -0.4241 -0.6587 -0.3926
 7587TIP3    H144252   6.429   4.299   5.669  1.8421  2.2159 -1.8229
 7587TIP3    H244253   6.341   4.420   5.694 -0.9396  0.2678 -1.7114
 7588TIP3   OH244254   2.414   4.172   5.347  0.0813  0.0655  0.7466
 7588TIP3    H144255   2.446   4.257   5.379  1.6612 -0.7739  1.5226
 7588TIP3    H244256   2.445   4.109   5.413 -1.1997 -1.1064  0.2723
 7589TIP3   OH244257   6.551   3.854   0.203 -0.0727 -0.1840  0.0387
 7589TIP3    H144258   6.478   3.887   0.151  0.1978 -2.0430 -1.6512
 7589TIP3    H244259   6.628   3.869   0.147  0.0861 -3.2727 -0.7122
 7590TIP3   OH244260   5.290   6.324   3.846  0.6759 -0.2965 -0.2242
 7590TIP3    H144261   5.288   6.411   3.805  2.2658 -0.6236 -1.0714
 7590TIP3    H244262   5.201   6.291   3.836 -0.2390  1.6074  1.0107
 7591TIP3   OH244263   1.409   5.833   4.880  0.2059  0.4199 -0.2496
 7591TIP3    H144264   1.313   5.833   4.884  0.0752 -3.1837  0.3312
 7591TIP3    H244265   1.435   5.894   4.949 -1.7194  0.3062  0.6694
 7592TIP3   OH244266   3.787   6.355   1.265 -0.0023 -0.1049 -0.0473
 7592TIP3    H144267   3.702   6.396   1.283  0.2433 -0.2893  1.6922
 7592TIP3    H244268   3.840   6.427   1.229 -0.6197  0.2253 -0.3208
 7593TIP3   OH244269   0.700   1.125   4.112  0.5143 -0.2705  0.0231
 7593TIP3    H144270   0.686   1.216   4.086 -1.3622 -0.4426  0.3276
 7593TIP3    H244271   0.626   1.104   4.168  0.8154 -2.0545 -0.1900
 7594TIP3   OH244272   3.765   1.238   6.317  0.7005 -0.6920  0.0566
 7594TIP3    H144273   3.752   1.144   6.314  1.1662 -0.7431 -0.3053
 7594TIP3    H244274   3.857   1.251   6.293  0.2561 -0.0428 -1.3539
 7595TIP3   OH244275   0.405   2.806   4.789 -0.6195  0.5437 -0.3008
 7595TIP3    H144276   0.338   2.873   4.777 -0.6593  0.3870 -1.0015
 7595TIP3    H244277   0.362   2.724   4.762 -0.6787  0.1761  0.8583
 7596TIP3   OH244278   3.426   6.664  14.667  0.1552 -0.4802 -0.6554
 7596TIP3    H144279   3.474   6.746  14.653 -0.9067  0.1706 -0.5366
 7596TIP3    H244280   3.467   6.603  14.606 -1.2513  1.0285 -3.2898
 7597TIP3   OH244281   1.481   2.307  13.115  0.0784  0.0944 -0.3635
 7597TIP3    H144282   1.556   2.318  13.173  1.0032 -3.1222 -0.7075
 7597TIP3    H244283   1.421   2.377  13.138  2.1284  1.3039  1.6541
 7598TIP3   OH244284   2.463   2.984   0.995 -0.2292  0.8838  0.6817
 7598TIP3    H144285   2.430   2.951   1.079 -0.5479  0.4176  0.3789
 7598TIP3    H244286   2.462   2.907   0.937  0.2889  1.1271  0.3402
 7599TIP3   OH244287   3.323   3.300  11.956 -0.2868  0.5393 -0.1976
 7599TIP3    H144288   3.287   3.281  11.870  1.2180 -1.9577 -0.3810
 7599TIP3    H244289   3.370   3.221  11.980  2.1753  2.3471  1.4670
 7600TIP3   OH244290   4.748   0.323   5.716  0.4405 -0.0804  0.1378
 7600TIP3    H144291   4.744   0.386   5.788 -1.7167  0.3021 -0.2513
 7600TIP3    H244292   4.792   0.247   5.754 -0.9846 -0.0456  2.0166
 7601TIP3   OH244293   6.523   1.617   0.738 -0.0741 -0.0536  0.5005
 7601TIP3    H144294   6.574   1.543   0.770 -1.7120 -0.3484  2.7719
 7601TIP3    H244295   6.553   1.691   0.791 -0.8766  0.0890  0.7784
 7602TIP3   OH244296   4.088   3.806  10.950 -0.3350 -0.3440 -0.2181
 7602TIP3    H144297   4.011   3.829  10.898  0.1116  1.0915 -0.2884
 7602TIP3    H244298   4.160   3.854  10.910  0.6453 -1.7309 -0.1998
 7603TIP3   OH244299   1.547   6.890   3.026  0.0937  0.1241  0.5493
 7603TIP3    H144300   1.495   6.868   3.103 -1.5189  0.5965 -0.3806
 7603TIP3    H244301   1.490   6.872   2.952  1.9396 -1.2499 -0.6327
 7604TIP3   OH244302   5.186   6.599  15.929  0.4456  0.3567 -0.4214
 7604TIP3    H144303   5.097   6.589  15.962 -0.4575  0.5403 -2.6124
 7604TIP3    H244304   5.211   6.688  15.955  0.7924 -0.3615  1.8772
 7605TIP3   OH244305   3.556   1.169   1.018  0.1667 -0.0222  0.6777
 7605TIP3    H144306   3.588   1.087   1.057 -0.1661 -0.8738 -0.7646
 7605TIP3    H244307   3.625   1.232   1.036  1.0689 -0.9630  0.6431
 7606TIP3   OH244308   3.329   6.491  13.073 -0.1689  0.3764  0.0103
 7606TIP3    H144309   3.333   6.582  13.101 -0.6297  0.4455 -0.1502
 7606TIP3    H244310   3.421   6.465  13.064 -0.0175  0.5503  0.9387
 7607TIP3   OH244311   1.208   5.633   9.896  0.2711 -0.5255 -0.1926
 7607TIP3    H144312   1.171   5.667   9.815 -0.4802  1.6119  0.9796
 7607TIP3    H244313   1.203   5.538   9.886  0.5263 -0.3366 -2.7667
 7608TIP3   OH244314   1.668   6.332   5.707  0.1586  0.0593  0.0478
 7608TIP3    H144315   1.690   6.290   5.790 -2.0197  1.5822  1.4818
 7608TIP3    H244316   1.648   6.422   5.730 -0.7445  0.4764 -2.1152
 7609TIP3   OH244317   1.727   6.365  15.862 -0.3980 -0.0294 -0.0968
 7609TIP3    H144318   1.812   6.404  15.843 -0.5261  0.4842  0.3460
 7609TIP3    H244319   1.666   6.438  15.857 -0.7749 -0.3495 -0.1603
 7610TIP3   OH244320   3.931   0.789  10.654  0.1533 -0.1152 -0.6263
 7610TIP3    H144321   3.969   0.834  10.579  0.8041 -2.3899 -1.7549
 7610TIP3    H244322   3.886   0.713  10.617  2.1478 -2.4348  1.3048
 7611TIP3   OH244323   0.419   1.863  14.797  0.6836  1.0509 -0.3001
 7611TIP3    H144324   0.431   1.911  14.879 -0.3465  2.0356 -0.7003
 7611TIP3    H244325   0.367   1.787  14.822  0.8983  1.0182  0.0608
 7612TIP3   OH244326   1.179   6.142   0.254  0.9417  0.0771 -0.8617
 7612TIP3    H144327   1.266   6.171   0.283  0.4380  0.6749  0.0959
 7612TIP3    H244328   1.136   6.111   0.334 -0.0911  0.7320 -1.1446
 7613TIP3   OH244329   1.688   2.968   1.556  0.1219 -0.3227  0.0700
 7613TIP3    H144330   1.665   2.896   1.615  1.2147 -1.2406 -0.5920
 7613TIP3    H244331   1.671   2.933   1.468 -1.0361  0.8671 -0.2126
 7614TIP3   OH244332   1.929   6.359  12.819  0.2660 -0.2532 -0.1978
 7614TIP3    H144333   1.861   6.292  12.829  0.3945 -0.4050 -0.3334
 7614TIP3    H244334   1.942   6.393  12.908  1.1952 -1.3945  0.1289
 7615TIP3   OH244335   2.422   6.657  12.476  0.1587  0.4128 -0.0181
 7615TIP3    H144336   2.475   6.731  12.446  0.8390 -0.2862 -0.5879
 7615TIP3    H244337   2.442   6.649  12.570 -0.2259  1.1911  0.1348
 7616TIP3   OH244338   6.272   0.414  15.071  0.1664  1.0493 -0.4577
 7616TIP3    H144339   6.348   0.455  15.030 -0.2595  2.3254 -0.0270
 7616TIP3    H244340   6.197   0.463  15.038 -0.9745 -2.4472 -3.7963
 7617TIP3   OH244341   5.335   2.067  12.499 -0.3085 -0.4894 -0.3499
 7617TIP3    H144342   5.360   2.059  12.406  1.1289 -1.8680  0.1110
 7617TIP3    H244343   5.240   2.075  12.497 -0.1926  4.4391 -2.2033
 7618TIP3   OH244344   3.930   0.426   2.650 -0.3270 -0.3325  0.3030
 7618TIP3    H144345   4.002   0.443   2.712 -0.4381 -1.2056  0.6837
 7618TIP3    H244346   3.911   0.333   2.661 -0.9146 -0.3035 -0.4520
 7619TIP3   OH244347   4.677   5.742  10.900  0.1840 -0.3595  0.3094
 7619TIP3    H144348   4.618   5.736  10.975 -0.1125  0.0436  0.1154
 7619TIP3    H244349   4.753   5.791  10.933  1.2159 -2.3546  1.0370
 7620TIP3   OH244350   4.592   2.948   3.527 -0.4684  0.2849  0.0500
 7620TIP3    H144351   4.496   2.942   3.522 -0.4385  0.3074 -0.6684
 7620TIP3    H244352   4.613   3.032   3.486 -0.1095  0.0580 -0.2379
 7621TIP3   OH244353   4.579   2.552   3.799 -0.3567  0.4180  0.5556
 7621TIP3    H144354   4.610   2.470   3.761 -2.3913 -0.2471  0.1854
 7621TIP3    H244355   4.580   2.614   3.726  1.3142  0.7979  0.8676
 7622TIP3   OH244356   1.576   5.394  14.329  0.0421 -0.5758 -0.0897
 7622TIP3    H144357   1.577   5.308  14.373  0.8457 -0.9445 -0.7992
 7622TIP3    H244358   1.615   5.377  14.243 -0.7784  0.3002 -0.6455
 7623TIP3   OH244359   1.741   5.905  12.942 -0.0556  0.0581 -0.6270
 7623TIP3    H144360   1.760   5.999  12.952 -0.6453  0.0147  1.2674
 7623TIP3    H244361   1.816   5.861  12.982 -1.1257 -0.1977  1.2027
 7624TIP3   OH244362   0.301   1.769   1.744 -0.0203 -0.4882 -0.4857
 7624TIP3    H144363   0.345   1.687   1.770  1.1695  0.4393  0.6142
 7624TIP3    H244364   0.370   1.820   1.702 -0.5178  0.2884 -0.3682
 7625TIP3   OH244365   1.226   6.041   1.053 -0.0379  0.7115  0.0716
 7625TIP3    H144366   1.300   6.013   0.999  0.7778  0.7522  1.1146
 7625TIP3    H244367   1.149   6.021   1.001  0.4684 -2.9454  0.4417
 7626TIP3   OH244368   4.320   0.260  12.041 -0.0952  0.2582 -0.1130
 7626TIP3    H144369   4.229   0.229  12.042 -0.3792  1.0486 -0.2590
 7626TIP3    H244370   4.360   0.213  11.968 -0.5687  0.3844 -0.4615
 7627TIP3   OH244371   2.033   5.340  14.028  0.1373 -0.6967  0.0587
 7627TIP3    H144372   1.999   5.338  14.118 -1.3681  2.4249 -0.2831
 7627TIP3    H244373   1.956   5.359  13.974  1.6691  2.4993 -1.2604
 7628TIP3   OH244374   5.203   6.094  13.388 -0.3349 -0.0475 -0.2065
 7628TIP3    H144375   5.229   6.108  13.479 -1.1303 -0.4904  0.1027
 7628TIP3    H244376   5.108   6.108  13.388 -0.3502 -0.1029 -0.9595
 7629TIP3   OH244377   1.057   6.402  13.684 -0.0347 -0.2294 -0.1024
 7629TIP3    H144378   1.117   6.327  13.680 -0.5600 -0.6399 -0.4752
 7629TIP3    H244379   1.114   6.478  13.672  0.4242 -0.6127 -0.4315
 7630TIP3   OH244380   2.100   3.733   5.720  0.1754 -0.2827 -0.2110
 7630TIP3    H144381   2.048   3.801   5.764 -0.5447 -1.5136  0.9343
 7630TIP3    H244382   2.191   3.759   5.736 -0.0686 -0.3731  1.5836
 7631TIP3   OH244383   3.608   5.646   5.238 -0.3733 -0.1137  0.2294
 7631TIP3    H144384   3.697   5.630   5.271 -0.3745  2.0949  1.5067
 7631TIP3    H244385   3.602   5.593   5.159  1.8713 -0.7982  0.4438
 7632TIP3   OH244386   0.226   2.274  15.759 -0.6058  0.5076 -0.4269
 7632TIP3    H144387   0.159   2.329  15.800 -0.9156  0.1101 -0.3946
 7632TIP3    H244388   0.296   2.335  15.734 -1.4675  1.1029 -1.4872
 7633TIP3   OH244389   3.727   2.122   0.461  0.4354  0.0811 -0.2772
 7633TIP3    H144390   3.771   2.187   0.406  0.9482 -0.4102 -0.4547
 7633TIP3    H244391   3.667   2.077   0.402  0.1600  0.3149 -0.1784
 7634TIP3   OH244392   6.619   1.676  12.301  0.2854 -0.0698 -0.1826
 7634TIP3    H144393   6.560   1.691  12.375 -1.7734 -2.2364 -1.2322
 7634TIP3    H244394   6.590   1.737  12.233 -0.9454 -1.1943 -0.7302
 7635TIP3   OH244395   4.596   4.637  12.666  0.5412  0.2200  0.3138
 7635TIP3    H144396   4.601   4.558  12.612  1.7957  0.2284  0.3833
 7635TIP3    H244397   4.551   4.701  12.611 -0.2667 -0.4567  0.1648
 7636TIP3   OH244398   3.468   6.447   4.497  0.0662 -0.1825 -0.1512
 7636TIP3    H144399   3.460   6.470   4.405  0.5961  0.3655 -0.0698
 7636TIP3    H244400   3.387   6.402   4.518 -1.0281  1.6062 -0.3339
 7637TIP3   OH244401   2.125   0.128  12.093 -0.3008 -0.2804  0.3508
 7637TIP3    H144402   2.039   0.091  12.114  0.0569 -0.8642  0.8697
 7637TIP3    H244403   2.119   0.220  12.119 -0.3928 -0.6041  1.5850
 7638TIP3   OH244404   5.898   2.016  13.352 -0.2832 -0.4139  1.1339
 7638TIP3    H144405   5.931   2.010  13.442 -0.3623  0.0252  1.1962
 7638TIP3    H244406   5.859   1.931  13.335 -1.6732  0.0087  2.0773
 7639TIP3   OH244407   5.145   3.580   0.225  0.1607  0.8461 -0.5750
 7639TIP3    H144408   5.188   3.665   0.212  3.1239 -0.3722  0.2901
 7639TIP3    H244409   5.064   3.601   0.270 -1.1770  3.4733 -3.7552
 7640TIP3   OH244410   1.137   0.138   1.664 -0.0177  0.1606  0.4290
 7640TIP3    H144411   1.176   0.188   1.736 -2.2533  1.5172  0.7950
 7640TIP3    H244412   1.173   0.177   1.585  0.5736  0.2994  0.7594
 7641TIP3   OH244413   2.374   5.459  16.203  0.2694  0.5140 -0.2758
 7641TIP3    H144414   2.351   5.370  16.232  0.8805  0.7390  0.9964
 7641TIP3    H244415   2.291   5.504  16.195  0.0473  0.5775  1.7362
 7642TIP3   OH244416   2.504   5.315  15.815  0.4201  0.1634 -1.0730
 7642TIP3    H144417   2.409   5.321  15.809  0.3528 -1.2664 -1.5391
 7642TIP3    H244418   2.527   5.385  15.876 -0.9827  0.1435 -0.4680
 7643TIP3   OH244419   2.630   6.610  10.214  0.1596  0.2785  0.0644
 7643TIP3    H144420   2.723   6.631  10.218  0.2721 -0.3093  0.8106
 7643TIP3    H244421   2.598   6.655  10.136  0.8580  1.3279  0.3615
 7644TIP3   OH244422   5.312   1.783   3.173  0.1198  0.0787  0.0904
 7644TIP3    H144423   5.245   1.827   3.122  2.3669  1.9520 -1.4949
 7644TIP3    H244424   5.286   1.797   3.264 -3.1338 -1.9322 -0.4080
 7645TIP3   OH244425   6.172   4.034   3.230  0.0826 -0.0994  0.0423
 7645TIP3    H144426   6.090   4.007   3.272  0.5214 -0.0995  0.9061
 7645TIP3    H244427   6.218   4.084   3.296  0.4603  0.5377 -0.6922
 7646TIP3   OH244428   1.426   5.485  15.230 -0.0986  0.5823 -0.5635
 7646TIP3    H144429   1.471   5.447  15.305  0.5024 -0.2030 -1.3016
 7646TIP3    H244430   1.448   5.578  15.234 -1.0257  0.7765  0.8746
 7647TIP3   OH244431   1.830   0.866  16.125  0.3241  0.1851  0.0629
 7647TIP3    H144432   1.872   0.822  16.051  0.4094  1.5551 -0.7405
 7647TIP3    H244433   1.769   0.928  16.084  1.1642  1.7461  1.0818
 7648TIP3   OH244434   0.357   2.505  15.687  0.0858  0.0480 -0.5862
 7648TIP3    H144435   0.409   2.556  15.749  0.3292 -0.7611 -0.1178
 7648TIP3    H244436   0.300   2.569  15.645 -1.2942  0.3952  1.6557
 7649TIP3   OH244437   2.928   1.850   3.977 -0.0745 -0.5719 -1.0031
 7649TIP3    H144438   2.913   1.826   3.886  0.9871  1.1726 -1.6740
 7649TIP3    H244439   2.856   1.809   4.025 -1.1499 -0.7787 -2.7382
 7650TIP3   OH244440   1.596   1.918   1.160  0.2990 -0.0058  0.6137
 7650TIP3    H144441   1.556   1.831   1.147 -4.7943  2.0933 -0.2656
 7650TIP3    H244442   1.626   1.944   1.073  2.0656 -0.8867  0.9252
 7651TIP3   OH244443   3.575   2.952  15.738  0.4779  0.1709 -0.3590
 7651TIP3    H144444   3.492   2.913  15.765  0.8163 -0.2396  0.1042
 7651TIP3    H244445   3.581   3.033  15.788  0.7228 -0.1858  0.1906
 7652TIP3   OH244446   5.985   6.394   1.025 -0.4639  0.3411  0.4161
 7652TIP3    H144447   5.991   6.452   0.948  1.1304 -0.2772  0.0359
 7652TIP3    H244448   6.073   6.357   1.033 -0.9365 -0.5073  1.8514
 7653TIP3   OH244449   2.625   3.491   1.311 -0.2418 -0.2742 -0.1187
 7653TIP3    H144450   2.647   3.535   1.393  0.5661 -1.3054  0.2419
 7653TIP3    H244451   2.591   3.406   1.338  0.0757 -0.6437 -0.8409
 7654TIP3   OH244452   2.826   1.470   0.902 -0.3844 -0.6576  0.0928
 7654TIP3    H144453   2.905   1.435   0.860  0.1905 -0.1914  0.7703
 7654TIP3    H244454   2.855   1.499   0.988 -1.7238 -2.4004  1.2017
 7655TIP3   OH244455   3.787   1.739  10.515 -0.0194 -0.4118 -0.3855
 7655TIP3    H144456   3.879   1.719  10.498  0.2735  0.8211 -0.3468
 7655TIP3    H244457   3.789   1.786  10.599 -0.4467  1.3775 -1.3439
 7656TIP3   OH244458   0.975   3.632  16.190  0.0590  0.2495  0.7653
 7656TIP3    H144459   0.898   3.673  16.150  0.3549  0.7585  0.7081
 7656TIP3    H244460   1.043   3.639  16.123  0.4884  0.8830  1.2483
 7657TIP3   OH244461   3.221   1.673   5.797  0.1348 -0.2701 -0.5635
 7657TIP3    H144462   3.183   1.752   5.758  0.2419 -0.4978 -1.1359
 7657TIP3    H244463   3.222   1.692   5.891  0.9341  0.7511 -0.7593
 7658TIP3   OH244464   4.208   0.538   1.028 -0.0524 -0.2122 -0.1035
 7658TIP3    H144465   4.210   0.551   0.933 -1.7978 -1.6644 -0.4048
 7658TIP3    H244466   4.115   0.539   1.050  0.2988 -0.4564  1.5013
 7659TIP3   OH244467   4.573   6.618  14.296  0.8196 -0.3211  0.0431
 7659TIP3    H144468   4.640   6.626  14.229  0.2777 -0.1789 -0.4954
 7659TIP3    H244469   4.608   6.667  14.371  1.1331  0.1097 -0.3775
 7660TIP3   OH244470   0.572   6.617  14.745  0.0383  0.0357 -0.1372
 7660TIP3    H144471   0.630   6.618  14.669 -1.6587  1.1921 -1.5001
 7660TIP3    H244472   0.619   6.567  14.811  1.4707 -1.2516 -2.0302
 7661TIP3   OH244473   3.898   1.437  11.307  0.6484 -0.0363 -0.4242
 7661TIP3    H144474   3.960   1.370  11.335  0.0550 -0.0837  0.8388
 7661TIP3    H244475   3.879   1.487  11.386  0.2603  0.9564 -1.1260
 7662TIP3   OH244476   0.442   3.344   2.426  0.4290  0.1612  0.3163
 7662TIP3    H144477   0.427   3.258   2.388  0.5553  0.5184 -0.5672
 7662TIP3    H244478   0.388   3.345   2.506  0.8776 -0.9333  0.6480
 7663TIP3   OH244479   2.299   2.135   1.953 -0.2758  0.2408  0.8799
 7663TIP3    H144480   2.307   2.229   1.939 -0.1041  0.2956  1.3318
 7663TIP3    H244481   2.295   2.098   1.864 -0.7431  0.7041  0.7053
 7664TIP3   OH244482   0.473   2.141   1.805  0.1891  0.5970  0.4513
 7664TIP3    H144483   0.528   2.175   1.734  0.0581 -1.0672 -0.4968
 7664TIP3    H244484   0.384   2.169   1.782 -0.0141 -0.8789 -0.6860
 7665TIP3   OH244485   0.452   4.378  11.172  0.5111  0.1039  0.5040
 7665TIP3    H144486   0.365   4.338  11.182  0.7119 -0.2584  0.8281
 7665TIP3    H244487   0.434   4.463  11.131 -0.2119  0.9270  2.3677
 7666TIP3   OH244488   3.490   6.231  14.246  0.4569  0.3076 -0.2387
 7666TIP3    H144489   3.546   6.156  14.225  0.0594 -0.0918  0.1284
 7666TIP3    H244490   3.456   6.259  14.161  0.1527 -0.2859 -0.3154
 7667TIP3   OH244491   6.804   3.127  15.311 -0.1041 -0.1304 -0.1924
 7667TIP3    H144492   6.712   3.150  15.299 -0.1041  0.5382  0.9193
 7667TIP3    H244493   6.817   3.050  15.256 -1.3226 -0.2198 -0.3807
 7668TIP3   OH244494   1.023   3.614   5.466  0.4372 -0.4189 -0.6616
 7668TIP3    H144495   1.111   3.597   5.500  0.9935 -0.9654 -2.2765
 7668TIP3    H244496   0.969   3.624   5.544  1.9257 -0.0745  0.3695
 7669TIP3   OH244497   5.568   0.584   2.813 -0.3807 -0.7869  0.1692
 7669TIP3    H144498   5.662   0.572   2.798  0.2401  1.0170  2.0402
 7669TIP3    H244499   5.548   0.524   2.884 -0.8349 -1.7012 -0.7190
 7670TIP3   OH244500   4.183   1.757   0.216 -0.2574  0.3425  0.3866
 7670TIP3    H144501   4.211   1.690   0.154 -0.8461 -1.5412  2.0742
 7670TIP3    H244502   4.229   1.836   0.187 -0.1904 -0.5324 -2.1674
 7671TIP3   OH244503   1.753   5.641  11.893  0.0938  0.0585  0.1639
 7671TIP3    H144504   1.740   5.570  11.956 -0.2296 -0.3335 -0.3382
 7671TIP3    H244505   1.706   5.715  11.932 -2.4783 -0.9037 -0.8602
 7672TIP3   OH244506   1.811   2.381  12.151  0.1213 -0.4101  0.1451
 7672TIP3    H144507   1.818   2.424  12.236  1.3869  0.3773 -0.3266
 7672TIP3    H244508   1.837   2.290  12.167  1.6323  0.0422  0.3784
 7673TIP3   OH244509   6.116   3.522  10.571  0.0555 -0.0299  0.2172
 7673TIP3    H144510   6.028   3.556  10.553 -0.6624 -1.3861  0.9639
 7673TIP3    H244511   6.132   3.459  10.501  0.2043 -0.1691  0.3764
 7674TIP3   OH244512   0.775   5.556   0.210  0.4668  0.5793 -0.3784
 7674TIP3    H144513   0.790   5.552   0.305 -0.3878  2.6992 -0.0926
 7674TIP3    H244514   0.842   5.616   0.178 -0.7368  1.8481 -0.6684
 7675TIP3   OH244515   2.293   0.279  13.786 -0.6949 -0.1943  0.0273
 7675TIP3    H144516   2.340   0.357  13.816  1.2062 -0.2962 -2.3841
 7675TIP3    H244517   2.211   0.313  13.749  0.6332  0.9452 -2.1221
 7676TIP3   OH244518   1.336   4.067  11.399  0.1005  0.3203 -0.1474
 7676TIP3    H144519   1.398   4.138  11.385  0.1268  0.3574  0.1613
 7676TIP3    H244520   1.332   4.022  11.314 -0.2886  0.9824 -0.4842
 7677TIP3   OH244521   1.477   5.934   3.638 -0.5699 -0.5556 -0.0774
 7677TIP3    H144522   1.448   5.978   3.558  0.7228 -1.8369 -1.3036
 7677TIP3    H244523   1.432   5.850   3.637  1.9049 -1.9675 -1.2571
 7678TIP3   OH244524   2.399   4.624   4.855  0.4660 -0.0311 -0.7731
 7678TIP3    H144525   2.422   4.679   4.929  4.2926  0.7862 -2.2915
 7678TIP3    H244526   2.360   4.683   4.791  2.1679  0.4941 -1.3897
 7679TIP3   OH244527   5.677   0.119   4.149 -0.1665 -0.3118  0.6967
 7679TIP3    H144528   5.722   0.137   4.066 -2.5311  1.2593 -0.3579
 7679TIP3    H244529   5.711   0.033   4.176  0.1753 -1.2428 -2.2854
 7680TIP3   OH244530   4.733   4.411   2.514  0.1385 -0.3866  0.0867
 7680TIP3    H144531   4.746   4.446   2.603  0.6996 -0.5484  0.0693
 7680TIP3    H244532   4.770   4.323   2.517  1.7456  0.2187 -0.7646
 7681TIP3   OH244533   0.694   3.894  12.331 -0.0739 -0.6425 -0.1588
 7681TIP3    H144534   0.704   3.827  12.399  0.6039 -1.6814 -1.2506
 7681TIP3    H244535   0.779   3.898  12.288 -0.8328 -0.9301 -1.7668
 7682TIP3   OH244536   5.086   0.991  13.197 -0.3205 -0.0084 -0.5297
 7682TIP3    H144537   5.021   0.967  13.263  0.5841  0.1725  0.4543
 7682TIP3    H244538   5.036   0.998  13.116 -1.4718 -0.1783  0.1381
 7683TIP3   OH244539   0.433   3.702   0.766  0.0442 -0.1658  0.2686
 7683TIP3    H144540   0.489   3.625   0.757 -2.4387 -1.9808 -0.5321
 7683TIP3    H244541   0.353   3.670   0.806 -0.7091  2.2229  0.8580
 7684TIP3   OH244542   2.080   4.258   4.848  0.0407  0.0577  0.5017
 7684TIP3    H144543   2.112   4.278   4.935  1.1504 -1.8557  0.5844
 7684TIP3    H244544   1.987   4.238   4.860  0.4604 -1.4454  1.4935
 7685TIP3   OH244545   0.974   0.013  14.689  0.3640 -0.0678 -0.5369
 7685TIP3    H144546   0.911   0.075  14.727 -1.2972 -3.3715  2.7175
 7685TIP3    H244547   0.975   0.035  14.596 -1.1784  3.8100  0.1534
 7686TIP3   OH244548   0.893   3.603   1.095 -1.3292 -0.6289  0.3150
 7686TIP3    H144549   0.945   3.525   1.113 -2.7854 -2.1578 -1.6004
 7686TIP3    H244550   0.878   3.643   1.181  2.4686 -0.3358  1.0222
 7687TIP3   OH244551   4.053   2.236   3.573  0.8534 -0.1002 -0.1222
 7687TIP3    H144552   4.055   2.172   3.502 -0.4980  0.0139 -0.2803
 7687TIP3    H244553   4.002   2.193   3.642 -0.4578  0.9546 -0.4038
 7688TIP3   OH244554   4.691   5.180   1.466  0.7015  0.8621  0.1311
 7688TIP3    H144555   4.681   5.098   1.515  0.3997  0.9943  0.2944
 7688TIP3    H244556   4.682   5.249   1.532  0.8050  1.0326 -0.0303
 7689TIP3   OH244557   3.246   6.033   0.611  0.4685  0.6945 -0.2632
 7689TIP3    H144558   3.320   6.035   0.673  1.3734  0.8807 -1.3104
 7689TIP3    H244559   3.195   6.111   0.633 -0.2560 -0.2069  1.4274
 7690TIP3   OH244560   1.864   5.410   5.373 -0.1138  0.3076 -0.0356
 7690TIP3    H144561   1.836   5.353   5.301  1.2946 -1.3050  0.6418
 7690TIP3    H244562   1.791   5.407   5.435  0.1744 -1.3385  0.2841
 7691TIP3   OH244563   4.138   6.475   2.291 -0.0148 -0.0788  0.2230
 7691TIP3    H144564   4.183   6.460   2.374  2.0647  0.0108 -0.8253
 7691TIP3    H244565   4.105   6.565   2.297 -0.1103 -0.1583  1.0174
 7692TIP3   OH244566   6.052   4.078  13.414 -0.0320  0.3972 -0.3340
 7692TIP3    H144567   6.142   4.074  13.447  0.3249  2.0674 -1.0025
 7692TIP3    H244568   6.048   4.161  13.367 -2.2484  0.8451  0.5458
 7693TIP3   OH244569   4.670   5.619   1.002  0.2601  0.3151 -0.2735
 7693TIP3    H144570   4.653   5.555   1.072  0.3793 -0.4135 -0.9012
 7693TIP3    H244571   4.675   5.703   1.048  0.3306 -0.1478  0.5969
 7694TIP3   OH244572   5.602   5.990  13.245 -0.0924 -0.3292 -0.2601
 7694TIP3    H144573   5.570   6.076  13.218 -1.1080 -0.3849  0.6818
 7694TIP3    H244574   5.575   5.931  13.175 -0.0153  0.0089 -0.5745
 7695TIP3   OH244575   6.583   6.891   2.152  0.0429 -0.0689 -0.2867
 7695TIP3    H144576   6.632   6.942   2.087  0.0912 -0.4252 -0.5330
 7695TIP3    H244577   6.491   6.910   2.132  0.0728  0.8551  0.3823
 7696TIP3   OH244578   0.183   3.588  11.942  0.3766 -0.4146  0.0308
 7696TIP3    H144579   0.151   3.570  12.030  1.3201  0.3330  0.5430
 7696TIP3    H244580   0.154   3.678  11.924  2.9045  0.6558  0.8930
 7697TIP3   OH244581   2.921   1.510   2.335 -0.1655 -0.3037  0.0162
 7697TIP3    H144582   2.920   1.481   2.244  1.8403  0.5054 -0.3156
 7697TIP3    H244583   2.923   1.430   2.387  2.7047 -0.8720 -0.8094
 7698TIP3   OH244584   4.121   0.835  13.877 -0.8128  0.1241  0.2326
 7698TIP3    H144585   4.190   0.891  13.912  1.2608 -1.3697 -1.2059
 7698TIP3    H244586   4.088   0.883  13.800  0.9594 -0.5391 -1.0025
 7699TIP3   OH244587   1.609   0.161   3.867  0.2645  0.4059 -0.3859
 7699TIP3    H144588   1.596   0.066   3.870  0.3544  0.4076  0.3736
 7699TIP3    H244589   1.673   0.175   3.798  1.3038 -0.2225  0.4311
 7700TIP3   OH244590   3.928   2.792  12.185  0.4649 -0.3314 -0.9146
 7700TIP3    H144591   3.932   2.779  12.280 -0.8273 -0.0519 -0.8029
 7700TIP3    H244592   3.931   2.704  12.149  0.8152 -0.4476 -0.6096
 7701TIP3   OH244593   5.801   6.606   1.777  0.8216 -0.0937  0.5568
 7701TIP3    H144594   5.799   6.559   1.861 -0.4651 -0.3745  0.3854
 7701TIP3    H244595   5.855   6.550   1.721 -0.1413 -1.0577  0.5548
 7702TIP3   OH244596   2.733   5.591   0.839 -0.4591 -0.2444  0.3583
 7702TIP3    H144597   2.672   5.597   0.766  0.3197  1.0011 -0.2415
 7702TIP3    H244598   2.813   5.555   0.800  0.4323  1.7589  0.2204
 7703TIP3   OH244599   4.464   6.006  11.009  0.2466  0.4043 -0.4025
 7703TIP3    H144600   4.422   6.088  10.986  1.2876  0.9468 -0.4419
 7703TIP3    H244601   4.539   6.031  11.063  0.1926 -0.5647  0.1571
 7704TIP3   OH244602   3.559   1.203  12.811 -0.2342  0.0569 -0.5135
 7704TIP3    H144603   3.529   1.123  12.767 -0.4918 -1.8171  2.7278
 7704TIP3    H244604   3.481   1.257  12.817 -1.0833 -1.2272  0.6787
 7705TIP3   OH244605   1.076   3.650  13.620 -0.3985 -0.0016  0.0111
 7705TIP3    H144606   1.169   3.632  13.637  0.0148  0.3664 -1.6907
 7705TIP3    H244607   1.031   3.569  13.645  0.3466 -0.1250  1.0248
 7706TIP3   OH244608   6.755   4.780  10.147 -0.2278  0.0486  0.2197
 7706TIP3    H144609   6.688   4.713  10.153 -0.8840  0.5458 -1.2410
 7706TIP3    H244610   6.706   4.863  10.145  0.5758  0.7032  2.8065
 7707TIP3   OH244611   3.742   5.975   0.944  0.2741  0.5658  0.6126
 7707TIP3    H144612   3.667   6.001   0.997 -0.0050 -0.0744  0.5424
 7707TIP3    H244613   3.771   5.892   0.982 -0.0874 -0.0304 -0.3647
 7708TIP3   OH244614   0.093   0.718  15.664 -0.1691 -0.2618 -0.2053
 7708TIP3    H144615   0.171   0.760  15.628 -0.6172  1.0180  0.2604
 7708TIP3    H244616   0.077   0.643  15.607  1.8092 -0.9818  0.1185
 7709TIP3   OH244617   5.163   6.389  15.392 -0.1769 -0.2404 -0.3336
 7709TIP3    H144618   5.090   6.410  15.335  0.9114 -0.4284 -1.8550
 7709TIP3    H244619   5.221   6.464  15.386 -0.3613  0.0417  1.1015
 7710TIP3   OH244620   2.049   1.053   3.939  0.1362  0.0831  0.0640
 7710TIP3    H144621   2.068   1.101   4.020  0.4045  0.9943 -0.5284
 7710TIP3    H244622   1.964   1.012   3.955 -0.6467  1.6793  0.1849
 7711TIP3   OH244623   0.414   0.246   2.285 -0.6240 -0.2087  0.1853
 7711TIP3    H144624   0.366   0.197   2.218  0.4807  0.7212 -1.3553
 7711TIP3    H244625   0.505   0.244   2.255 -0.3449  1.5999  0.8059
 7712TIP3   OH244626   6.216   6.737   1.089 -0.1642  0.3208 -0.2981
 7712TIP3    H144627   6.121   6.736   1.101 -0.3446  0.3079 -1.5585
 7712TIP3    H244628   6.241   6.828   1.107 -0.3225  0.2102  0.5516
 7713TIP3   OH244629   1.146   4.057  14.379 -0.5921  0.5528 -0.0086
 7713TIP3    H144630   1.201   4.079  14.304  0.1242  0.7237  0.5501
 7713TIP3    H244631   1.064   4.103  14.363  0.0262  1.6924 -0.0331
 7714TIP3   OH244632   4.795   0.187  13.440  0.1748 -0.5896  0.0821
 7714TIP3    H144633   4.753   0.102  13.451  1.6588 -1.5329 -1.1756
 7714TIP3    H244634   4.887   0.172  13.459  0.5324  0.6432 -0.5068
 7715TIP3   OH244635   0.716   2.456  13.829 -0.2518  0.1390 -0.1805
 7715TIP3    H144636   0.628   2.461  13.866 -0.6715  0.6474 -1.2168
 7715TIP3    H244637   0.731   2.543  13.792  0.2221 -0.3064 -1.0532
 7716TIP3   OH244638   4.757   3.303   3.860  0.4075  0.1638 -0.5175
 7716TIP3    H144639   4.723   3.257   3.936 -0.5595  0.8552 -0.5164
 7716TIP3    H244640   4.839   3.342   3.890 -0.5152  1.3841  0.5315
 7717TIP3   OH244641   0.909   6.764   4.868 -0.3875  0.0758 -0.1362
 7717TIP3    H144642   0.989   6.816   4.875  0.2830 -0.6265 -1.8420
 7717TIP3    H244643   0.849   6.819   4.818 -0.8161  0.4361  0.7758
 7718TIP3   OH244644   6.746   5.096   3.801  0.8006 -0.5109  0.3263
 7718TIP3    H144645   6.758   5.016   3.749 -0.1997 -1.1964  1.1140
 7718TIP3    H244646   6.704   5.157   3.740  1.3735 -0.6566 -0.2197
 7719TIP3   OH244647   1.934   2.366  16.663  0.1153  0.0745  0.6709
 7719TIP3    H144648   1.918   2.426  16.736 -2.0778  0.4945 -0.0861
 7719TIP3    H244649   1.853   2.315  16.657  0.6800 -0.6811 -0.8076
 7720TIP3   OH244650   6.231   0.650  15.459  0.5808 -0.5183  0.0905
 7720TIP3    H144651   6.169   0.722  15.442  0.3054 -0.7406  0.1490
 7720TIP3    H244652   6.175   0.576  15.482  0.9359 -0.2573  1.9086
 7721TIP3   OH244653   3.099   4.444  12.352 -0.0432  0.3798 -0.1226
 7721TIP3    H144654   3.153   4.475  12.279  0.8303 -0.3829  0.1764
 7721TIP3    H244655   3.154   4.379  12.396 -0.4336  1.0633  1.4167
 7722TIP3   OH244656   6.509   4.813  15.357  0.0312  0.0880 -0.6070
 7722TIP3    H144657   6.438   4.762  15.317 -1.5078  1.7909 -0.2219
 7722TIP3    H244658   6.567   4.748  15.395 -0.6365 -1.4290 -2.0590
 7723TIP3   OH244659   6.723   1.197   1.612 -0.2407  0.3847  0.1898
 7723TIP3    H144660   6.790   1.129   1.614 -1.7066 -1.2100 -1.2076
 7723TIP3    H244661   6.768   1.277   1.639  2.1690 -0.6324 -0.5868
 7724TIP3   OH244662   5.548   0.913  14.108 -0.2880  0.1974 -1.2901
 7724TIP3    H144663   5.558   0.821  14.132  0.7686  0.5610 -0.2250
 7724TIP3    H244664   5.462   0.918  14.067 -0.1244 -1.3626 -1.8828
 7725TIP3   OH244665   1.373   4.912  12.718 -0.6385 -0.0457 -0.4901
 7725TIP3    H144666   1.384   4.842  12.782  0.3472 -0.1922 -0.8048
 7725TIP3    H244667   1.428   4.983  12.750 -0.9079  0.2458 -0.6662
 7726TIP3   OH244668   5.124   2.226  12.766 -0.1320 -0.1089 -0.2105
 7726TIP3    H144669   5.045   2.254  12.720  1.1543 -2.0515 -4.0141
 7726TIP3    H244670   5.101   2.139  12.801  0.0840 -0.3496 -0.6632
 7727TIP3   OH244671   0.260   6.281  13.560 -0.0527 -0.0727  0.2885
 7727TIP3    H144672   0.304   6.365  13.548 -1.5729  0.6040 -0.9887
 7727TIP3    H244673   0.331   6.218  13.573  1.0815  1.5309  2.3674
 7728TIP3   OH244674   0.204   0.798   0.550 -0.4885 -0.3827  0.4402
 7728TIP3    H144675   0.267   0.807   0.621 -1.3318  0.7045  1.0865
 7728TIP3    H244676   0.257   0.784   0.472  0.4513 -3.0353  1.4096
 7729TIP3   OH244677   0.243   0.375  16.305 -0.0128 -0.3180  0.1399
 7729TIP3    H144678   0.220   0.443  16.369  0.8416  0.0623  0.0657
 7729TIP3    H244679   0.240   0.420  16.221 -0.8743 -0.7531 -0.0723
 7730TIP3   OH244680   0.911   4.201  14.321  0.3227  0.4444 -0.2154
 7730TIP3    H144681   0.887   4.289  14.349 -0.4438 -0.2488  1.4241
 7730TIP3    H244682   0.848   4.180  14.252  1.7673  1.8851 -2.1013
 7731TIP3   OH244683   1.688   3.800  14.883 -0.2109  0.2171  0.5125
 7731TIP3    H144684   1.740   3.772  14.958 -0.6518 -0.2560  0.6412
 7731TIP3    H244685   1.638   3.723  14.857 -2.8606  1.2876  2.0047
 7732TIP3   OH244686   1.335   5.946  10.202  0.3780 -0.8902 -0.8334
 7732TIP3    H144687   1.405   5.883  10.217 -1.0372 -2.3065  0.1566
 7732TIP3    H244688   1.287   5.911  10.127 -0.6825 -1.2863  0.0009
 7733TIP3   OH244689   0.453   2.279  13.025  0.4236  0.3645 -0.0073
 7733TIP3    H144690   0.415   2.351  13.075 -0.5497 -0.4566  0.4685
 7733TIP3    H244691   0.447   2.307  12.934  0.1269  0.9159  0.1808
 7734TIP3   OH244692   0.231   1.908  12.672  0.5798 -0.0109 -0.3935
 7734TIP3    H144693   0.285   1.870  12.603  0.2004 -1.0691 -0.1275
 7734TIP3    H244694   0.257   1.861  12.751 -1.2343 -1.0871 -0.3847
 7735TIP3   OH244695   2.296   4.479   1.684 -0.2028  0.0721  0.2868
 7735TIP3    H144696   2.355   4.541   1.641 -1.6891  0.6453 -1.0176
 7735TIP3    H244697   2.332   4.393   1.663  0.5767  0.4210  0.1531
 7736TIP3   OH244698   0.373   6.077  12.472  0.0175 -0.1486  0.1858
 7736TIP3    H144699   0.280   6.054  12.466 -0.9163  3.1829 -0.5502
 7736TIP3    H244700   0.420   5.999  12.441 -2.5482 -1.6136 -0.3019
 7737TIP3   OH244701   1.855   1.901  15.065  0.1293  0.5532 -0.2751
 7737TIP3    H144702   1.885   1.957  15.137  0.9352  0.6876 -0.7066
 7737TIP3    H244703   1.760   1.898  15.075  0.3076 -0.3517  1.4766
 7738TIP3   OH244704   0.284   6.488   3.091  0.4203  0.1839 -0.5535
 7738TIP3    H144705   0.356   6.544   3.062  0.2194  0.1871 -1.0456
 7738TIP3    H244706   0.318   6.399   3.081  0.2758  0.1781 -1.0034
 7739TIP3   OH244707   6.859   0.166  14.887  0.0158  0.7468 -0.6673
 7739TIP3    H144708   6.876   0.135  14.798  0.8080 -1.0062  0.0406
 7739TIP3    H244709   6.944   0.192  14.921  0.3341 -1.6985  0.6298
 7740TIP3   OH244710   1.399   1.819  14.980  0.2864  0.1426  0.3201
 7740TIP3    H144711   1.341   1.745  14.959 -0.3063  0.4688  0.7844
 7740TIP3    H244712   1.397   1.874  14.901 -0.5414  0.4730  0.5664
 7741TIP3   OH244713   0.687   3.333   0.602  0.4051 -0.5594  0.7903
 7741TIP3    H144714   0.595   3.329   0.628  0.2228 -0.9055  0.1271
 7741TIP3    H244715   0.701   3.424   0.575 -0.1355 -0.8154 -0.4387
 7742TIP3   OH244716   1.327   1.824  13.508  0.5911 -0.0907  0.0304
 7742TIP3    H144717   1.365   1.819  13.421  0.9877  1.3208  0.1058
 7742TIP3    H244718   1.402   1.821  13.567  0.3181 -1.1851  0.3516
 7743TIP3   OH244719   2.748   2.259   2.127 -0.4021 -0.9917 -0.6084
 7743TIP3    H144720   2.778   2.222   2.210  0.7895 -0.2942 -0.6951
 7743TIP3    H244721   2.829   2.281   2.080 -1.0452 -1.5919 -2.0618
 7744TIP3   OH244722   3.139   6.723  14.706 -0.5701 -0.7433 -0.2387
 7744TIP3    H144723   3.233   6.736  14.722 -0.3760 -2.0210 -0.1996
 7744TIP3    H244724   3.096   6.793  14.755  0.3408 -0.5456  0.3035
 7745TIP3   OH244725   4.628   0.491   2.022 -0.0211  0.4032 -0.1360
 7745TIP3    H144726   4.643   0.397   2.035  2.3673  0.5918 -1.0926
 7745TIP3    H244727   4.700   0.534   2.067 -0.2822  1.7015 -0.9074
 7746TIP3   OH244728   6.745   6.864  14.317 -0.2136  0.3470  0.7276
 7746TIP3    H144729   6.650   6.873  14.307 -0.4729 -2.2664  0.0797
 7746TIP3    H244730   6.760   6.769  14.319  2.5477  0.6145 -1.2349
 7747TIP3   OH244731   5.750   3.094  16.614  0.1573 -1.3029  0.3739
 7747TIP3    H144732   5.828   3.041  16.602  0.1032 -1.5675  1.1931
 7747TIP3    H244733   5.712   3.101  16.526  1.1787 -1.0378 -0.0530
 7748TIP3   OH244734   0.352   2.041   2.682  0.2653 -0.2807 -0.2133
 7748TIP3    H144735   0.409   2.056   2.606  0.9372  1.2929  0.5557
 7748TIP3    H244736   0.275   1.997   2.646  1.2245 -0.9295 -1.5537
 7749TIP3   OH244737   3.636   3.944   1.636 -0.7485  0.2097  0.0146
 7749TIP3    H144738   3.691   3.885   1.687 -1.2902  0.0426  0.4055
 7749TIP3    H244739   3.617   4.016   1.696  0.0778  0.9040 -0.5191
 7750TIP3   OH244740   3.876   6.267  13.209  0.0454  0.1846  0.2099
 7750TIP3    H144741   3.818   6.311  13.271  0.4846  0.5388  0.3736
 7750TIP3    H244742   3.901   6.336  13.147 -1.2447 -0.4041 -1.0001
 7751TIP3   OH244743   2.836   3.262   4.709  0.2370 -0.4397  0.2455
 7751TIP3    H144744   2.788   3.295   4.786  1.3233 -0.0209  0.7665
 7751TIP3    H244745   2.768   3.227   4.652 -0.7160  0.3742  0.8423
 7752TIP3   OH244746   1.735   6.346  16.319  0.0006  0.0771  0.1995
 7752TIP3    H144747   1.820   6.303  16.328 -0.0459  0.1911  1.3481
 7752TIP3    H244748   1.672   6.274  16.316 -0.0943 -0.0000  2.3124
 7753TIP3   OH244749   5.268   4.457   1.794  0.2340  0.5624  0.1164
 7753TIP3    H144750   5.308   4.534   1.754  1.4952 -0.4720 -0.6710
 7753TIP3    H244751   5.331   4.427   1.859  0.2961 -0.4894 -0.4119
 7754TIP3   OH244752   4.847   4.231  16.587 -0.5475  0.6427 -0.0687
 7754TIP3    H144753   4.868   4.292  16.516  1.5098 -2.1320 -2.0674
 7754TIP3    H244754   4.758   4.201  16.568 -0.5094  0.9374 -0.7180
 7755TIP3   OH244755   1.588   6.376  14.192 -0.2283  0.3026 -0.6099
 7755TIP3    H144756   1.598   6.294  14.240 -0.0982 -0.1701 -1.4261
 7755TIP3    H244757   1.677   6.407  14.178 -0.2730  0.5303 -0.4073
 7756TIP3   OH244758   0.905   4.527   2.091 -0.4618 -0.2267  0.7485
 7756TIP3    H144759   0.922   4.436   2.066  0.9571 -0.0537  1.0556
 7756TIP3    H244760   0.937   4.579   2.017 -0.1186  0.0869  1.1159
 7757TIP3   OH244761   6.114   0.628  16.421 -0.0227 -0.3190 -0.1609
 7757TIP3    H144762   6.025   0.605  16.448 -0.1954  0.2018 -0.2785
 7757TIP3    H244763   6.111   0.723  16.408  0.4998 -0.3290 -0.3508
 7758TIP3   OH244764   1.900   5.566  11.107 -0.2175  0.3079 -0.2563
 7758TIP3    H144765   1.872   5.644  11.155  0.8082  1.6900 -1.7969
 7758TIP3    H244766   1.881   5.493  11.166  1.0819  1.9075  2.2654
 7759TIP3   OH244767   6.521   1.877   4.716 -0.1310 -0.2670 -0.7782
 7759TIP3    H144768   6.472   1.834   4.785  0.4259 -0.1299 -0.2925
 7759TIP3    H244769   6.605   1.900   4.756  0.4277 -0.6931 -1.6435
 7760TIP3   OH244770   1.635   3.287  14.875  0.5917  0.3021  0.1233
 7760TIP3    H144771   1.589   3.234  14.810 -0.1956  3.4952 -2.1049
 7760TIP3    H244772   1.726   3.259  14.869 -0.0328 -2.0782  0.4802
 7761TIP3   OH244773   0.470   3.648   3.169  0.0003  0.1774  0.8035
 7761TIP3    H144774   0.512   3.731   3.191 -2.0009  1.3568  0.4134
 7761TIP3    H244775   0.394   3.672   3.116 -0.3555 -1.9498  0.2340
 7762TIP3   OH244776   6.569   3.062  11.993 -0.2003  0.9145 -0.4002
 7762TIP3    H144777   6.532   2.974  11.987  1.9384 -0.0328 -0.6223
 7762TIP3    H244778   6.587   3.087  11.902  2.1752  0.1826 -0.1894
 7763TIP3   OH244779   2.426   0.195   2.787 -0.2098 -0.2197 -0.0324
 7763TIP3    H144780   2.449   0.227   2.700  2.4720  0.1449  0.7390
 7763TIP3    H244781   2.396   0.273   2.834  1.5309  0.2699  0.3286
 7764TIP3   OH244782   4.493   5.985   5.060 -0.2271  0.4267  0.0940
 7764TIP3    H144783   4.500   6.057   4.998 -2.0189 -0.9736 -1.8587
 7764TIP3    H244784   4.530   5.909   5.014  2.1150  0.1138  2.2937
 7765TIP3   OH244785   5.154   2.221   4.578  0.0522  0.2476  0.2218
 7765TIP3    H144786   5.121   2.181   4.498 -0.2376  0.0693  0.4276
 7765TIP3    H244787   5.152   2.150   4.643  1.2704  0.0972  0.1267
 7766TIP3   OH244788   4.662   5.754   5.022 -0.1543 -0.3093  0.1993
 7766TIP3    H144789   4.598   5.705   5.074  0.0872  0.1075  0.9110
 7766TIP3    H244790   4.718   5.796   5.087 -0.9318  1.6942 -0.3239
 7767TIP3   OH244791   2.751   1.856   1.829 -0.3334  0.1431  0.5521
 7767TIP3    H144792   2.680   1.798   1.801 -1.9552  1.6269  1.3756
 7767TIP3    H244793   2.782   1.897   1.748  0.7825 -1.7436 -0.0303
 7768TIP3   OH244794   1.192   6.021  16.831  0.4387 -0.1677 -0.5383
 7768TIP3    H144795   1.269   6.078  16.829  1.9471 -1.9895  1.5836
 7768TIP3    H244796   1.194   5.976  16.746  1.5172  0.0353 -0.6378
 7769TIP3   OH244797   3.566   2.834  13.280 -0.0359 -0.0759 -0.3779
 7769TIP3    H144798   3.621   2.772  13.327 -0.3316  0.5884  0.8952
 7769TIP3    H244799   3.626   2.904  13.253 -0.3072  1.0388  1.6913
 7770TIP3   OH244800   2.713   3.194   4.487 -0.3807  0.2144 -0.0675
 7770TIP3    H144801   2.773   3.238   4.427  1.2080 -1.2781  0.3783
 7770TIP3    H244802   2.744   3.103   4.490 -2.1402 -0.3982  0.8577
 7771TIP3   OH244803   1.954   0.623  16.398 -0.1454  0.4020 -0.1750
 7771TIP3    H144804   2.007   0.675  16.338 -0.6756  1.1727  0.0160
 7771TIP3    H244805   1.921   0.551  16.344 -0.8737  1.2528 -0.9031
 7772TIP3   OH244806   2.836   4.560  11.720  0.2305  0.7330 -0.5771
 7772TIP3    H144807   2.839   4.474  11.762  0.0382  0.3017 -1.4275
 7772TIP3    H244808   2.761   4.555  11.661  0.0594  1.5800 -0.4496
 7773TIP3   OH244809   0.854   6.721   5.124  0.1997 -0.0084  0.4689
 7773TIP3    H144810   0.816   6.633   5.121 -0.0462  0.0443  1.5674
 7773TIP3    H244811   0.877   6.740   5.033 -0.4418 -0.9005  0.1025
 7774TIP3   OH244812   1.520   6.369  12.177 -0.3498  0.4787 -0.0483
 7774TIP3    H144813   1.586   6.400  12.240  1.2075  0.1085 -1.4355
 7774TIP3    H244814   1.471   6.448  12.153  0.4262  1.0028  0.0597
 7775TIP3   OH244815   6.853   2.095   2.071 -0.4187  0.2610 -0.0145
 7775TIP3    H144816   6.844   2.080   2.165 -0.6026  1.0738  0.1055
 7775TIP3    H244817   6.927   2.156   2.064 -0.1567 -0.1019 -0.4248
 7776TIP3   OH244818   0.629   5.187   1.403 -0.0673 -0.0813  0.7836
 7776TIP3    H144819   0.643   5.095   1.426 -0.5261 -0.4855 -0.4812
 7776TIP3    H244820   0.534   5.198   1.405  0.0450  1.1998  3.9057
 7777TIP3   OH244821   5.880   4.514  14.369 -0.4459 -0.4258  0.2465
 7777TIP3    H144822   5.922   4.461  14.301  1.1635  0.0626  0.8289
 7777TIP3    H244823   5.786   4.498  14.356 -0.1526 -0.9584 -1.5776
 7778TIP3   OH244824   1.378   0.562  12.632 -0.7651 -0.2386  0.2164
 7778TIP3    H144825   1.420   0.491  12.679 -1.3428  0.6945  2.2505
 7778TIP3    H244826   1.443   0.632  12.630 -0.8741 -0.1404 -0.0689
 7779TIP3   OH244827   5.357   1.543   2.878  0.1892 -0.0426 -0.2745
 7779TIP3    H144828   5.357   1.513   2.969 -1.2553  0.7862  0.0398
 7779TIP3    H244829   5.447   1.572   2.862  0.4559 -0.1731  0.9097
 7780TIP3   OH244830   1.319   1.253  15.582 -0.1916 -0.0669 -0.1053
 7780TIP3    H144831   1.324   1.179  15.642  0.3211 -1.6748 -2.0122
 7780TIP3    H244832   1.228   1.283  15.587 -0.8275 -1.8352 -0.3889
 7781TIP3   OH244833   1.545   2.987   3.695  0.4182 -0.2207 -0.5872
 7781TIP3    H144834   1.467   2.971   3.748 -1.9886  2.0943 -3.0835
 7781TIP3    H244835   1.532   2.931   3.618  1.0678  0.4082 -1.1628
 7782TIP3   OH244836   1.548   5.812  13.127  0.4379 -0.2994 -0.2319
 7782TIP3    H144837   1.600   5.823  13.048  1.7673 -1.7548  0.3713
 7782TIP3    H244838   1.592   5.866  13.193  2.0944 -2.5190  0.6199
 7783TIP3   OH244839   6.021   0.097  10.704  0.1788  0.1692  0.3727
 7783TIP3    H144840   6.112   0.109  10.677  0.0574  0.0697 -0.0848
 7783TIP3    H244841   6.002   0.005  10.686 -0.6061  0.6362 -1.3950
 7784TIP3   OH244842   2.210   5.495   2.547  0.5544  0.4314  0.2392
 7784TIP3    H144843   2.289   5.473   2.596 -0.2141  1.7083  2.1509
 7784TIP3    H244844   2.203   5.590   2.555 -2.2103  0.1853  1.8534
 7785TIP3   OH244845   2.651   4.747   1.241 -0.3651  0.0330  0.6141
 7785TIP3    H144846   2.615   4.711   1.322 -1.3357  1.2358  0.7325
 7785TIP3    H244847   2.640   4.677   1.176 -3.0237  0.3479  0.6163
 7786TIP3   OH244848   0.520   3.843  16.725  0.2811 -0.0697  0.2394
 7786TIP3    H144849   0.523   3.788  16.647 -0.1544 -0.1392  0.2730
 7786TIP3    H244850   0.457   3.800  16.783 -0.0414  0.4532  0.2749
 7787TIP3   OH244851   0.663   2.172   0.298  0.2313  0.2703 -0.2522
 7787TIP3    H144852   0.646   2.103   0.362 -0.1040  0.3747 -0.2250
 7787TIP3    H244853   0.679   2.250   0.350 -0.3501  0.4256 -0.2927
 7788TIP3   OH244854   6.640   4.357  16.749  0.6133 -0.0519  0.1208
 7788TIP3    H144855   6.601   4.429  16.699  1.7390  0.1893 -0.4351
 7788TIP3    H244856   6.569   4.292  16.757  0.5051 -0.2907 -2.1673
 7789TIP3   OH244857   5.129   6.803   3.630  0.1245 -0.3395  0.4412
 7789TIP3    H144858   5.118   6.845   3.715 -0.5066  1.2803 -0.3871
 7789TIP3    H244859   5.061   6.735   3.627  1.5197 -1.8963  2.0291
 7790TIP3   OH244860   4.490   5.864   3.568 -0.5133  0.2157 -0.0672
 7790TIP3    H144861   4.487   5.934   3.633 -0.5571  0.3413 -0.2037
 7790TIP3    H244862   4.398   5.842   3.552 -0.4896 -1.8190  2.0587
 7791TIP3   OH244863   4.964   0.284  11.755 -0.4399  0.0703  0.2032
 7791TIP3    H144864   5.049   0.255  11.720 -0.2038 -0.7247  1.3478
 7791TIP3    H244865   4.984   0.367  11.798 -0.1371 -0.2939  0.7927
 7792TIP3   OH244866   3.824   4.908   3.721  0.5131 -0.3177 -0.3979
 7792TIP3    H144867   3.878   4.873   3.650 -1.0530  0.7321 -2.2022
 7792TIP3    H244868   3.774   4.832   3.752 -0.8630 -0.3175 -2.4214
 7793TIP3   OH244869   5.104   6.695  11.828 -0.4398 -0.2240  0.2090
 7793TIP3    H144870   5.127   6.715  11.918  1.0279  2.8268 -0.7127
 7793TIP3    H244871   5.031   6.754  11.807 -4.8505 -4.6999  0.8453
 7794TIP3   OH244872   1.990   1.225  10.591 -0.1208  0.4831  0.2138
 7794TIP3    H144873   1.994   1.313  10.628 -1.5213 -0.7365  3.6703
 7794TIP3    H244874   2.053   1.174  10.641  1.2896 -0.4084 -2.2989
 7795TIP3   OH244875   2.731   3.177   3.764 -0.8286  0.1515 -0.2040
 7795TIP3    H144876   2.788   3.253   3.751  1.1015 -1.3862 -1.1041
 7795TIP3    H244877   2.679   3.172   3.683  0.3018 -0.4842 -0.9122
 7796TIP3   OH244878   5.396   2.473  16.632 -0.4103  0.4617 -0.1928
 7796TIP3    H144879   5.466   2.535  16.652 -1.2445  1.6931 -0.8955
 7796TIP3    H244880   5.365   2.444  16.718 -0.1859  1.2666  0.1756
 7797TIP3   OH244881   3.510   2.758  11.609  0.0025 -0.0588 -0.2795
 7797TIP3    H144882   3.600   2.735  11.632  0.3053 -0.3282 -1.6477
 7797TIP3    H244883   3.465   2.766  11.693  2.0134  3.1548  0.6965
 7798TIP3   OH244884   3.247   2.261   2.840 -0.1559  0.3879 -0.0479
 7798TIP3    H144885   3.341   2.269   2.825  0.8849 -2.0195  3.9016
 7798TIP3    H244886   3.215   2.351   2.841  2.1387  1.2815 -1.1539
 7799TIP3   OH244887   6.733   4.483   0.834 -0.3508  0.4826 -0.5220
 7799TIP3    H144888   6.817   4.524   0.854 -0.2504  0.9397 -1.7541
 7799TIP3    H244889   6.703   4.447   0.917 -0.0732  2.3695  0.4423
 7800TIP3   OH244890   4.903   1.777  11.295 -0.0324 -0.4912 -0.5023
 7800TIP3    H144891   4.809   1.783  11.275  0.1541  0.9717 -1.0458
 7800TIP3    H244892   4.944   1.755  11.211  0.1971 -0.0832 -0.5012
 7801TIP3   OH244893   4.584   1.877   0.808  0.6133 -0.2443 -0.2143
 7801TIP3    H144894   4.660   1.872   0.751  0.4142 -0.5152 -0.4623
 7801TIP3    H244895   4.620   1.884   0.897  0.9243 -0.5585 -0.3138
 7802TIP3   OH244896   0.772   4.019  12.724  0.5021  0.2071 -0.2323
 7802TIP3    H144897   0.717   4.040  12.649 -0.0812 -0.2269  0.0604
 7802TIP3    H244898   0.721   4.047  12.800  1.1999  0.8816 -0.0056
 7803TIP3   OH244899   3.278   5.965   5.639 -0.6822 -0.1026 -0.1810
 7803TIP3    H144900   3.250   5.875   5.624 -0.1922  0.1921 -3.7100
 7803TIP3    H244901   3.200   6.018   5.624 -1.1235  0.1318  2.4857
 7804TIP3   OH244902   6.674   0.181   0.706  0.2909 -0.2409  0.3397
 7804TIP3    H144903   6.769   0.185   0.691  0.0666  0.1953 -1.1638
 7804TIP3    H244904   6.636   0.206   0.621 -1.1683 -0.3382  0.9459
 7805TIP3   OH244905   1.315   3.228  11.902 -0.0768 -0.3373  0.0952
 7805TIP3    H144906   1.229   3.205  11.937 -0.0956 -0.0928  0.2128
 7805TIP3    H244907   1.371   3.155  11.929 -0.7813 -1.8884 -2.2821
 7806TIP3   OH244908   1.405   3.441   5.858 -0.3621  0.7376  0.2190
 7806TIP3    H144909   1.314   3.417   5.845 -0.0453  0.2088 -1.2461
 7806TIP3    H244910   1.407   3.536   5.848 -0.4328  0.5397 -2.1177
 7807TIP3   OH244911   6.005   5.807   1.229  0.5562  0.2107 -0.1267
 7807TIP3    H144912   6.080   5.827   1.172  0.8294  0.1289  0.1990
 7807TIP3    H244913   6.040   5.743   1.291 -0.4392 -1.8081 -1.5356
 7808TIP3   OH244914   4.461   5.962  15.630 -0.0825  0.0086 -0.5674
 7808TIP3    H144915   4.508   6.012  15.564  1.0984 -1.4591 -0.9001
 7808TIP3    H244916   4.413   6.028  15.681  0.1200  1.2893 -1.9706
 7809TIP3   OH244917   1.021   1.110  15.211 -0.8086 -0.2147  0.4275
 7809TIP3    H144918   1.040   1.056  15.134  0.3592  2.5125 -1.3378
 7809TIP3    H244919   0.930   1.091  15.232 -1.3422 -0.6543 -1.9900
 7810TIP3   OH244920   4.306   1.331   1.607  0.4779 -0.3522  0.2861
 7810TIP3    H144921   4.372   1.307   1.542 -0.8129  0.5162 -1.4089
 7810TIP3    H244922   4.222   1.314   1.564 -0.4426 -0.0921  1.8745
 7811TIP3   OH244923   2.951   1.599  15.528  0.0551  0.3283  0.3565
 7811TIP3    H144924   2.893   1.560  15.594  0.8109  0.6738  1.2449
 7811TIP3    H244925   2.938   1.693  15.538  0.4098  0.3907  0.2303
 7812TIP3   OH244926   6.683   2.440  11.518  0.3002 -0.0671  0.2948
 7812TIP3    H144927   6.758   2.402  11.565 -0.8564 -2.1864  0.5774
 7812TIP3    H244928   6.607   2.393  11.552 -1.0239  1.0824 -0.9349
 7813TIP3   OH244929   0.644   2.637  11.522  0.4691 -0.0140  0.2934
 7813TIP3    H144930   0.738   2.630  11.539  0.6669 -1.5508 -1.1779
 7813TIP3    H244931   0.636   2.626  11.427 -1.1472  0.8481  0.2926
 7814TIP3   OH244932   1.725   3.632   1.322 -0.1488 -0.4085  0.3520
 7814TIP3    H144933   1.791   3.621   1.390  0.0898  1.5210  0.4995
 7814TIP3    H244934   1.742   3.719   1.287  0.4749 -1.7113 -2.9804
 7815TIP3   OH244935   0.663   0.870   2.003  0.5113 -1.1689  0.1891
 7815TIP3    H144936   0.569   0.882   1.988  0.7598 -0.4187 -0.9127
 7815TIP3    H244937   0.674   0.776   2.012 -0.4077 -1.2296  0.7834
 7816TIP3   OH244938   5.572   3.501  13.822  0.8705 -0.6675 -0.5266
 7816TIP3    H144939   5.514   3.430  13.847  0.0003 -0.4356 -1.7664
 7816TIP3    H244940   5.538   3.578  13.869  0.5623 -0.6635 -0.7541
 7817TIP3   OH244941   0.842   0.706  11.619  0.1674  0.3539 -0.1722
 7817TIP3    H144942   0.823   0.735  11.708  0.4553  0.3919 -0.1253
 7817TIP3    H244943   0.926   0.746  11.597  0.0668  0.3993 -0.4842
 7818TIP3   OH244944   1.183   0.657  13.247 -0.1528  0.4874 -0.4848
 7818TIP3    H144945   1.143   0.744  13.249  0.1886  0.6413  1.3270
 7818TIP3    H244946   1.276   0.674  13.234  0.6042  0.7921  3.9026
 7819TIP3   OH244947   3.615   0.454  11.417  0.5456  0.4828 -0.1362
 7819TIP3    H144948   3.587   0.537  11.379  1.5556  2.1657  2.5312
 7819TIP3    H244949   3.661   0.410  11.346 -1.2813  1.4852 -2.0479
 7820TIP3   OH244950   6.228   3.472   0.419 -0.5003 -0.2631 -0.2177
 7820TIP3    H144951   6.289   3.544   0.439  0.6347 -1.0932 -0.5675
 7820TIP3    H244952   6.170   3.509   0.352 -1.1313  0.9084  0.9230
 7821TIP3   OH244953   3.663   1.270  14.772 -0.3843 -0.4010  0.1474
 7821TIP3    H144954   3.707   1.351  14.744  0.6887 -1.4389 -1.3303
 7821TIP3    H244955   3.733   1.217  14.811 -0.6884 -1.3457 -0.5623
 7822TIP3   OH244956   6.449   2.499   5.789  0.2177  0.2465 -0.3069
 7822TIP3    H144957   6.387   2.567   5.815 -2.4595 -1.8875 -0.6898
 7822TIP3    H244958   6.533   2.528   5.826 -1.9956  0.5359  5.4581
 7823TIP3   OH244959   1.188   6.370   4.121 -0.5592 -0.1992 -0.3285
 7823TIP3    H144960   1.249   6.368   4.195  0.5320 -0.8697 -1.2150
 7823TIP3    H244961   1.140   6.452   4.133  0.1374  0.0890  0.6911
 7824TIP3   OH244962   3.152   2.991  14.428  0.0416 -0.0753 -0.4619
 7824TIP3    H144963   3.208   3.000  14.506 -0.1455 -1.5093 -0.1274
 7824TIP3    H244964   3.136   3.081  14.400  0.7069  0.4532  0.7339
 7825TIP3   OH244965   2.627   5.613  15.611 -0.0126  0.1607 -0.3744
 7825TIP3    H144966   2.669   5.609  15.697 -0.5571 -3.6798 -0.1119
 7825TIP3    H244967   2.691   5.572  15.551 -0.7367  0.2740 -1.2443
 7826TIP3   OH244968   5.959   4.689   1.723 -0.1579  0.2493 -0.3051
 7826TIP3    H144969   5.959   4.623   1.654 -1.2769  0.0651 -0.1426
 7826TIP3    H244970   5.873   4.682   1.764 -0.5634  2.2480 -0.7026
 7827TIP3   OH244971   6.058   6.222   0.720 -0.3792  0.1034 -0.9566
 7827TIP3    H144972   6.017   6.306   0.737  0.8903  0.2662  1.9047
 7827TIP3    H244973   6.090   6.229   0.630 -0.2479  2.7293 -0.7931
 7828TIP3   OH244974   1.992   5.504  15.421 -0.3213  0.2312  0.1358
 7828TIP3    H144975   1.936   5.473  15.349 -1.8314  1.3382  0.7869
 7828TIP3    H244976   2.081   5.484  15.392 -0.8876  0.6095 -2.0342
 7829TIP3   OH244977   2.453   5.437  10.847  0.5318 -0.2999 -0.2239
 7829TIP3    H144978   2.430   5.378  10.918  0.3018 -2.9365 -2.3170
 7829TIP3    H244979   2.542   5.411  10.822  0.7977  0.9172 -0.6108
 7830TIP3   OH244980   4.018   2.009   2.702  0.2247  0.0348 -0.2590
 7830TIP3    H144981   3.968   1.928   2.707 -0.4981  0.5029  0.3295
 7830TIP3    H244982   4.043   2.016   2.610 -0.4727 -0.4010 -0.4920
 7831TIP3   OH244983   1.124   3.084   6.107  0.1002  0.2367  0.0705
 7831TIP3    H144984   1.157   3.009   6.155 -1.4716  0.4252  1.5398
 7831TIP3    H244985   1.202   3.130   6.076  1.0910 -1.8881 -0.7444
 7832TIP3   OH244986   1.835   0.033  15.334 -0.1653  0.0581 -0.2595
 7832TIP3    H144987   1.749   0.067  15.361  0.0968 -0.9496  2.1323
 7832TIP3    H244988   1.897   0.092  15.376  0.2734 -1.0433  0.6976
 7833TIP3   OH244989   6.717   0.919   3.807  0.0587 -0.7337 -0.8685
 7833TIP3    H144990   6.760   1.002   3.784  1.0372 -1.1354 -0.5442
 7833TIP3    H244991   6.624   0.936   3.792  0.4370 -0.3299 -3.1553
 7834TIP3   OH244992   0.425   4.761   4.926 -0.5076  0.3656 -0.0248
 7834TIP3    H144993   0.388   4.770   4.839 -0.8614 -0.2593  0.0517
 7834TIP3    H244994   0.438   4.851   4.956 -0.1553  0.5823 -0.8098
 7835TIP3   OH244995   2.729   5.118  12.105  0.6273  0.6259 -0.1831
 7835TIP3    H144996   2.823   5.119  12.090  0.5355  0.1706 -0.8397
 7835TIP3    H244997   2.720   5.101  12.199  1.2041  1.9015  0.1234
 7836TIP3   OH244998   0.124   3.798  12.789 -0.0968 -0.3415 -0.1614
 7836TIP3    H144999   0.213   3.835  12.787 -0.1471 -0.1690  0.4495
 7836TIP3    H245000   0.079   3.841  12.717  0.1540  0.0050 -0.1188
 7837TIP3   OH245001   2.254   5.993   2.456  0.9348  0.5604 -0.0426
 7837TIP3    H145002   2.183   6.055   2.473  0.8480  0.7539 -1.0446
 7837TIP3    H245003   2.283   5.965   2.543 -1.5288 -0.8678  0.3805
 7838TIP3   OH245004   0.357   5.347   5.242  0.0232  0.0559 -0.0562
 7838TIP3    H145005   0.381   5.390   5.324 -0.2068  2.7906 -1.3358
 7838TIP3    H245006   0.262   5.359   5.236 -0.3164 -2.0946  0.2763
 7839TIP3   OH245007   3.600   6.441   3.882 -0.3575  0.0075 -0.1864
 7839TIP3    H145008   3.640   6.416   3.965  1.0817  2.4403 -0.0572
 7839TIP3    H245009   3.668   6.492   3.837 -1.4729 -0.3498 -2.3932
 7840TIP3   OH245010   4.226   1.044   5.067 -0.1159 -0.0198 -0.0091
 7840TIP3    H145011   4.303   1.012   5.115  0.3193 -1.8334 -1.7689
 7840TIP3    H245012   4.258   1.064   4.979 -1.4317  0.3568 -0.4313
 7841TIP3   OH245013   2.875   4.330  16.053  0.0037 -0.4914 -0.7824
 7841TIP3    H145014   2.927   4.267  16.005 -0.7068 -0.4669 -1.6095
 7841TIP3    H245015   2.925   4.411  16.049  0.9682 -0.9982  0.3729
 7842TIP3   OH245016   2.696   5.647  16.845  0.2375 -0.6593  0.8682
 7842TIP3    H145017   2.672   5.559  16.814  0.0519 -0.4121  0.2958
 7842TIP3    H245018   2.624   5.672  16.902  0.4869 -1.0413  1.3580
 7843TIP3   OH245019   2.593   4.082   0.162 -0.1854  0.1568 -0.2774
 7843TIP3    H145020   2.552   4.138   0.227  1.3074  1.4466 -0.3834
 7843TIP3    H245021   2.534   4.086   0.086  0.2370  2.2772 -0.5700
 7844TIP3   OH245022   1.518   3.034  14.385  0.4288 -0.0343 -0.4936
 7844TIP3    H145023   1.452   3.083  14.338 -1.2893 -1.2477  0.5187
 7844TIP3    H245024   1.541   2.961  14.327  0.5838  0.1612 -0.6786
 7845TIP3   OH245025   4.646   5.409   2.453  0.0574  0.1825  0.1525
 7845TIP3    H145026   4.597   5.476   2.499 -1.0935 -0.6955  0.2473
 7845TIP3    H245027   4.580   5.358   2.406  1.1962  1.3375 -2.9260
 7846TIP3   OH245028   3.195   0.191   5.913 -0.1271 -0.0450 -0.4964
 7846TIP3    H145029   3.114   0.140   5.924 -0.6624  1.0821  1.1731
 7846TIP3    H245030   3.258   0.149   5.971 -0.6986  1.3461  1.2368
 7847TIP3   OH245031   2.271   4.620  15.899 -0.4087 -0.3499 -0.1267
 7847TIP3    H145032   2.300   4.547  15.845 -0.5184 -0.8725  0.5088
 7847TIP3    H245033   2.343   4.683  15.895  0.1243 -0.9331  0.1245
 7848TIP3   OH245034   1.555   6.522   1.535  0.5995  0.2924 -0.7549
 7848TIP3    H145035   1.544   6.476   1.452 -0.5199 -0.7239 -0.0896
 7848TIP3    H245036   1.542   6.454   1.602  1.4928  1.0721  0.2572
 7849TIP3   OH245037   6.724   4.288  12.037 -0.1328 -0.2922  0.0804
 7849TIP3    H145038   6.727   4.374  11.994  1.4823 -0.9558 -1.2305
 7849TIP3    H245039   6.703   4.309  12.128  0.2366  1.5113 -0.1961
 7850TIP3   OH245040   3.742   2.105  12.313  0.0376  0.1422 -0.4353
 7850TIP3    H145041   3.683   2.030  12.318 -2.0957  1.7423  0.2208
 7850TIP3    H245042   3.783   2.109  12.400 -0.9529  0.5343  0.0326
 7851TIP3   OH245043   3.685   5.269  13.649 -0.0066  0.7802  0.0590
 7851TIP3    H145044   3.753   5.319  13.605 -0.8841  1.6670 -0.3273
 7851TIP3    H245045   3.732   5.201  13.697  1.0910  0.9692 -0.7248
 7852TIP3   OH245046   1.914   3.897   2.400 -0.5725  0.2190 -0.5035
 7852TIP3    H145047   1.949   3.906   2.311  0.7918  0.1456 -0.0063
 7852TIP3    H245048   1.944   3.976   2.445 -0.5411 -0.1398  0.1078
 7853TIP3   OH245049   5.697   3.941   1.118  0.2666  0.5758  0.3735
 7853TIP3    H145050   5.753   3.872   1.154  0.1238  0.5375  0.5225
 7853TIP3    H245051   5.609   3.902   1.116 -0.1089  1.2713  1.9163
 7854TIP3   OH245052   5.742   5.405   1.772  0.6593  0.4599 -0.0989
 7854TIP3    H145053   5.699   5.400   1.686 -1.3875  0.8519  0.8445
 7854TIP3    H245054   5.670   5.409   1.835  2.0364 -2.4867  1.8816
 7855TIP3   OH245055   6.113   6.193   2.059  0.6802  0.2079  0.4990
 7855TIP3    H145056   6.066   6.273   2.037 -1.2343 -0.5057  1.6653
 7855TIP3    H245057   6.132   6.201   2.152 -0.2344 -0.9776  0.8170
 7856TIP3   OH245058   1.956   5.717   4.726 -0.1068 -0.0180 -0.3457
 7856TIP3    H145059   2.037   5.766   4.742  0.3494 -0.3532 -1.5029
 7856TIP3    H245060   1.976   5.628   4.758 -0.1233 -0.0272 -0.3615
 7857TIP3   OH245061   6.115   1.197   1.961  0.2839 -0.2995  0.1038
 7857TIP3    H145062   6.196   1.234   1.997  0.2824 -0.7919  0.6168
 7857TIP3    H245063   6.144   1.151   1.882  0.3564  0.3451 -0.2611
 7858TIP3   OH245064   5.568   3.700   2.079  0.2003 -0.4415 -0.3240
 7858TIP3    H145065   5.660   3.678   2.066  0.1967 -1.0164  0.5694
 7858TIP3    H245066   5.558   3.708   2.174 -0.7439 -0.6950 -0.3936
 7859TIP3   OH245067   3.833   1.270  13.952 -0.2666 -0.6333 -0.2455
 7859TIP3    H145068   3.790   1.311  13.877 -3.0767 -0.2099  1.4480
 7859TIP3    H245069   3.823   1.176  13.936  0.6737 -0.6015 -1.1614
 7860TIP3   OH245070   1.253   2.013  16.284  0.0904  0.0285  0.1011
 7860TIP3    H145071   1.175   2.046  16.329  0.1284  0.0062  0.1832
 7860TIP3    H245072   1.316   2.085  16.289 -1.1878  1.5926 -3.3045
 7861TIP3   OH245073   1.173   2.389  16.563  0.0991 -0.4290 -0.0285
 7861TIP3    H145074   1.189   2.357  16.474 -0.3177  0.4431 -0.4324
 7861TIP3    H245075   1.217   2.474  16.567  0.4747 -0.6533  0.7437
 7862TIP3   OH245076   0.807   1.005   1.400 -0.5244  0.2244 -0.7019
 7862TIP3    H145077   0.818   1.019   1.494  1.2546  1.3440 -1.0180
 7862TIP3    H245078   0.728   0.953   1.392 -0.1939 -0.7023  1.4785
 7863TIP3   OH245079   5.849   5.187   4.071 -0.3611  0.3094  0.6818
 7863TIP3    H145080   5.919   5.241   4.107 -0.1809  0.3021  0.3561
 7863TIP3    H245081   5.832   5.226   3.985 -1.1670  0.6689  0.9963
 7864TIP3   OH245082   4.778   3.469   1.191  0.3014 -0.2324  0.2725
 7864TIP3    H145083   4.697   3.451   1.239 -0.2983  1.8621  0.1675
 7864TIP3    H245084   4.824   3.385   1.189 -1.7465 -1.4349  0.5354
 7865TIP3   OH245085   6.624   4.796  12.189  0.3958 -0.2410  0.5587
 7865TIP3    H145086   6.554   4.750  12.142 -0.2218  0.6205  0.6087
 7865TIP3    H245087   6.636   4.745  12.269 -0.5697 -0.1115  0.8060
 7866TIP3   OH245088   5.073   3.719  12.066 -0.7084 -0.0924  0.0653
 7866TIP3    H145089   5.003   3.699  12.128  0.5861  0.6598  1.8518
 7866TIP3    H245090   5.104   3.806  12.093 -0.0984  0.2691 -1.6683
 7867TIP3   OH245091   4.029   1.479   3.823 -0.2492 -0.0520 -0.4080
 7867TIP3    H145092   4.067   1.560   3.790 -0.3710 -0.5506 -1.8502
 7867TIP3    H245093   4.086   1.453   3.895 -0.0319  1.1380 -0.1212
 7868TIP3   OH245094   5.994   3.456  15.996 -0.0389 -0.3478 -0.3400
 7868TIP3    H145095   5.937   3.395  15.948 -0.7114  0.1855 -0.2251
 7868TIP3    H245096   6.081   3.417  15.989 -0.4653 -1.3464 -0.2341
 7869TIP3   OH245097   1.605   3.841   4.793 -0.8431  0.2900  0.7005
 7869TIP3    H145098   1.633   3.780   4.861  1.4798 -2.4965 -2.4413
 7869TIP3    H245099   1.644   3.925   4.819 -0.2590 -0.5883  2.8997
 7870TIP3   OH245100   6.761   5.612   0.373 -0.0280  0.2203 -0.4394
 7870TIP3    H145101   6.781   5.582   0.285  0.5216 -0.7237 -0.0070
 7870TIP3    H245102   6.799   5.545   0.431 -0.3524  0.8324  0.5105
 7871TIP3   OH245103   5.721   3.105  14.614 -0.1216  0.1230  0.3376
 7871TIP3    H145104   5.732   3.160  14.692  1.6376 -0.5980  0.6505
 7871TIP3    H245105   5.809   3.069  14.597 -0.7309 -0.7540 -1.2258
 7872TIP3   OH245106   4.021   4.709   2.586  0.6172 -0.3189 -0.1139
 7872TIP3    H145107   3.961   4.763   2.535 -1.5130 -0.9622  1.5686
 7872TIP3    H245108   4.070   4.771   2.639  0.8528  0.1651 -0.8841
 7873TIP3   OH245109   1.482   0.227   0.773 -0.1656 -1.3740 -0.1425
 7873TIP3    H145110   1.453   0.308   0.816  1.3405 -1.2872  0.7725
 7873TIP3    H245111   1.518   0.257   0.689  1.2666 -0.9619  0.6045
 7874TIP3   OH245112   2.488   1.129  11.143  0.1517 -0.3857  0.2432
 7874TIP3    H145113   2.543   1.201  11.112 -1.7851  1.1873  0.2516
 7874TIP3    H245114   2.466   1.153  11.233 -0.7141 -0.8419  0.1691
 7875TIP3   OH245115   3.882   2.391  16.799  0.0783 -0.4531 -0.5831
 7875TIP3    H145116   3.803   2.416  16.847  0.9372 -0.3521  0.8430
 7875TIP3    H245117   3.855   2.318  16.744 -1.5241  0.9940 -1.8194
 7876TIP3   OH245118   6.607   0.526   3.746 -0.4759 -0.0157 -0.1832
 7876TIP3    H145119   6.680   0.570   3.789 -0.7418  0.1706  0.0883
 7876TIP3    H245120   6.529   0.561   3.790 -0.9688  2.2070 -2.5869
 7877TIP3   OH245121   1.990   1.715  11.975 -0.5192 -0.0384 -0.3790
 7877TIP3    H145122   2.062   1.652  11.967 -0.0248  0.4238  0.3680
 7877TIP3    H245123   2.005   1.777  11.904 -1.7404 -1.4585 -1.9414
 7878TIP3   OH245124   1.928   2.736  11.654 -0.2033  0.3869 -0.5702
 7878TIP3    H145125   2.012   2.702  11.686 -0.1037  0.0610 -1.1640
 7878TIP3    H245126   1.907   2.807  11.714  0.9170  1.0284 -0.9051
 7879TIP3   OH245127   2.349   3.161  12.778 -0.4566 -0.5393  0.4258
 7879TIP3    H145128   2.372   3.160  12.871  0.2703  0.8461  0.2798
 7879TIP3    H245129   2.366   3.071  12.748  0.3461 -0.7189  1.3805
 7880TIP3   OH245130   0.892   0.092  16.238 -0.6493 -0.0014  0.3494
 7880TIP3    H145131   0.807   0.048  16.236 -0.0999 -1.0526 -0.8606
 7880TIP3    H245132   0.939   0.051  16.311 -1.3905  1.0502  1.4559
 7881TIP3   OH245133   1.862   6.769  16.434  0.2634 -0.0674 -0.0538
 7881TIP3    H145134   1.792   6.815  16.387  1.0960  0.7236 -0.5582
 7881TIP3    H245135   1.929   6.836  16.448  0.9560 -0.8299  0.3417
 7882TIP3   OH245136   3.842   0.011   5.625  0.1935 -0.4091  0.0906
 7882TIP3    H145137   3.890  -0.025   5.700 -2.0885 -0.6539  1.5367
 7882TIP3    H245138   3.834  -0.062   5.564  0.0765 -0.9044  0.6809
 7883TIP3   OH245139   3.242   6.679  14.345 -0.0211 -0.1126  0.7288
 7883TIP3    H145140   3.193   6.645  14.269  3.3340 -1.9213 -0.8807
 7883TIP3    H245141   3.241   6.607  14.408 -0.2129  0.1961  1.0786
 7884TIP3   OH245142   5.144   1.519   4.492  0.6487  0.3815 -0.2130
 7884TIP3    H145143   5.110   1.561   4.571 -1.4708 -1.2658 -0.1572
 7884TIP3    H245144   5.125   1.581   4.422 -1.6248 -0.0121 -0.0176
 7885TIP3   OH245145   4.258   2.073  15.178 -0.2155 -0.0106 -0.0919
 7885TIP3    H145146   4.201   2.147  15.155  0.4432  0.7190  0.5492
 7885TIP3    H245147   4.282   2.089  15.269  0.0521 -0.9491  0.0140
 7886TIP3   OH245148   5.658   2.085  14.158  0.3506  0.3982 -0.0909
 7886TIP3    H145149   5.741   2.114  14.196  0.4620  0.3055 -0.2606
 7886TIP3    H245150   5.661   2.116  14.067  1.4893 -2.0206 -1.0029
 7887TIP3   OH245151   5.880   0.930   2.470 -0.2237  0.4369  0.5516
 7887TIP3    H145152   5.927   0.988   2.410 -1.3556  0.8749  0.0572
 7887TIP3    H245153   5.865   0.982   2.548  1.3493 -0.1703  1.2957
 7888TIP3   OH245154   4.251   3.741  14.587  0.5074 -0.6400 -0.0884
 7888TIP3    H145155   4.210   3.658  14.561 -0.4511 -0.4904  0.8928
 7888TIP3    H245156   4.237   3.746  14.682 -0.4724  1.1720 -0.2857
 7889TIP3   OH245157   6.651   2.492  12.386  0.0633  0.4835  0.2137
 7889TIP3    H145158   6.717   2.422  12.379  0.4578  0.7916  0.7075
 7889TIP3    H245159   6.683   2.547  12.458 -1.7514 -0.4612  1.8351
 7890TIP3   OH245160   1.408   6.025  10.722  0.4593 -0.1225 -0.0803
 7890TIP3    H145161   1.420   5.967  10.647 -0.2798 -0.4660  0.0539
 7890TIP3    H245162   1.426   5.970  10.798  2.8166  0.6401 -0.0232
 7891TIP3   OH245163   4.838   1.013   0.184  0.0411 -0.5148  0.0286
 7891TIP3    H145164   4.780   1.083   0.214 -0.1141 -1.1472  1.2449
 7891TIP3    H245165   4.926   1.049   0.194 -0.0692  0.8078 -2.7066
 7892TIP3   OH245166   4.888   4.299   3.914  0.5197 -0.4810  0.2912
 7892TIP3    H145167   4.935   4.217   3.930  2.6410  0.6398  0.2122
 7892TIP3    H245168   4.805   4.273   3.875  1.6209 -2.5384 -0.8192
 7893TIP3   OH245169   4.940   2.208   0.064 -0.0281 -0.0412  0.0230
 7893TIP3    H145170   4.877   2.273   0.032  0.1387  0.9525  1.5935
 7893TIP3    H245171   4.890   2.127   0.069 -0.3623  0.0294 -1.5548
 7894TIP3   OH245172   6.215   0.678  11.197  0.2012  0.6121  0.7959
 7894TIP3    H145173   6.256   0.661  11.113  0.6355  0.9671  0.9351
 7894TIP3    H245174   6.258   0.757  11.230 -0.9516  1.3068  0.7009
 7895TIP3   OH245175   5.343   5.350  14.117  0.3890 -0.0794  0.1521
 7895TIP3    H145176   5.342   5.398  14.033  0.0634 -0.1427  0.1183
 7895TIP3    H245177   5.429   5.369  14.154  0.5258 -0.0279 -0.1860
 7896TIP3   OH245178   2.378   2.305   4.630 -0.0826 -0.4260  0.5481
 7896TIP3    H145179   2.348   2.215   4.616 -1.5569  0.2220 -0.8359
 7896TIP3    H245180   2.381   2.343   4.542 -1.8871  1.5543  1.2469
 7897TIP3   OH245181   3.094   1.559   4.624  0.0240 -0.1997  0.4310
 7897TIP3    H145182   3.120   1.647   4.596 -1.3763  0.0711 -0.0878
 7897TIP3    H245183   3.007   1.571   4.662  0.4533 -1.1363  1.7460
 7898TIP3   OH245184   1.164   6.138  11.578  0.4226  0.5893 -0.6958
 7898TIP3    H145185   1.221   6.113  11.651 -1.0872  1.0247  0.6900
 7898TIP3    H245186   1.136   6.227  11.599 -0.2769  0.6193 -1.6780
 7899TIP3   OH245187   6.033   1.403  14.898 -0.1249  0.2730 -0.0321
 7899TIP3    H145188   6.112   1.351  14.911  0.4312  0.6634 -1.6448
 7899TIP3    H245189   6.064   1.488  14.866 -1.1173  0.9912  0.8363
 7900TIP3   OH245190   3.866   3.321   3.667 -0.2439  0.2343  0.0827
 7900TIP3    H145191   3.826   3.333   3.581 -0.5581 -1.6003 -0.0682
 7900TIP3    H245192   3.949   3.277   3.649 -0.2147  0.0289  0.6990
 7901TIP3   OH245193   6.023   1.543   2.260 -0.0411  0.2179  0.5558
 7901TIP3    H145194   6.099   1.486   2.274 -0.3063 -0.5356 -0.9188
 7901TIP3    H245195   6.021   1.558   2.166 -2.6338 -1.1078  0.3090
 7902TIP3   OH245196   4.632   5.015  15.839 -0.9358  0.2546  0.2891
 7902TIP3    H145197   4.698   4.956  15.803 -0.2316  1.2783 -0.1550
 7902TIP3    H245198   4.566   4.957  15.876  0.1186 -0.8050  0.5927
 7903TIP3   OH245199   2.726   3.930   5.014 -0.2429  0.4322  0.5044
 7903TIP3    H145200   2.654   3.971   5.061 -1.7293  0.2393 -1.4650
 7903TIP3    H245201   2.699   3.934   4.922  1.5385 -1.1171 -0.1343
 7904TIP3   OH245202   5.604   0.162   5.571  0.4255 -0.2130 -0.0462
 7904TIP3    H145203   5.513   0.157   5.541  0.0230  1.6179  0.7047
 7904TIP3    H245204   5.655   0.129   5.497 -0.7838 -0.1558 -0.9445
 7905TIP3   OH245205   0.073   6.256  12.711  0.1114 -0.6564  0.0362
 7905TIP3    H145206   0.107   6.250  12.800 -2.2975  0.4607  1.1135
 7905TIP3    H245207   0.099   6.343  12.680  1.9492 -1.4786 -0.8514
 7906TIP3   OH245208   5.211   5.224   1.045 -0.3133  0.1135 -0.1722
 7906TIP3    H145209   5.269   5.293   1.014  0.0964  0.8349  2.0265
 7906TIP3    H245210   5.129   5.268   1.068 -0.8843 -0.5211 -0.8843
 7907TIP3   OH245211   2.689   6.409   4.900  0.1214  0.0328  0.1227
 7907TIP3    H145212   2.640   6.491   4.907  0.1871  0.0761  0.0813
 7907TIP3    H245213   2.720   6.408   4.810 -0.8095 -0.5655 -0.2117
 7908TIP3   OH245214   0.618   2.628  11.253 -0.3992 -0.0051 -0.2998
 7908TIP3    H145215   0.638   2.539  11.222 -0.5455  0.1385 -0.8176
 7908TIP3    H245216   0.673   2.684  11.198  1.3644  0.1065  1.4854
 7909TIP3   OH245217   0.945   3.465   4.685  0.1336 -0.4232 -0.0150
 7909TIP3    H145218   0.911   3.494   4.770  0.3712  0.0297 -0.0700
 7909TIP3    H245219   0.997   3.388   4.704 -0.0829 -0.5161  0.2051
 7910TIP3   OH245220   6.558   5.416  15.399 -0.1331  0.4525 -0.4640
 7910TIP3    H145221   6.530   5.367  15.476 -1.1456  1.0359 -0.4460
 7910TIP3    H245222   6.484   5.412  15.339  0.1620  1.0903 -0.8801
 7911TIP3   OH245223   5.688   6.412  14.979 -0.2355  0.0539  0.5455
 7911TIP3    H145224   5.617   6.430  15.041 -0.7950  0.3969 -0.1775
 7911TIP3    H245225   5.715   6.322  14.999 -0.3911  0.1655  1.2969
 7912TIP3   OH245226   5.623   6.042   5.688 -0.4167  0.2498 -0.1301
 7912TIP3    H145227   5.686   6.044   5.760  1.5774  0.8413 -1.7882
 7912TIP3    H245228   5.538   6.054   5.730  0.4384 -1.4077  2.2888
 7913TIP3   OH245229   2.434   3.880   1.539  0.6685  0.0128 -0.4247
 7913TIP3    H145230   2.402   3.874   1.449  0.6527  2.2087 -0.6370
 7913TIP3    H245231   2.520   3.922   1.532  0.9578 -0.3722  0.5482
 7914TIP3   OH245232   2.276   0.473  13.471 -0.0600  0.1522  0.2060
 7914TIP3    H145233   2.300   0.549  13.417  0.0988  0.4619  0.7057
 7914TIP3    H245234   2.338   0.405  13.446 -0.0341  0.2725 -0.0559
 7915TIP3   OH245235   1.827   0.166   4.741  0.5352  0.2804 -0.9663
 7915TIP3    H145236   1.854   0.177   4.650 -0.1725  1.3951 -1.0561
 7915TIP3    H245237   1.874   0.234   4.789  0.0881  0.3741 -0.6615
 7916TIP3   OH245238   6.228   2.466   5.398 -0.0830  0.2063  0.2686
 7916TIP3    H145239   6.214   2.495   5.308  1.0067 -1.2620 -0.4079
 7916TIP3    H245240   6.311   2.507   5.424 -0.8585  1.4067  0.9920
 7917TIP3   OH245241   1.931   0.149   3.826  0.1880 -0.0279 -0.1923
 7917TIP3    H145242   2.012   0.197   3.807  0.3103  0.7558  2.0081
 7917TIP3    H245243   1.875   0.165   3.750  0.7614  2.4721 -0.1857
 7918TIP3   OH245244   6.814   4.158  11.730 -0.4420  0.9497  0.0344
 7918TIP3    H145245   6.724   4.148  11.760  0.4342 -0.5687  2.5070
 7918TIP3    H245246   6.838   4.247  11.757 -0.8604  0.9490  0.4232
 7919TIP3   OH245247   2.600   1.489  12.346 -0.1125  0.1054 -0.7268
 7919TIP3    H145248   2.556   1.467  12.428  1.3589  0.9282  0.3236
 7919TIP3    H245249   2.676   1.430  12.343  0.2731  0.6110 -1.0906
 7920TIP3   OH245250   0.979   5.099  15.666  0.4638 -0.1869  0.4070
 7920TIP3    H145251   0.966   5.074  15.757  0.8413  0.2117  0.5769
 7920TIP3    H245252   0.926   5.037  15.616 -1.1896  0.7078  0.9861
 7921TIP3   OH245253   2.813   1.363   3.570  0.6925 -0.1899  0.1704
 7921TIP3    H145254   2.825   1.455   3.546 -0.4396 -0.9481 -4.3416
 7921TIP3    H245255   2.723   1.358   3.603  0.2389  0.2138 -0.9318
 7922TIP3   OH245256   4.273   6.040   0.001  0.3739 -0.6633 -0.7822
 7922TIP3    H145257   4.327   6.024   0.078 -0.3986  0.4674  0.0199
 7922TIP3    H245258   4.316   5.990  -0.069  2.0108 -0.4212  0.0021
 7923TIP3   OH245259   3.466   0.445  10.684 -0.6609 -0.5542 -0.6941
 7923TIP3    H145260   3.427   0.486  10.607 -1.0960 -0.2605 -0.3198
 7923TIP3    H245261   3.509   0.517  10.731 -0.0453 -0.7970 -0.8656
 7924TIP3   OH245262   1.000   2.739  13.525 -0.2979 -0.2780  0.3427
 7924TIP3    H145263   1.005   2.812  13.464 -0.7144 -0.4846  0.0568
 7924TIP3    H245264   0.919   2.754  13.575  0.1152 -0.0313  0.9508
 7925TIP3   OH245265   2.363   0.847  16.613  0.4938 -0.0441 -0.9892
 7925TIP3    H145266   2.357   0.806  16.527  1.3085  0.0305 -1.0900
 7925TIP3    H245267   2.457   0.857  16.628  0.3569  3.0293 -1.5716
 7926TIP3   OH245268   2.547   3.738   5.714  0.1461 -0.3928 -0.1586
 7926TIP3    H145269   2.477   3.765   5.655  0.1678  2.7661  1.0530
 7926TIP3    H245270   2.627   3.753   5.663  0.0953  0.7077  0.0603
 7927TIP3   OH245271   0.747   6.499  11.764  0.0187 -0.4075  0.6899
 7927TIP3    H145272   0.833   6.523  11.731 -0.3144 -0.4800 -0.2608
 7927TIP3    H245273   0.693   6.577  11.748 -0.1961 -0.5128  0.8941
 7928TIP3   OH245274   0.587   3.914   3.239  0.1288 -0.3848  0.1555
 7928TIP3    H145275   0.518   3.951   3.293  1.2832  0.0808  1.3705
 7928TIP3    H245276   0.644   3.868   3.300  0.6918 -1.0888 -0.8657
 7929TIP3   OH245277   2.167   1.401  12.309  0.1028 -0.3486  0.4927
 7929TIP3    H145278   2.208   1.479  12.344  1.3334 -0.7331 -0.0387
 7929TIP3    H245279   2.227   1.370  12.241  1.7266 -3.8718  3.1442
 7930TIP3   OH245280   1.670   4.067  13.928  0.6684  0.4960  0.3109
 7930TIP3    H145281   1.753   4.067  13.880  0.5690  0.5299  0.1377
 7930TIP3    H245282   1.607   4.028  13.867  0.3867  1.2112  0.1368
 7931TIP3   OH245283   5.453   5.066  12.186  0.4354  0.6642  0.1677
 7931TIP3    H145284   5.379   5.127  12.190 -0.3603 -0.2953  0.6667
 7931TIP3    H245285   5.459   5.031  12.275 -1.9527 -3.1613 -0.9185
 7932TIP3   OH245286   3.611   1.643  14.977 -0.3180 -0.6501 -0.0278
 7932TIP3    H145287   3.524   1.642  15.018 -1.4099  0.9104 -2.0786
 7932TIP3    H245288   3.609   1.719  14.919  3.0042  0.3251  0.9215
 7933TIP3   OH245289   4.038   3.905   4.100 -0.1634  0.0818  0.0345
 7933TIP3    H145290   3.970   3.873   4.159 -0.4678  0.6911  0.0222
 7933TIP3    H245291   4.067   3.827   4.052 -1.0351 -0.1439 -0.1442
 7934TIP3   OH245292   0.311   4.071   2.667  0.6491 -0.0649  0.1425
 7934TIP3    H145293   0.292   4.046   2.757  0.4434  0.8942  0.3780
 7934TIP3    H245294   0.245   4.137   2.645 -0.0345 -1.1102 -1.1231
 7935TIP3   OH245295   3.816   5.399  16.175 -0.1232  0.0619  0.3555
 7935TIP3    H145296   3.877   5.428  16.107 -0.9843  0.7242 -0.1675
 7935TIP3    H245297   3.764   5.331  16.133  0.9560 -1.3015  1.1460
 7936TIP3   OH245298   5.777   5.715   0.826 -0.1877 -0.1809  0.0632
 7936TIP3    H145299   5.808   5.660   0.754 -1.3661  0.1065 -0.6916
 7936TIP3    H245300   5.818   5.678   0.904  0.5140 -0.9673 -0.6588
 7937TIP3   OH245301   0.057   0.016   4.044 -0.2207  0.2130 -0.5117
 7937TIP3    H145302   0.042   0.103   4.081  1.5831  0.3010  0.0913
 7937TIP3    H245303   0.123   0.028   3.977  0.0607 -0.6851 -0.4196
 7938TIP3   OH245304   3.236   3.145  15.082  0.2824 -0.1174 -0.1950
 7938TIP3    H145305   3.324   3.177  15.065  0.0434  0.6019 -0.1218
 7938TIP3    H245306   3.239   3.115  15.173  0.9332 -1.8074 -0.7396
 7939TIP3   OH245307   3.329   2.873   4.565 -0.3052 -0.2173  0.0198
 7939TIP3    H145308   3.338   2.931   4.640 -0.6337 -1.3184  0.9495
 7939TIP3    H245309   3.269   2.918   4.506  1.4671  1.5542 -0.5285
 7940TIP3   OH245310   3.987   5.021  10.733 -0.1087  0.0754 -0.3490
 7940TIP3    H145311   3.912   5.079  10.750  1.2316  1.2689  1.9844
 7940TIP3    H245312   3.958   4.935  10.762 -0.0655  0.8695  2.2755
 7941TIP3   OH245313   0.174   4.169  13.794 -0.0981 -0.5222  0.2997
 7941TIP3    H145314   0.101   4.194  13.852 -0.5488  0.1815 -0.5448
 7941TIP3    H245315   0.199   4.250  13.751  0.3311 -1.0069 -0.3782
 7942TIP3   OH245316   0.696   0.136  14.784  0.4080 -0.0265 -0.2078
 7942TIP3    H145317   0.662   0.165  14.869 -0.5950  2.2658 -1.2921
 7942TIP3    H245318   0.618   0.118  14.732  0.9761  0.1170 -1.1269
 7943TIP3   OH245319   0.642   5.386  13.500 -0.4249 -0.6559 -0.0814
 7943TIP3    H145320   0.627   5.381  13.406  0.1017 -0.2469 -0.1864
 7943TIP3    H245321   0.718   5.443  13.510  3.0989 -4.9035  0.2820
 7944TIP3   OH245322   6.325   3.524  14.110  0.1240  0.4630 -0.7761
 7944TIP3    H145323   6.381   3.601  14.124  0.9774 -0.5974  2.9466
 7944TIP3    H245324   6.236   3.557  14.120  0.4649  1.1064  0.3501
 7945TIP3   OH245325   4.986   4.649   3.676 -0.0559  0.0317 -0.2255
 7945TIP3    H145326   5.019   4.561   3.696 -0.2852  0.2492  1.1981
 7945TIP3    H245327   5.048   4.708   3.718 -1.2048  0.4830  0.8810
 7946TIP3   OH245328   6.608   6.044   1.974 -0.0183 -0.0903 -0.7587
 7946TIP3    H145329   6.541   6.078   1.915  0.1499 -0.1640 -0.9903
 7946TIP3    H245330   6.651   6.122   2.009 -0.0251 -0.0507 -0.8386
 7947TIP3   OH245331   6.572   6.551   2.519  0.0531 -0.0351  0.1761
 7947TIP3    H145332   6.528   6.555   2.435 -0.2233 -1.1523  0.2499
 7947TIP3    H245333   6.648   6.495   2.504 -0.6531 -1.2492  0.9167
 7948TIP3   OH245334   1.268   4.788   2.100  0.2642  0.4262 -0.2851
 7948TIP3    H145335   1.207   4.749   2.037  0.0387 -1.2775  0.9083
 7948TIP3    H245336   1.341   4.726   2.104  1.2054  1.4968 -0.2844
 7949TIP3   OH245337   1.812   2.216   3.817 -0.3861 -0.0009  0.3668
 7949TIP3    H145338   1.747   2.282   3.792 -0.2324  0.5295  1.3160
 7949TIP3    H245339   1.778   2.134   3.782 -1.0048  0.4445 -0.1003
 7950TIP3   OH245340   1.347   5.648  16.634  0.2393 -0.3221 -0.4479
 7950TIP3    H145341   1.293   5.579  16.672  0.4439  0.2943  1.0543
 7950TIP3    H245342   1.398   5.681  16.708  0.9867  0.6548 -1.3713
 7951TIP3   OH245343   0.519   6.663   1.622  0.0696  0.2069 -0.1623
 7951TIP3    H145344   0.607   6.629   1.603 -0.2011 -1.0544  0.7510
 7951TIP3    H245345   0.533   6.756   1.638  1.1621  0.1253 -0.5434
 7952TIP3   OH245346   1.833   3.108  14.927 -0.5216  0.4616 -0.0565
 7952TIP3    H145347   1.913   3.089  14.879 -0.1483  1.3070  0.2062
 7952TIP3    H245348   1.862   3.162  15.001 -1.3294  0.8019  0.0232
 7953TIP3   OH245349   6.209   2.676  15.433  0.2830 -0.2855 -0.2545
 7953TIP3    H145350   6.218   2.656  15.526  2.0171  0.1974 -0.2890
 7953TIP3    H245351   6.241   2.766  15.424 -0.7731  0.0260 -1.1791
 7954TIP3   OH245352   5.640   2.212  13.597 -0.6963  0.0279  0.3524
 7954TIP3    H145353   5.717   2.264  13.624 -0.2982  0.9210 -2.2612
 7954TIP3    H245354   5.640   2.138  13.657  1.0172  1.0427  1.7326
 7955TIP3   OH245355   1.857   0.333  11.619  0.1903  0.1986  0.8452
 7955TIP3    H145356   1.790   0.268  11.642  0.4820 -0.8972 -1.1956
 7955TIP3    H245357   1.911   0.289  11.553  1.8178  1.7166  1.1214
 7956TIP3   OH245358   1.852   3.622   1.572  0.3356 -0.2562 -0.3884
 7956TIP3    H145359   1.920   3.660   1.627  1.2641 -0.2868 -1.4742
 7956TIP3    H245360   1.848   3.530   1.600  0.0230 -0.0212  0.3633
 7957TIP3   OH245361   6.458   4.844   3.751  0.2049  0.1340 -0.3301
 7957TIP3    H145362   6.382   4.844   3.693 -1.6878 -2.6903  1.8012
 7957TIP3    H245363   6.450   4.925   3.801 -0.5224  0.6308 -1.2269
 7958TIP3   OH245364   5.670   3.886  11.369  0.5922 -0.6189 -0.3775
 7958TIP3    H145365   5.630   3.801  11.347  2.0031 -1.1388 -1.0325
 7958TIP3    H245366   5.756   3.864  11.404  1.1669  0.5684 -0.9894
 7959TIP3   OH245367   0.450   6.012   5.570  0.0846  0.2306 -0.2009
 7959TIP3    H145368   0.540   6.028   5.543  0.2044 -0.5601 -0.2962
 7959TIP3    H245369   0.456   5.940   5.632 -0.5301 -0.1833 -0.6087
 7960TIP3   OH245370   3.316   1.147   5.253 -0.7870 -0.2883  0.2148
 7960TIP3    H145371   3.272   1.100   5.183 -0.9871  1.3765 -0.8193
 7960TIP3    H245372   3.380   1.203   5.209 -1.5467  1.4862  1.2421
 7961TIP3   OH245373   2.952   6.330  15.855  0.1287  0.3345  0.0103
 7961TIP3    H145374   2.947   6.325  15.760  1.6515 -0.7638 -0.0533
 7961TIP3    H245375   2.902   6.408  15.878  0.4957  1.1332 -1.7527
 7962TIP3   OH245376   1.188   3.578  12.884  0.6479  0.0372  0.3091
 7962TIP3    H145377   1.160   3.572  12.976  1.1901  1.6941  0.6271
 7962TIP3    H245378   1.146   3.659  12.852  0.1732 -0.7096 -1.0251
 7963TIP3   OH245379   4.577   3.850   2.263 -0.7918 -0.4404 -0.6368
 7963TIP3    H145380   4.638   3.924   2.260 -0.2744 -0.7006  1.6767
 7963TIP3    H245381   4.502   3.883   2.312 -1.2004 -1.0259 -0.8629
 7964TIP3   OH245382   3.865   6.452   2.572 -0.0951  0.1859 -0.1198
 7964TIP3    H145383   3.810   6.526   2.546  0.1812  0.5959  0.4559
 7964TIP3    H245384   3.835   6.429   2.659 -0.8220 -1.0042 -0.6645
 7965TIP3   OH245385   0.590   6.490   5.893 -0.0726 -0.0206  0.4171
 7965TIP3    H145386   0.597   6.531   5.979 -3.8741  0.4217  0.6978
 7965TIP3    H245387   0.582   6.396   5.911  3.1113 -0.4860  0.1195
 7966TIP3   OH245388   2.763   1.505  15.907  0.2716  0.6609 -0.1852
 7966TIP3    H145389   2.679   1.521  15.865  0.2916 -1.5177 -1.2097
 7966TIP3    H245390   2.807   1.443  15.849  3.1978  2.7264 -0.3830
 7967TIP3   OH245391   5.608   1.829   4.584  0.8193 -0.5270 -0.2909
 7967TIP3    H145392   5.615   1.852   4.677 -0.7824  1.4089 -0.5814
 7967TIP3    H245393   5.543   1.758   4.581  0.1754  0.0370  0.0138
 7968TIP3   OH245394   5.679   1.856  15.236  0.0060  0.0534 -0.1071
 7968TIP3    H145395   5.770   1.826  15.237 -0.0659 -0.1631  0.3300
 7968TIP3    H245396   5.661   1.876  15.144  0.4985  0.1100 -0.1931
 7969TIP3   OH245397   1.043   4.640  10.610 -0.3526  0.2319 -0.4423
 7969TIP3    H145398   1.040   4.683  10.695  1.0975 -0.4893  0.0146
 7969TIP3    H245399   1.130   4.664  10.575 -0.6590 -0.0308 -1.4190
 7970TIP3   OH245400   3.498   1.040   3.282 -0.5885  0.8950  0.3818
 7970TIP3    H145401   3.482   0.990   3.362  0.0779 -0.9702 -0.5903
 7970TIP3    H245402   3.582   1.083   3.297  0.5043 -0.9975  0.0273
 7971TIP3   OH245403   3.170   5.356   3.568  0.2435 -0.0070 -0.0562
 7971TIP3    H145404   3.103   5.329   3.631  0.5815  0.4128  0.4869
 7971TIP3    H245405   3.253   5.335   3.610  0.4741 -1.4248 -1.1225
 7972TIP3   OH245406   0.924   0.521   1.797  0.3408  0.1453  0.1607
 7972TIP3    H145407   0.865   0.517   1.722 -0.8879  0.4131  1.0652
 7972TIP3    H245408   0.924   0.431   1.831 -1.4611  0.5925  1.5190
 7973TIP3   OH245409   0.618   3.356   5.032 -0.1089  0.1174  0.2838
 7973TIP3    H145410   0.522   3.362   5.030 -0.2606  0.2753  3.3005
 7973TIP3    H245411   0.636   3.281   5.089  1.5172  1.0263  1.0376
 7974TIP3   OH245412   3.148   4.492   3.387  0.1238  0.0682  0.2538
 7974TIP3    H145413   3.082   4.467   3.322 -0.4942  0.3024  0.7854
 7974TIP3    H245414   3.170   4.409   3.430  0.8265 -0.1561 -0.5061
 7975TIP3   OH245415   2.143   1.099   2.486 -0.3187 -0.0061  0.3824
 7975TIP3    H145416   2.126   1.005   2.491  0.9356 -0.3481 -1.0809
 7975TIP3    H245417   2.110   1.125   2.400 -1.1995  1.0517  1.0034
 7976TIP3   OH245418   5.763   2.478   0.524  0.0347  0.5292 -0.6364
 7976TIP3    H145419   5.836   2.534   0.552  0.8996  0.3296 -2.3506
 7976TIP3    H245420   5.779   2.395   0.568  0.1278  0.8688 -0.0107
 7977TIP3   OH245421   0.256   3.413   5.757 -0.0974 -0.1788 -0.1579
 7977TIP3    H145422   0.265   3.334   5.809 -0.3934 -0.0846  0.0380
 7977TIP3    H245423   0.267   3.384   5.666  1.0393 -0.2470 -0.0106
 7978TIP3   OH245424   0.130   4.087  11.559 -0.1714 -0.4892 -0.2677
 7978TIP3    H145425   0.061   4.132  11.607  0.9045  1.5537 -0.5022
 7978TIP3    H245426   0.202   4.149  11.557  1.3180 -2.1444 -0.9333
 7979TIP3   OH245427   6.767   6.013   4.406 -0.1232 -0.2449  0.5118
 7979TIP3    H145428   6.717   5.950   4.353 -0.9698  1.6156 -1.0426
 7979TIP3    H245429   6.850   6.023   4.359 -0.2986  0.3449  0.3213
 7980TIP3   OH245430   1.835   3.530   3.884  0.1755  0.1908  0.4638
 7980TIP3    H145431   1.831   3.449   3.834  1.4557 -0.7917  1.8704
 7980TIP3    H245432   1.752   3.534   3.931 -0.0681 -0.0709  0.0581
 7981TIP3   OH245433   1.538   4.968  12.971  0.4867  0.2615 -0.2345
 7981TIP3    H145434   1.558   5.008  12.887  0.6090  0.2330 -0.2186
 7981TIP3    H245435   1.620   4.926  12.999  1.6324  3.4702  1.7146
 7982TIP3   OH245436   0.400   2.836   2.867  0.3683  0.0571  0.0206
 7982TIP3    H145437   0.338   2.901   2.900 -0.9745 -1.4453  0.5642
 7982TIP3    H245438   0.393   2.843   2.772 -1.1292 -0.5206  0.0726
 7983TIP3   OH245439   1.564   5.701  15.974 -0.1475  1.1104  0.2477
 7983TIP3    H145440   1.551   5.606  15.966  1.6861  0.7060  1.4493
 7983TIP3    H245441   1.476   5.738  15.967 -1.1203 -0.8233  1.3991
 7984TIP3   OH245442   2.473   4.271   0.304 -0.2732 -0.6146  0.0525
 7984TIP3    H145443   2.406   4.234   0.362 -0.3828 -1.9568 -0.8862
 7984TIP3    H245444   2.438   4.357   0.279 -1.7236 -1.3394 -0.5261
 7985TIP3   OH245445   5.636   6.617  10.725  0.2447 -0.0949  0.0150
 7985TIP3    H145446   5.595   6.694  10.685  0.7095  0.4482  0.5667
 7985TIP3    H245447   5.617   6.546  10.664 -1.1458  0.2292  0.0305
 7986TIP3   OH245448   5.921   3.272   1.357  0.1710 -0.4612  0.1523
 7986TIP3    H145449   5.931   3.278   1.262  0.6559  1.0711  0.2745
 7986TIP3    H245450   5.860   3.342   1.379  2.0217  0.9212  1.2117
 7987TIP3   OH245451   0.266   6.783  11.052  0.7333 -0.5008  0.0286
 7987TIP3    H145452   0.324   6.707  11.061  0.3075 -0.7177  1.0149
 7987TIP3    H245453   0.180   6.745  11.033  0.8942 -0.1792 -1.5359
 7988TIP3   OH245454   3.161   5.213  15.190  0.3037 -0.1701  0.2491
 7988TIP3    H145455   3.214   5.164  15.128 -0.0998 -0.4206  0.0938
 7988TIP3    H245456   3.155   5.157  15.267 -0.8117 -0.7343 -0.2222
 7989TIP3   OH245457   2.139   6.765  12.527 -0.0826  0.5439  0.3238
 7989TIP3    H145458   2.081   6.753  12.452 -1.2582 -2.0913  1.5089
 7989TIP3    H245459   2.226   6.741  12.495 -0.4753 -0.0327 -0.3311
 7990TIP3   OH245460   4.865   0.923   5.435  0.4561  0.3480  0.3388
 7990TIP3    H145461   4.895   0.834   5.453 -1.5561 -1.1770 -3.0015
 7990TIP3    H245462   4.786   0.933   5.487  0.6978  0.2203  0.7372
 7991TIP3   OH245463   1.181   2.434   3.088  0.2558 -0.1292 -0.2324
 7991TIP3    H145464   1.097   2.418   3.131  0.9988  0.2218  1.4610
 7991TIP3    H245465   1.216   2.346   3.071  1.0196 -0.3891  2.2144
 7992TIP3   OH245466   5.047   4.991   1.247 -0.6195 -0.5306  0.1718
 7992TIP3    H145467   5.105   5.032   1.183 -0.4197  1.8156  1.7391
 7992TIP3    H245468   5.094   4.912   1.275  0.4864 -0.1883 -0.6699
 7993TIP3   OH245469   0.476   2.626   4.424 -0.3145  0.7824  0.6912
 7993TIP3    H145470   0.564   2.599   4.450 -0.4559  1.0246  1.4729
 7993TIP3    H245471   0.489   2.707   4.374  0.0587 -0.3268 -1.0988
 7994TIP3   OH245472   4.079   6.373   3.446  0.0239  0.1052 -0.4205
 7994TIP3    H145473   4.114   6.285   3.460  1.2880  0.6000 -0.3614
 7994TIP3    H245474   4.152   6.431   3.465 -0.8911  1.1945 -0.1251
 7995TIP3   OH245475   1.152   2.494   5.191 -0.2226 -0.0724  0.1836
 7995TIP3    H145476   1.070   2.520   5.148 -1.8028 -0.5205  2.7140
 7995TIP3    H245477   1.202   2.575   5.198 -0.3687  0.2028 -1.4533
 7996TIP3   OH245478   6.745   0.997  13.528  0.5308  1.1205  0.6802
 7996TIP3    H145479   6.709   0.927  13.582  1.1658 -1.2344 -1.7689
 7996TIP3    H245480   6.668   1.048  13.502 -0.5785 -1.1532 -0.8055
 7997TIP3   OH245481   0.512   3.354   5.304 -0.1762 -0.4381  0.3302
 7997TIP3    H145482   0.588   3.297   5.316  1.7358  1.3127 -2.2030
 7997TIP3    H245483   0.486   3.378   5.392  0.1997 -3.5324  1.3969
 7998TIP3   OH245484   5.308   6.166  12.922 -0.2039  0.1838 -0.8133
 7998TIP3    H145485   5.303   6.113  12.843 -0.5767  0.0400 -0.6907
 7998TIP3    H245486   5.253   6.121  12.986 -0.2018  0.4990 -0.5851
 7999TIP3   OH245487   6.225   6.114   4.170 -0.1160  0.4464  0.1943
 7999TIP3    H145488   6.293   6.164   4.215 -0.2472 -0.5904  1.6348
 7999TIP3    H245489   6.172   6.077   4.241  1.1020 -3.2982 -0.6117
 8000TIP3   OH245490   3.342   2.825  14.748  0.1878 -0.0635 -0.2487
 8000TIP3    H145491   3.429   2.858  14.769 -0.1247  0.5961  0.0374
 8000TIP3    H245492   3.358   2.748  14.693  0.9403  0.2862 -0.5361
 8001TIP3   OH245493   1.202   3.737   1.111  0.6181  0.1366 -0.3041
 8001TIP3    H145494   1.166   3.821   1.137 -0.1000 -0.7030  1.6328
 8001TIP3    H245495   1.271   3.720   1.174  1.2612 -0.3988 -1.1330
 8002TIP3   OH245496   3.141   0.422  14.876 -0.1092  0.6733 -0.2934
 8002TIP3    H145497   3.176   0.448  14.791  0.4489 -0.5422 -0.4474
 8002TIP3    H245498   3.214   0.433  14.937  0.0620 -0.2404 -0.3164
 8003TIP3   OH245499   6.116   4.844   0.181 -0.2052  0.2121 -0.5643
 8003TIP3    H145500   6.131   4.831   0.274 -0.2928 -1.1530 -0.7196
 8003TIP3    H245501   6.084   4.760   0.150 -0.0848  0.6173 -1.8515
 8004TIP3   OH245502   6.147   2.202   5.355  0.7609  0.4361 -0.8976
 8004TIP3    H145503   6.170   2.287   5.392  0.4709 -0.2785  1.0225
 8004TIP3    H245504   6.054   2.189   5.378  1.2615 -1.1466  0.4579
 8005TIP3   OH245505   4.008   5.371  13.609 -0.1192 -0.3141 -0.3451
 8005TIP3    H145506   4.099   5.348  13.590 -0.8029 -1.9981 -1.9120
 8005TIP3    H245507   3.977   5.414  13.529 -0.4213  1.3606  0.6092
 8006TIP3   OH245508   3.150   3.895   5.883 -0.1367  0.1896  0.2478
 8006TIP3    H145509   3.204   3.966   5.849  0.2060 -1.0679 -2.0161
 8006TIP3    H245510   3.060   3.926   5.870  0.0119  0.3464 -0.4364
 8007TIP3   OH245511   3.024   2.996   2.042 -0.2464 -0.2990  0.2066
 8007TIP3    H145512   3.045   2.909   2.008  0.7299 -0.4321  1.0986
 8007TIP3    H245513   2.942   3.020   1.998  0.1001 -1.1491 -0.9629
 8008TIP3   OH245514   1.102   1.505   1.090  0.2366  0.1192  0.1903
 8008TIP3    H145515   1.007   1.504   1.082  0.3347  0.6532 -1.5901
 8008TIP3    H245516   1.128   1.591   1.056  1.4051 -0.3582 -0.1890
 8009TIP3   OH245517   0.547   3.219   5.838  0.0870 -0.1460  0.1276
 8009TIP3    H145518   0.515   3.263   5.917 -0.8429 -0.7498  0.1006
 8009TIP3    H245519   0.628   3.176   5.865  0.3477  0.5381  0.4695
 8010TIP3   OH245520   2.638   1.368   3.307 -0.3820 -0.3347  0.4930
 8010TIP3    H145521   2.718   1.346   3.260  1.3327  0.2892  2.8946
 8010TIP3    H245522   2.596   1.283   3.325  1.2603 -0.9646  1.6033
 8011TIP3   OH245523   6.548   5.084  14.250 -0.0118 -0.1390  0.6026
 8011TIP3    H145524   6.471   5.127  14.213 -1.0944 -2.7345 -0.3743
 8011TIP3    H245525   6.617   5.099  14.185 -0.4963 -0.2462  0.0560
 8012TIP3   OH245526   4.481   0.515   1.082 -0.3922 -0.2655  0.6397
 8012TIP3    H145527   4.388   0.535   1.069 -0.1693  0.5742  0.2526
 8012TIP3    H245528   4.485   0.419   1.081 -1.1570 -0.3083 -0.0354
 8013TIP3   OH245529   1.603   3.742   1.776 -0.0511  0.1830 -0.2155
 8013TIP3    H145530   1.553   3.821   1.796 -0.5038 -0.0730 -0.3137
 8013TIP3    H245531   1.560   3.705   1.698  1.2079  0.7524 -1.2236
 8014TIP3   OH245532   4.845   2.907   2.994  0.1689 -0.4790 -0.2377
 8014TIP3    H145533   4.936   2.898   2.966  0.7501  2.6453  0.1969
 8014TIP3    H245534   4.800   2.940   2.917  0.4303  2.1125  0.6072
 8015TIP3   OH245535   3.182   6.382  12.017 -0.0187 -0.1372 -0.0997
 8015TIP3    H145536   3.194   6.429  11.934  2.0029 -1.6955 -0.7792
 8015TIP3    H245537   3.233   6.302  12.006 -0.7596 -0.9917  2.1990
 8016TIP3   OH245538   4.657   4.353   4.210 -0.3136  0.0001  0.1535
 8016TIP3    H145539   4.733   4.410   4.220 -0.4153  0.2309 -0.3738
 8016TIP3    H245540   4.637   4.355   4.117  0.1574 -1.5252 -0.0044
 8017TIP3   OH245541   3.892   5.477  11.969  0.0434 -0.2557  1.2339
 8017TIP3    H145542   3.822   5.489  12.034 -0.3893 -1.4208  1.0103
 8017TIP3    H245543   3.973   5.493  12.018 -0.3743  1.7022  1.3536
 8018TIP3   OH245544   6.091   4.195  16.101 -0.4135  0.1334 -0.5068
 8018TIP3    H145545   6.111   4.179  16.193  0.3421  1.0138 -0.4979
 8018TIP3    H245546   5.995   4.193  16.096 -0.4371 -1.8569 -0.0961
 8019TIP3   OH245547   0.246   0.100  11.271  0.1785 -0.5003  0.3110
 8019TIP3    H145548   0.154   0.105  11.244  0.4374  0.3951 -0.4355
 8019TIP3    H245549   0.287   0.045  11.204  0.4010  0.0117  0.0199
 8020TIP3   OH245550   3.359   5.027  13.285  1.2675 -0.1999 -0.4038
 8020TIP3    H145551   3.421   5.085  13.240 -0.4085  1.2001 -1.0460
 8020TIP3    H245552   3.338   4.960  13.220 -0.0444  0.9969 -1.2846
 8021TIP3   OH245553   3.372   2.541   4.930 -0.4030  0.1058 -0.0303
 8021TIP3    H145554   3.388   2.578   4.844 -0.1840  0.7082  0.2651
 8021TIP3    H245555   3.308   2.599   4.970 -1.6892 -1.0250 -0.3501
 8022TIP3   OH245556   2.043   6.310   2.979  0.0196  0.0666  0.3459
 8022TIP3    H145557   1.959   6.291   2.937  1.3262 -3.3429 -1.0829
 8022TIP3    H245558   2.047   6.252   3.054  2.1304 -2.0611 -1.2446
 8023TIP3   OH245559   4.403   0.408  12.301 -0.3749  0.2906 -0.8423
 8023TIP3    H145560   4.351   0.414  12.381  1.6814 -2.6258  0.9309
 8023TIP3    H245561   4.347   0.362  12.239 -0.7437 -0.7819  0.2434
 8024TIP3   OH245562   0.199   2.238   2.051 -0.0133  0.1474  0.0365
 8024TIP3    H145563   0.242   2.189   1.980  0.8050  0.4146  0.3383
 8024TIP3    H245564   0.250   2.318   2.059  0.0140  0.0374  1.0513
 8025TIP3   OH245565   4.517   0.015   0.801  0.7048  0.5462 -0.4029
 8025TIP3    H145566   4.602  -0.009   0.762  1.2556  3.2452 -1.0619
 8025TIP3    H245567   4.522  -0.020   0.890  2.8719  1.2677 -0.1670
 8026TIP3   OH245568   4.240   5.647  11.800  0.6376  0.4056 -0.8171
 8026TIP3    H145569   4.177   5.699  11.851  0.0855 -0.4480 -0.5962
 8026TIP3    H245570   4.324   5.689  11.815  0.7562 -0.6433  2.0078
 8027TIP3   OH245571   5.569   0.419  16.551  0.4249 -0.8471 -0.5942
 8027TIP3    H145572   5.503   0.358  16.583 -1.7828  1.5855 -0.2102
 8027TIP3    H245573   5.520   0.492  16.514  2.8789  1.2197 -0.1177
 8028TIP3   OH245574   3.434   2.374  11.248 -0.3840 -0.5311 -0.3152
 8028TIP3    H145575   3.406   2.292  11.288 -2.8446  0.1520 -0.4374
 8028TIP3    H245576   3.471   2.425  11.320 -0.4656 -1.0949  0.1291
 8029TIP3   OH245577   0.110   5.354   2.091 -0.2136 -0.0327  0.3873
 8029TIP3    H145578   0.191   5.404   2.086  0.1574 -0.7048 -0.6557
 8029TIP3    H245579   0.067   5.384   2.171  1.1506  0.2008  1.0424
 8030TIP3   OH245580   0.278   6.456   1.920  0.0172 -0.1873  0.0796
 8030TIP3    H145581   0.306   6.375   1.879 -0.0902  0.3592 -1.1332
 8030TIP3    H245582   0.185   6.443   1.939 -0.2554 -0.0022 -1.0523
 8031TIP3   OH245583   6.681   2.435  16.331 -0.2808  0.3938  0.0190
 8031TIP3    H145584   6.594   2.400  16.313 -0.2117 -0.0804  0.5694
 8031TIP3    H245585   6.667   2.526  16.356 -0.6579  0.2125  0.4810
 8032TIP3   OH245586   3.587   1.345   0.267  0.3224  0.1256 -0.2807
 8032TIP3    H145587   3.551   1.383   0.186 -2.3525  2.1724  1.6882
 8032TIP3    H245588   3.611   1.421   0.320  0.9905 -1.1364  1.3000
 8033TIP3   OH245589   3.506   1.492  16.044  0.1684 -0.6089 -0.3670
 8033TIP3    H145590   3.438   1.469  16.107  0.5471  1.5165  0.9019
 8033TIP3    H245591   3.559   1.413  16.037  0.3575 -0.8228  2.3305
 8034TIP3   OH245592   2.528   6.326   5.355 -0.3596  0.2748  0.1842
 8034TIP3    H145593   2.480   6.246   5.333  1.8315 -2.6828  4.7391
 8034TIP3    H245594   2.616   6.311   5.322 -0.4018  1.8772 -0.7559
 8035TIP3   OH245595   1.188   0.804   5.355  0.0994 -0.2258 -0.5593
 8035TIP3    H145596   1.202   0.738   5.288  3.0383  0.6638 -0.9926
 8035TIP3    H245597   1.208   0.887   5.312 -0.5682  0.6374  0.7294
 8036TIP3   OH245598   1.728   6.657  16.654 -0.3585 -0.2809 -0.1919
 8036TIP3    H145599   1.649   6.711  16.641 -0.6693 -0.6877 -0.0103
 8036TIP3    H245600   1.791   6.691  16.590 -0.2367  0.8905  0.5246
 8037TIP3   OH245601   6.081   3.208  16.807  0.3313 -0.5923 -0.9544
 8037TIP3    H145602   6.058   3.221  16.899 -1.1384 -2.5407 -0.9795
 8037TIP3    H245603   6.175   3.193  16.808  0.3229 -0.6754  0.2351
 8038TIP3   OH245604   3.412   3.925  15.123 -0.1771 -0.5972  0.1917
 8038TIP3    H145605   3.408   4.001  15.182  0.9271 -1.0635  0.9003
 8038TIP3    H245606   3.324   3.921  15.085  0.4860  2.8143 -2.1829
 8039TIP3   OH245607   1.348   2.680  14.080 -0.1913  0.0380  0.8823
 8039TIP3    H145608   1.310   2.723  14.004  0.4014  0.3066  0.7291
 8039TIP3    H245609   1.416   2.623  14.044 -0.9414 -1.0242  1.0840
 8040TIP3   OH245610   4.538   2.356   0.390  0.1246 -0.0336 -0.0567
 8040TIP3    H145611   4.480   2.406   0.447 -0.3850 -1.6459  0.8820
 8040TIP3    H245612   4.486   2.282   0.361  1.6279 -1.4734  0.7315
 8041TIP3   OH245613   1.346   0.366   2.258  0.3018  0.0929 -0.0179
 8041TIP3    H145614   1.391   0.328   2.182  0.1272 -1.3953  0.5779
 8041TIP3    H245615   1.399   0.339   2.333 -0.6172 -0.2044  0.5380
 8042TIP3   OH245616   0.515   4.575  15.674 -0.4468 -0.0596 -0.2710
 8042TIP3    H145617   0.464   4.521  15.735 -0.6466  0.5382  0.0903
 8042TIP3    H245618   0.601   4.581  15.714 -0.4077 -0.1538 -0.3396
 8043TIP3   OH245619   1.579   4.629  10.377 -0.2471 -0.1850 -0.1112
 8043TIP3    H145620   1.643   4.558  10.370  0.7200  0.7060 -0.5457
 8043TIP3    H245621   1.621   4.704  10.335 -1.1001  0.7464  0.6361
 8044TIP3   OH245622   4.893   5.465  16.657  0.0029  0.0144  0.1342
 8044TIP3    H145623   4.958   5.444  16.725 -0.6729  1.2166  1.1975
 8044TIP3    H245624   4.893   5.388  16.600  0.9638 -0.8307  1.2095
 8045TIP3   OH245625   6.348   0.625  12.580  0.4135 -0.1153 -0.5399
 8045TIP3    H145626   6.298   0.544  12.596  0.2367 -0.3357 -2.0331
 8045TIP3    H245627   6.402   0.636  12.658 -1.4589 -0.2423  0.8380
 8046TIP3   OH245628   3.039   4.273  14.720 -0.4312  0.0238  0.2909
 8046TIP3    H145629   3.130   4.274  14.690 -0.4114  0.2701  0.3560
 8046TIP3    H245630   3.031   4.191  14.770  0.1185  0.6141  1.3882
 8047TIP3   OH245631   6.851   5.290   4.896  0.0259  0.1548 -0.2783
 8047TIP3    H145632   6.920   5.357   4.899 -0.1388  0.2892  1.1945
 8047TIP3    H245633   6.890   5.214   4.939 -0.1271 -0.3951 -1.0805
 8048TIP3   OH245634   0.120   6.828  14.932  0.3528 -0.1632  0.9476
 8048TIP3    H145635   0.095   6.881  15.008 -2.7726 -2.1293  1.4372
 8048TIP3    H245636   0.097   6.739  14.956 -2.2664 -0.7142 -2.8231
 8049TIP3   OH245637   2.647   1.277   4.217 -0.1158 -0.6008 -0.0698
 8049TIP3    H145638   2.668   1.192   4.256  0.2157 -1.4399 -1.9683
 8049TIP3    H245639   2.705   1.284   4.142 -0.2421  1.2630 -0.0395
 8050TIP3   OH245640   5.601   0.034  11.289 -0.1666  0.3737 -0.5510
 8050TIP3    H145641   5.677  -0.005  11.246  0.6017  1.8897 -0.6634
 8050TIP3    H245642   5.631   0.052  11.378 -0.6655  0.2474 -0.3577
 8051TIP3   OH245643   0.278   5.287   0.446  0.7163 -0.3820  0.4177
 8051TIP3    H145644   0.306   5.360   0.390  0.0789 -0.9312 -0.6560
 8051TIP3    H245645   0.225   5.232   0.388 -0.8923 -0.4165  1.8286
 8052TIP3   OH245646   4.568   5.693  15.642  0.3264  0.1546  0.4738
 8052TIP3    H145647   4.603   5.643  15.568  0.3347  0.6496  0.1426
 8052TIP3    H245648   4.556   5.781  15.608 -1.6215 -0.0718  0.4651
 8053TIP3   OH245649   2.312   6.847   3.424 -0.1152 -0.0241  0.4476
 8053TIP3    H145650   2.297   6.763   3.467  0.5997 -1.2707 -1.6367
 8053TIP3    H245651   2.378   6.891   3.478 -0.2651 -0.9267  1.3802
 8054TIP3   OH245652   3.352   6.187  10.979  0.3543 -0.5716 -0.0942
 8054TIP3    H145653   3.445   6.207  10.968  0.1643  0.1885 -0.3333
 8054TIP3    H245654   3.348   6.092  10.968  1.3093 -0.8248  1.3729
 8055TIP3   OH245655   6.054   5.107  12.102 -0.6441  0.0764 -0.0564
 8055TIP3    H145656   5.969   5.150  12.114 -1.2415 -1.4408  1.4775
 8055TIP3    H245657   6.033   5.025  12.056  0.8009  2.4264 -5.9066
 8056TIP3   OH245658   2.477   2.362   2.059  0.7395 -1.0774  0.6561
 8056TIP3    H145659   2.571   2.351   2.051  0.5742 -2.1346 -0.0619
 8056TIP3    H245660   2.447   2.379   1.969  0.0509 -2.6002  0.5722
 8057TIP3   OH245661   4.282   0.831   3.450  0.0626 -0.0134  0.7193
 8057TIP3    H145662   4.336   0.827   3.371 -0.6539  0.4426  0.2031
 8057TIP3    H245663   4.277   0.925   3.471  0.9070 -0.1736  1.7768
 8058TIP3   OH245664   0.741   5.338   0.045 -0.4762 -0.0550 -0.0685
 8058TIP3    H145665   0.762   5.388  -0.034  1.2651 -0.1337  0.3179
 8058TIP3    H245666   0.766   5.396   0.117  2.7891 -1.8279  0.4074
 8059TIP3   OH245667   0.447   2.850  14.308  0.2754 -0.5133 -0.8143
 8059TIP3    H145668   0.511   2.840  14.238 -0.7661 -1.5077 -1.6728
 8059TIP3    H245669   0.404   2.765  14.314 -0.6430 -0.0188  0.0647
 8060TIP3   OH245670   5.786   2.969  16.290  0.1523 -0.5029 -0.7813
 8060TIP3    H145671   5.757   2.879  16.282 -0.6510 -0.2700 -0.5653
 8060TIP3    H245672   5.707   3.019  16.309  0.5205  0.3099 -1.3028
 8061TIP3   OH245673   1.198   1.586  14.178  0.5649 -0.0681 -0.4162
 8061TIP3    H145674   1.149   1.508  14.204 -0.8641  1.0203  0.2822
 8061TIP3    H245675   1.147   1.623  14.105  0.1033  1.2643  0.5409
 8062TIP3   OH245676   6.443   1.123  15.731 -0.4367 -0.3304  0.2362
 8062TIP3    H145677   6.402   1.055  15.677 -0.8958  1.3928 -1.7170
 8062TIP3    H245678   6.375   1.148  15.793 -0.6830 -0.7912  0.1610
 8063TIP3   OH245679   4.265   6.573  14.177 -0.0970 -0.3085  0.3572
 8063TIP3    H145680   4.281   6.481  14.157 -1.0956 -0.4204  0.0273
 8063TIP3    H245681   4.337   6.619  14.133 -0.3650 -0.8255 -0.6661
 8064TIP3   OH245682   5.987   5.672  13.494 -0.0771 -0.0297  0.4103
 8064TIP3    H145683   6.038   5.736  13.544 -0.0445 -0.2726  0.6947
 8064TIP3    H245684   5.915   5.722  13.456  0.4942  0.3571 -0.1717
 8065TIP3   OH245685   2.912   3.399  16.866 -0.0325  0.3358 -0.3728
 8065TIP3    H145686   3.007   3.409  16.860 -0.1478  1.4555 -0.6655
 8065TIP3    H245687   2.894   3.394  16.960  0.4115 -1.1961 -0.3421
 8066TIP3   OH245688   2.461   1.420  14.300  0.0275 -0.3458 -0.6406
 8066TIP3    H145689   2.454   1.398  14.207 -0.9830 -2.2625 -0.1675
 8066TIP3    H245690   2.381   1.385  14.339  0.8444 -0.3909  1.0905
 8067TIP3   OH245691   1.739   5.111  13.216  0.3401  0.4484  0.0326
 8067TIP3    H145692   1.765   5.161  13.139 -1.3050 -0.8360 -1.4278
 8067TIP3    H245693   1.719   5.023  13.183 -1.8257  0.2431  1.6213
 8068TIP3   OH245694   5.109   1.121  12.094  0.1300  0.5709  0.4775
 8068TIP3    H145695   5.114   1.117  11.999  0.3905  0.9559  0.4774
 8068TIP3    H245696   5.079   1.033  12.120  0.1716  0.4313  0.0535
 8069TIP3   OH245697   5.515   3.354  16.422  0.4704 -0.4446 -0.7908
 8069TIP3    H145698   5.519   3.421  16.354  0.1494  1.2766  0.7871
 8069TIP3    H245699   5.541   3.400  16.502 -1.6620 -1.6758  0.7199
 8070TIP3   OH245700   3.873   1.348   2.191 -0.1463  0.1999  0.4450
 8070TIP3    H145701   3.913   1.290   2.256  1.9659  1.0451 -0.0201
 8070TIP3    H245702   3.916   1.432   2.205 -0.5001  0.7009 -1.2622
 8071TIP3   OH245703   6.425   6.360   3.408 -0.1858  0.1143  0.0788
 8071TIP3    H145704   6.386   6.276   3.433  0.9765 -0.1681  1.0367
 8071TIP3    H245705   6.519   6.348   3.422  0.0504  1.4216 -0.2552
 8072TIP3   OH245706   5.869   4.749  12.989  0.5714 -0.4150 -0.4768
 8072TIP3    H145707   5.956   4.779  13.018  0.4919 -1.4217  0.9042
 8072TIP3    H245708   5.834   4.823  12.940  3.0209 -0.7053 -2.9068
 8073TIP3   OH245709   2.030   2.957   1.039  0.3453 -0.1682  0.3219
 8073TIP3    H145710   2.121   2.974   1.014  0.5429 -1.0266  0.4235
 8073TIP3    H245711   1.986   3.041   1.027  0.8709 -0.0533 -0.9638
 8074TIP3   OH245712   1.271   5.420   4.006 -0.1421 -0.7012 -0.3162
 8074TIP3    H145713   1.209   5.347   4.010 -0.8743 -0.0313  2.2715
 8074TIP3    H245714   1.286   5.444   4.098  0.5913  1.9810 -1.0598
 8075TIP3   OH245715   0.968   6.870  11.286  0.4895 -0.3192 -0.1616
 8075TIP3    H145716   0.875   6.851  11.298  0.7904 -1.3114  0.8553
 8075TIP3    H245717   0.972   6.924  11.208 -1.1007  1.1288  0.6957
 8076TIP3   OH245718   2.998   3.540   2.246  0.0666 -0.0187  0.4496
 8076TIP3    H145719   3.047   3.458   2.254 -0.7016 -0.5956 -0.5451
 8076TIP3    H245720   2.924   3.518   2.190  0.0076  1.4329 -0.0704
 8077TIP3   OH245721   6.623   3.368  11.801  0.3223 -0.4779 -0.0499
 8077TIP3    H145722   6.652   3.322  11.879 -3.3561 -0.3233  1.6266
 8077TIP3    H245723   6.582   3.301  11.746  0.3257 -0.1334 -0.4847
 8078TIP3   OH245724   2.710   5.479  13.389  0.2800  0.1855  1.1037
 8078TIP3    H145725   2.665   5.564  13.391 -1.0019 -0.2776 -2.0801
 8078TIP3    H245726   2.656   5.421  13.442  0.9498  1.1921  2.9769
 8079TIP3   OH245727   4.427   1.825   0.507 -0.1006  0.6485 -0.2656
 8079TIP3    H145728   4.417   1.920   0.517  1.0402  0.9146 -1.5199
 8079TIP3    H245729   4.470   1.797   0.588  2.7121  1.7476 -1.2710
 8080TIP3   OH245730   4.266   3.619  14.877  0.8835  0.9835  0.6566
 8080TIP3    H145731   4.295   3.580  14.960  1.9887  0.9744  0.2845
 8080TIP3    H245732   4.231   3.545  14.828  2.0558  0.6107  0.3490
 8081TIP3   OH245733   6.251   2.358  14.975  0.0614 -0.0117  0.6324
 8081TIP3    H145734   6.308   2.359  14.899 -0.2821  0.1178  0.3722
 8081TIP3    H245735   6.267   2.443  15.018 -0.7064  0.4751 -0.0255
 8082TIP3   OH245736   1.246   1.905  16.821 -0.0261 -0.6160  0.3509
 8082TIP3    H145737   1.272   1.937  16.907  0.9928  0.3762 -0.3100
 8082TIP3    H245738   1.308   1.835  16.802 -0.2584 -0.8429  0.4142
 8083TIP3   OH245739   1.588   0.882  14.469  0.2914 -0.0283  0.0095
 8083TIP3    H145740   1.503   0.922  14.486  0.6330  1.6382 -1.9007
 8083TIP3    H245741   1.574   0.829  14.391  0.6514 -1.1070  0.6472
 8084TIP3   OH245742   1.306   0.997   1.301  0.2987  0.6735 -0.1142
 8084TIP3    H145743   1.222   0.994   1.347 -0.4125  1.0091 -1.3366
 8084TIP3    H245744   1.357   1.063   1.348 -0.0142  0.2560  0.8214
 8085TIP3   OH245745   0.460   1.036  16.504  0.5211  0.1250  0.9764
 8085TIP3    H145746   0.382   1.054  16.452  0.0734  1.1112  1.9456
 8085TIP3    H245747   0.529   1.019  16.440 -0.1384  0.7585  0.0870
 8086TIP3   OH245748   1.653   4.782   4.646  0.6777 -0.0796 -0.2510
 8086TIP3    H145749   1.708   4.828   4.710 -0.9448  0.5003  0.7729
 8086TIP3    H245750   1.637   4.696   4.686  0.2215  0.0349 -0.1855
 8087TIP3   OH245751   2.814   4.437  14.300 -0.2540 -0.4661  0.1472
 8087TIP3    H145752   2.835   4.364  14.359 -0.7836  0.4225  1.4857
 8087TIP3    H245753   2.887   4.497  14.309 -0.4435 -0.2219  0.0721
 8088TIP3   OH245754   2.544   0.535  11.401 -0.3135 -0.1959 -0.1661
 8088TIP3    H145755   2.550   0.452  11.353  0.2101  0.7141 -1.7641
 8088TIP3    H245756   2.631   0.549  11.437 -0.3915 -0.3072  0.0708
 8089TIP3   OH245757   2.925   3.901   4.095 -0.1899  0.4329  0.0799
 8089TIP3    H145758   2.985   3.828   4.111 -0.8724 -0.1022  0.2299
 8089TIP3    H245759   2.867   3.869   4.026  0.0494  1.1611 -0.4755
 8090TIP3   OH245760   4.607   4.738  11.928 -0.3206 -0.2123  0.9116
 8090TIP3    H145761   4.669   4.770  11.863 -1.3174  2.6817  1.2346
 8090TIP3    H245762   4.522   4.769  11.897 -1.0382 -0.3147  2.6689
 8091TIP3   OH245763   4.336   3.813  16.646  0.4322 -0.3919 -0.4312
 8091TIP3    H145764   4.339   3.731  16.696  1.1845  0.0104  0.2066
 8091TIP3    H245765   4.263   3.801  16.584 -0.7791 -0.7623  1.0034
 8092TIP3   OH245766   5.548   0.120  13.338 -0.0052  0.0110 -0.4577
 8092TIP3    H145767   5.619   0.108  13.274 -0.3097  0.5909 -0.9183
 8092TIP3    H245768   5.479   0.061  13.308  1.0589 -2.2327  1.2400
 8093TIP3   OH245769   2.486   1.395   0.744  1.0677  0.3978 -0.1941
 8093TIP3    H145770   2.462   1.473   0.793  2.9479  0.4241  0.7895
 8093TIP3    H245771   2.582   1.401   0.735  1.5709 -2.7368  1.7059
 8094TIP3   OH245772   6.387   1.300   2.050 -0.0459  0.0292 -0.2099
 8094TIP3    H145773   6.437   1.250   1.985 -1.1319 -1.6473  0.1923
 8094TIP3    H245774   6.425   1.274   2.134 -0.0612  0.5410 -0.0424
 8095TIP3   OH245775   5.603   0.777   4.169  0.2616 -0.0334 -0.5666
 8095TIP3    H145776   5.565   0.794   4.255  0.3755 -1.5569 -0.1883
 8095TIP3    H245777   5.682   0.727   4.187  1.4484  1.4192 -1.4653
 8096TIP3   OH245778   3.745   4.210   0.850  0.5232  0.0637  0.5526
 8096TIP3    H145779   3.797   4.148   0.902  0.2028 -2.1468 -1.5846
 8096TIP3    H245780   3.662   4.165   0.835  0.4430  0.7664 -1.4568
 8097TIP3   OH245781   0.158   4.239   3.574 -0.0047  0.4576 -0.2543
 8097TIP3    H145782   0.135   4.280   3.658 -1.2370  0.4947 -0.5873
 8097TIP3    H245783   0.250   4.214   3.584  0.0673  1.0831  0.8535
 8098TIP3   OH245784   0.650   3.541   1.000 -0.2557 -0.0405  0.1545
 8098TIP3    H145785   0.726   3.590   1.031 -0.3655  0.3072 -0.1119
 8098TIP3    H245786   0.683   3.492   0.925 -0.7814  1.8341 -1.3849
 8099TIP3   OH245787   3.451   0.387  11.028 -0.9776  0.4166 -0.5042
 8099TIP3    H145788   3.460   0.347  11.115  0.8619  2.3257  0.2781
 8099TIP3    H245789   3.516   0.342  10.975  1.6252  2.6160  0.5696
 8100TIP3   OH245790   1.815   5.841  16.719  0.4677 -0.2556  0.4090
 8100TIP3    H145791   1.788   5.845  16.811 -0.0951  1.4260  0.1982
 8100TIP3    H245792   1.735   5.857  16.670  0.4684 -2.5812 -0.4699
 8101TIP3   OH245793   4.166   5.832  16.363 -0.3287  0.1033  0.0595
 8101TIP3    H145794   4.238   5.845  16.301  0.5634 -0.9205  0.8335
 8101TIP3    H245795   4.117   5.757  16.328 -0.6268  0.3743 -0.1099
 8102TIP3   OH245796   2.137   6.253  11.613  0.1557 -0.5543 -0.0097
 8102TIP3    H145797   2.094   6.220  11.692  0.4588 -0.1568  0.3276
 8102TIP3    H245798   2.134   6.348  11.623  1.2864 -0.5231  0.1057
 8103TIP3   OH245799   6.015   3.100  13.134  0.1145 -0.1469  0.3826
 8103TIP3    H145800   6.076   3.082  13.063  1.3652  1.8394  0.8842
 8103TIP3    H245801   5.933   3.059  13.107 -0.2685  2.6509 -3.5073
 8104TIP3   OH245802   5.135   5.831   6.298 -0.2726 -0.0680  0.2173
 8104TIP3    H145803   5.133   5.924   6.279 -0.0824 -0.4888 -2.0971
 8104TIP3    H245804   5.210   5.820   6.357  0.0678  1.1459  0.0305
 8105TIP3   OH245805   3.948   1.223   4.977  0.2796  0.3457 -0.5231
 8105TIP3    H145806   3.978   1.143   5.020 -0.6939  0.6745  0.8280
 8105TIP3    H245807   3.985   1.294   5.031 -1.6427  0.7611  0.3328
 8106TIP3   OH245808   6.663   2.606   4.861 -0.2078 -0.7802 -0.2724
 8106TIP3    H145809   6.676   2.520   4.902  0.5196  0.1471  1.5175
 8106TIP3    H245810   6.585   2.594   4.806 -0.4249 -2.4505  0.3393
 8107TIP3   OH245811   0.787   3.684   1.331  0.1168 -0.2193  0.3252
 8107TIP3    H145812   0.706   3.655   1.290  0.0459 -0.9338  0.9537
 8107TIP3    H245813   0.820   3.607   1.377  1.2927 -0.0189 -0.1339
 8108TIP3   OH245814   5.881   4.036   1.907 -0.1197 -0.4145 -0.0048
 8108TIP3    H145815   5.813   4.073   1.962  0.1077 -0.6255  0.4243
 8108TIP3    H245816   5.924   3.970   1.962 -1.4199 -2.3612 -1.1831
 8109TIP3   OH245817   4.231   0.078   6.142  0.3553  0.3154 -0.1250
 8109TIP3    H145818   4.138   0.102   6.143  0.2522 -0.1008  0.4414
 8109TIP3    H245819   4.233  -0.006   6.097  0.3577 -0.0728  0.5893
 8110TIP3   OH245820   6.691   0.436  11.519 -0.0094  0.1706  0.3889
 8110TIP3    H145821   6.698   0.530  11.505  1.4770  0.3905  2.3453
 8110TIP3    H245822   6.596   0.419  11.517 -0.2384  1.1278 -3.0330
 8111TIP3   OH245823   4.207   0.591  10.499 -0.3592 -0.6585  0.4929
 8111TIP3    H145824   4.119   0.622  10.476 -0.4103 -0.8094  0.4880
 8111TIP3    H245825   4.239   0.657  10.561 -0.1547 -0.1543 -0.1348
 8112TIP3   OH245826   4.015   0.221   2.948 -0.0015 -0.2970 -0.2381
 8112TIP3    H145827   3.931   0.175   2.950  0.6111 -1.4597  0.3012
 8112TIP3    H245828   4.073   0.163   2.899 -0.0121  1.4910 -2.5315
 8113TIP3   OH245829   5.135   0.721   4.385  0.1103  0.4628  0.3643
 8113TIP3    H145830   5.164   0.791   4.445 -1.1639  1.3144  0.0251
 8113TIP3    H245831   5.121   0.766   4.302  0.2404 -0.4057 -0.1336
 8114TIP3   OH245832   0.450   5.619   4.276  0.7890  0.5466 -0.0894
 8114TIP3    H145833   0.386   5.687   4.257  0.9665 -0.1543 -3.7978
 8114TIP3    H245834   0.519   5.631   4.211  3.5439  0.0501  2.5120
 8115TIP3   OH245835   4.307   6.171   4.251  0.8724 -0.1624  0.2055
 8115TIP3    H145836   4.251   6.129   4.316  0.1092 -0.3668 -0.5607
 8115TIP3    H245837   4.391   6.183   4.295  0.8236 -1.6303  0.7557
 8116TIP3   OH245838   3.904   2.247  15.677  0.3465  0.6284 -0.0485
 8116TIP3    H145839   3.969   2.288  15.734  0.1659  1.8282 -0.6773
 8116TIP3    H245840   3.919   2.285  15.591  0.8336 -1.4081 -0.9234
 8117TIP3   OH245841   3.687   4.451  14.960 -0.6437  0.1657 -0.6518
 8117TIP3    H145842   3.709   4.394  14.887  2.0880  0.2381  0.0223
 8117TIP3    H245843   3.687   4.539  14.922  1.6496  0.2956 -0.4743
 8118TIP3   OH245844   0.275   5.597  15.081  0.3432  0.2496  0.6519
 8118TIP3    H145845   0.201   5.562  15.031  0.4497 -0.8510  1.2168
 8118TIP3    H245846   0.240   5.674  15.126 -0.9835 -1.2081  2.2665
 8119TIP3   OH245847   6.037   6.612   0.153  0.0277 -0.1122  0.7205
 8119TIP3    H145848   6.050   6.707   0.145 -0.5435  0.1906  2.8303
 8119TIP3    H245849   6.009   6.599   0.243 -0.9856 -2.1919  0.1708
 8120TIP3   OH245850   0.472   5.179  16.517  0.3034 -0.6221  0.8602
 8120TIP3    H145851   0.493   5.263  16.476  0.5910 -0.3476  1.5538
 8120TIP3    H245852   0.393   5.196  16.568  0.1952 -0.8490  0.7697
 8121TIP3   OH245853   3.484   0.511  12.654 -0.1108 -0.1069 -0.0158
 8121TIP3    H145854   3.536   0.578  12.699 -1.5828 -0.6987  2.8689
 8121TIP3    H245855   3.547   0.444  12.631  0.7851  0.2380  1.2624
 8122TIP3   OH245856   0.482   6.064  10.516 -0.2035 -0.1434 -0.0879
 8122TIP3    H145857   0.470   6.011  10.438 -1.5831 -0.7447  0.5044
 8122TIP3    H245858   0.394   6.083  10.547  0.2955 -0.4992  1.6911
 8123TIP3   OH245859   2.128   6.771   3.771  0.1872 -0.4822 -0.2033
 8123TIP3    H145860   2.087   6.685   3.782 -3.3100  0.9658 -0.8460
 8123TIP3    H245861   2.163   6.770   3.682 -0.3652 -1.0160 -0.4160
 8124TIP3   OH245862   3.105   5.249   1.537 -0.6523 -0.1239 -0.0458
 8124TIP3    H145863   3.175   5.234   1.601 -0.0440 -0.0818 -0.6849
 8124TIP3    H245864   3.092   5.164   1.495 -1.8311 -0.4237  0.8896
 8125TIP3   OH245865   6.521   5.212  14.604 -0.2031  0.6261  0.6200
 8125TIP3    H145866   6.601   5.191  14.557 -0.3810 -0.0525  0.6062
 8125TIP3    H245867   6.536   5.299  14.642  0.5204  0.5108  0.5938
 8126TIP3   OH245868   3.623   1.386  11.138 -0.5757  0.2887 -0.1915
 8126TIP3    H145869   3.659   1.409  11.052  0.0187 -0.8552 -0.2655
 8126TIP3    H245870   3.698   1.357  11.189 -1.1549 -0.5570  0.1976
 8127TIP3   OH245871   2.662   0.703  13.325  0.4292  0.1895 -0.5577
 8127TIP3    H145872   2.635   0.768  13.261  0.9517 -0.2792 -1.2739
 8127TIP3    H245873   2.749   0.731  13.353 -1.4555  2.9462  3.4052
 8128TIP3   OH245874   2.189   1.576   5.765 -0.1058 -0.0748  0.2026
 8128TIP3    H145875   2.278   1.581   5.798  0.1923 -0.5043 -0.5122
 8128TIP3    H245876   2.176   1.484   5.740 -1.2299 -0.3221  1.5763
 8129TIP3   OH245877   3.048   3.847  12.167 -0.0613 -0.2878 -1.4390
 8129TIP3    H145878   3.101   3.838  12.246 -0.5395 -0.7386 -1.1620
 8129TIP3    H245879   3.092   3.791  12.103  0.6954  0.5795 -1.7003
 8130TIP3   OH245880   2.492   3.782   3.892 -0.3279 -0.6382  0.1226
 8130TIP3    H145881   2.542   3.703   3.870  1.1821  0.5578 -1.0236
 8130TIP3    H245882   2.477   3.824   3.807 -0.8093  0.4651  0.7438
 8131TIP3   OH245883   4.557   4.977  15.494  0.0361 -0.0453  0.3038
 8131TIP3    H145884   4.544   5.060  15.448 -1.5368 -0.6228 -0.3709
 8131TIP3    H245885   4.497   4.982  15.568 -0.3776 -0.7243  0.0245
 8132TIP3   OH245886   3.564   4.582   2.982  0.1976  0.5492  0.1398
 8132TIP3    H145887   3.472   4.603   2.966  0.6318  1.2539 -1.7616
 8132TIP3    H245888   3.567   4.486   2.984 -0.6164  0.5230  0.6167
 8133TIP3   OH245889   4.159   2.363   2.642 -0.1538  0.0974  0.6578
 8133TIP3    H145890   4.193   2.276   2.663  2.5873  1.0775  0.6868
 8133TIP3    H245891   4.172   2.372   2.548 -0.6030  0.4377  0.6222
 8134TIP3   OH245892   5.087   1.198   1.548  0.5820 -0.7267  0.8680
 8134TIP3    H145893   5.104   1.111   1.511 -0.3900 -0.5720 -0.0188
 8134TIP3    H245894   5.077   1.184   1.642 -1.0609 -1.8525  0.5750
 8135TIP3   OH245895   6.008   2.673  12.847 -0.2979 -0.0146  0.2642
 8135TIP3    H145896   5.995   2.604  12.912 -0.4174 -0.4748 -0.2518
 8135TIP3    H245897   6.008   2.628  12.763  0.3336  0.5235 -0.0324
 8136TIP3   OH245898   5.152   3.306   6.523  0.1319 -0.9023 -0.1985
 8136TIP3    H145899   5.069   3.300   6.477  0.4569  0.3449 -1.0144
 8136TIP3    H245900   5.177   3.215   6.540 -2.3021 -1.3110  1.8287
 8137TIP3   OH245901   6.659   4.701  16.226  0.3139  0.1409 -0.2990
 8137TIP3    H145902   6.686   4.738  16.142 -0.6089  0.6508 -0.3856
 8137TIP3    H245903   6.741   4.687  16.273  0.8043  0.4160 -1.0510
 8138TIP3   OH245904   2.258   1.088   5.348  0.0223  0.3272 -0.7879
 8138TIP3    H145905   2.252   1.083   5.444  0.2106 -1.9977 -0.8465
 8138TIP3    H245906   2.170   1.111   5.319 -0.4192 -0.4855 -0.1194
 8139TIP3   OH245907   4.928   1.876  13.246 -0.2032  0.4928  0.0283
 8139TIP3    H145908   5.018   1.842  13.252 -0.8760 -1.2149  1.4166
 8139TIP3    H245909   4.889   1.854  13.331 -2.5415 -0.6342 -1.2433
 8140TIP3   OH245910   3.415   6.486  14.886 -0.4188 -0.2146  0.2624
 8140TIP3    H145911   3.429   6.554  14.821  0.4983 -1.2416 -0.6500
 8140TIP3    H245912   3.355   6.525  14.950  0.9285  1.8029  0.3539
 8141TIP3   OH245913   6.612   2.712  14.894  0.4621 -0.5904  0.3193
 8141TIP3    H145914   6.668   2.781  14.857 -0.9080  0.5747  0.3252
 8141TIP3    H245915   6.607   2.734  14.987  0.4261 -1.0044  0.4154
 8142TIP3   OH245916   6.702   0.192   2.369 -0.1508 -0.6570 -0.5969
 8142TIP3    H145917   6.725   0.099   2.364 -0.8406 -0.7990 -1.3188
 8142TIP3    H245918   6.736   0.229   2.288  2.4921  0.3018  0.8183
 8143TIP3   OH245919   6.555   3.959   6.199 -0.0065  0.0077  0.1254
 8143TIP3    H145920   6.611   3.999   6.132 -0.2543 -0.2590 -0.2489
 8143TIP3    H245921   6.493   3.906   6.149 -0.8727  0.6373  0.4953
 8144TIP3   OH245922   4.529   3.839   5.121 -0.2820 -0.4240 -0.4964
 8144TIP3    H145923   4.565   3.912   5.071 -0.0449  0.9635  1.6207
 8144TIP3    H245924   4.436   3.858   5.129 -0.3837 -0.8236 -0.6974
 8145TIP3   OH245925   6.406   2.572   0.538  0.4751 -0.3131  0.5910
 8145TIP3    H145926   6.427   2.591   0.447 -0.5300 -0.6782  0.2699
 8145TIP3    H245927   6.375   2.481   0.537 -1.1757  0.2130  0.9989
 8146TIP3   OH245928   2.984   1.259  13.394  0.3592  0.1608  0.0102
 8146TIP3    H145929   2.952   1.303  13.316  0.8780 -1.1392 -0.9682
 8146TIP3    H245930   3.021   1.330  13.448 -0.5032  1.1431 -0.6543
 8147TIP3   OH245931   5.731   0.219   0.331 -0.4783 -0.0517 -0.1833
 8147TIP3    H145932   5.820   0.212   0.364  0.7632  0.1598 -3.1246
 8147TIP3    H245933   5.723   0.309   0.302 -2.6867  0.7106  2.4033
 8148TIP3   OH245934   5.673   3.735  12.628  0.0231  0.1010 -0.2377
 8148TIP3    H145935   5.752   3.687  12.604 -0.0874  0.4445 -1.3111
 8148TIP3    H245936   5.638   3.767  12.545 -0.5147  1.0888  0.3612
 8149TIP3   OH245937   2.461   3.511   4.028  0.7476 -0.3890 -0.2072
 8149TIP3    H145938   2.479   3.527   4.120 -1.0966 -0.1332  0.1545
 8149TIP3    H245939   2.506   3.429   4.008 -0.7035 -1.7085  1.5877
 8150TIP3   OH245940   5.997   2.539   9.875 -0.5020 -0.1811  0.4092
 8150TIP3    H145941   6.045   2.482   9.935  1.9084 -0.1294 -1.3617
 8150TIP3    H245942   6.058   2.610   9.855 -2.3408  1.4261  0.1702
 8151TIP3   OH245943   2.993   2.345   0.392  0.3633  0.1094 -0.3943
 8151TIP3    H145944   2.999   2.327   0.298  0.7302 -0.9708 -0.1820
 8151TIP3    H245945   2.908   2.387   0.403  0.5634  0.7624 -1.2869
 8152TIP3   OH245946   4.457   6.599  15.969  0.3851 -0.4769 -0.3876
 8152TIP3    H145947   4.500   6.645  15.896  1.9419  2.5455  2.1458
 8152TIP3    H245948   4.364   6.613  15.954  0.6693  0.2917 -1.6812
 8153TIP3   OH245949   0.792   3.611  13.554 -0.2104  0.3668 -0.0561
 8153TIP3    H145950   0.817   3.573  13.639 -0.7691  0.8192  0.3228
 8153TIP3    H245951   0.865   3.670  13.533  0.5428 -0.6994 -0.5274
 8154TIP3   OH245952   2.507   6.594   4.683 -0.6075 -0.2975 -0.7827
 8154TIP3    H145953   2.599   6.607   4.660 -0.3678 -0.6640 -0.0679
 8154TIP3    H245954   2.494   6.644   4.763 -1.6355  1.6006 -2.0577
 8155TIP3   OH245955   1.752   3.018   0.749 -0.7453  0.0798 -0.8697
 8155TIP3    H145956   1.824   2.957   0.733 -1.4820 -0.3293 -3.0420
 8155TIP3    H245957   1.794   3.098   0.781  0.4541 -0.7713 -0.2195
 8156TIP3   OH245958   0.664   3.480   5.980  0.7114  0.3078  0.5529
 8156TIP3    H145959   0.596   3.428   6.022  1.0454  0.0992  0.8428
 8156TIP3    H245960   0.728   3.496   6.049  0.9814  0.4597  0.2714
 8157TIP3   OH245961   4.078   4.194  14.840  0.0829  0.2094  0.1376
 8157TIP3    H145962   3.991   4.184  14.802  0.7773 -2.0402 -1.0613
 8157TIP3    H245963   4.070   4.162  14.930  0.1497 -2.5581 -0.7551
 8158TIP3   OH245964   0.366   2.824   0.488 -0.0069 -0.0794  0.0991
 8158TIP3    H145965   0.389   2.737   0.519  0.3662 -0.0728 -0.1567
 8158TIP3    H245966   0.310   2.809   0.412  0.0427 -0.0982  0.0660
 8159TIP3   OH245967   4.596   2.909  14.183 -0.0184  0.3751  0.3626
 8159TIP3    H145968   4.511   2.885  14.220 -1.4063  2.7164 -1.0882
 8159TIP3    H245969   4.656   2.906  14.257 -1.1487 -2.0223  1.2944
 8160TIP3   OH245970   5.827   4.081   5.562 -0.3670  0.2022  0.0903
 8160TIP3    H145971   5.815   4.120   5.649 -1.8842 -1.0694  0.4924
 8160TIP3    H245972   5.741   4.085   5.521  0.8676  3.7075 -2.7692
 8161TIP3   OH245973   4.930   5.550   1.791 -0.5958  0.0050 -0.2828
 8161TIP3    H145974   4.892   5.586   1.871  0.3387  0.2145  0.0721
 8161TIP3    H245975   4.952   5.627   1.738 -0.2660 -0.1029 -0.3023
 8162TIP3   OH245976   2.402   5.869  12.532 -0.0489  0.2165  0.2571
 8162TIP3    H145977   2.314   5.859  12.569 -0.0847 -0.1707  0.0709
 8162TIP3    H245978   2.461   5.848  12.605 -0.0723  1.9829  0.8440
 8163TIP3   OH245979   6.314   1.933  13.337 -0.5114  0.1227  0.1114
 8163TIP3    H145980   6.259   2.005  13.305 -0.7871 -0.1923 -0.1361
 8163TIP3    H245981   6.376   1.974  13.397 -1.2827  0.4312  0.7234
 8164TIP3   OH245982   2.549   4.620   3.512  0.0212 -0.0994  0.3371
 8164TIP3    H145983   2.470   4.592   3.557  1.2461  0.0079  2.6633
 8164TIP3    H245984   2.610   4.547   3.522  1.1076  0.8545  0.9544
 8165TIP3   OH245985   2.996   0.465   5.395  0.3917 -0.3695 -0.0501
 8165TIP3    H145986   2.956   0.538   5.348  0.3349  1.3160  2.4127
 8165TIP3    H245987   3.088   0.465   5.366 -0.0431 -0.6166 -1.5060
 8166TIP3   OH245988   2.313   6.711  12.949 -0.0264 -0.4019  0.0937
 8166TIP3    H145989   2.370   6.772  12.997 -1.2355 -0.6483  1.9692
 8166TIP3    H245990   2.318   6.630  12.999 -0.3670 -1.0874 -0.9598
 8167TIP3   OH245991   3.924   2.961  11.319 -0.3144 -0.2024  0.1152
 8167TIP3    H145992   4.014   2.928  11.322  0.4982  1.7682 -1.1404
 8167TIP3    H245993   3.879   2.901  11.258  0.9384  0.4719 -1.5554
 8168TIP3   OH245994   5.358   2.583   2.457  0.4404  0.3955 -0.1919
 8168TIP3    H145995   5.277   2.634   2.459 -1.0200 -1.7927 -0.1613
 8168TIP3    H245996   5.361   2.540   2.543  0.8022 -0.7560 -0.7664
 8169TIP3   OH245997   2.132   2.609  16.387  0.0576  0.1829  0.3969
 8169TIP3    H145998   2.046   2.651  16.389  1.0588  2.3412  1.0778
 8169TIP3    H245999   2.136   2.568  16.301 -0.4679  2.7969 -0.9952
 8170TIP3   OH246000   4.129   2.521   6.597  0.2118 -0.3382 -0.2909
 8170TIP3    H146001   4.177   2.446   6.560  1.1466 -1.3655  2.6174
 8170TIP3    H246002   4.038   2.506   6.573  0.8101 -0.3786 -2.8177
 8171TIP3   OH246003   1.869   2.191  12.870 -1.1075  0.3218  0.2527
 8171TIP3    H146004   1.927   2.169  12.943  0.1517  0.4957 -0.6633
 8171TIP3    H246005   1.888   2.283  12.852 -0.1675 -0.1568 -1.3522
 8172TIP3   OH246006   4.433   4.311  15.000  0.0522  0.1345 -0.2965
 8172TIP3    H146007   4.518   4.341  14.967 -0.3524  1.9285  0.2125
 8172TIP3    H246008   4.424   4.223  14.963  3.6627 -1.6065  2.3277
 8173TIP3   OH246009   5.637   3.388  14.189  0.4334  0.2809 -0.6338
 8173TIP3    H146010   5.700   3.342  14.133  0.5619  0.1107 -0.3477
 8173TIP3    H246011   5.645   3.480  14.163  1.1641  0.3278 -0.2395
 8174TIP3   OH246012   4.301   2.593  11.465 -0.0909  0.1421 -0.0034
 8174TIP3    H146013   4.266   2.623  11.549 -0.0523  0.3518 -0.0631
 8174TIP3    H246014   4.367   2.659  11.442 -0.1386  0.1104 -0.2251
 8175TIP3   OH246015   6.598   5.296   0.098 -0.5382 -0.3030 -0.1583
 8175TIP3    H146016   6.691   5.276   0.097 -0.1993  1.0031  1.3424
 8175TIP3    H246017   6.561   5.242   0.028  1.2147 -1.3861 -0.3077
 8176TIP3   OH246018   1.391   5.473  10.298  0.1002 -0.5184  0.3625
 8176TIP3    H146019   1.427   5.401  10.246 -0.0646  0.4787 -1.2262
 8176TIP3    H246020   1.338   5.523  10.235  0.1046  0.9042  1.4484
 8177TIP3   OH246021   4.512   2.547   0.735  0.3302  0.2631  0.4703
 8177TIP3    H146022   4.564   2.600   0.675  0.1118  0.6104  0.5831
 8177TIP3    H246023   4.576   2.509   0.795  0.7884 -1.6968 -1.1432
 8178TIP3   OH246024   3.106   5.387  16.521  0.9022 -0.2834  0.0719
 8178TIP3    H146025   3.045   5.455  16.551 -1.2044 -1.4118 -1.4778
 8178TIP3    H246026   3.175   5.436  16.475  1.2223  1.0069  1.7955
 8179TIP3   OH246027   3.204   0.523  16.417  0.2229 -0.2569 -0.2744
 8179TIP3    H146028   3.296   0.515  16.444  1.1256  1.3051 -2.5574
 8179TIP3    H246029   3.207   0.522  16.322 -2.2375 -0.7936 -0.4049
 8180TIP3   OH246030   3.071   2.971  11.924 -0.3543  0.0911  0.0523
 8180TIP3    H146031   3.012   3.046  11.924  1.2340  1.4115  0.7302
 8180TIP3    H246032   3.158   3.009  11.906  0.3861 -1.6813 -0.3289
 8181TIP3   OH246033   5.635   0.250   4.548 -0.7056  0.0237 -0.2962
 8181TIP3    H146034   5.561   0.202   4.585 -1.9571  0.9312 -1.5010
 8181TIP3    H246035   5.694   0.182   4.515 -1.5001 -0.7150 -0.2339
 8182TIP3   OH246036   2.383   3.221   6.278 -0.1955 -0.4471 -0.6918
 8182TIP3    H146037   2.436   3.299   6.260 -1.8643  0.9737  0.2519
 8182TIP3    H246038   2.438   3.169   6.337  0.2706  0.8637  0.0806
 8183TIP3   OH246039   6.882   0.111  12.044  0.9658  0.0896 -0.0319
 8183TIP3    H146040   6.832   0.169  12.100 -2.1660 -0.9748 -1.4910
 8183TIP3    H246041   6.888   0.158  11.960 -0.7315 -1.1551 -0.9148
 8184TIP3   OH246042   4.320   0.109  13.807 -0.2634 -0.2257  0.4363
 8184TIP3    H146043   4.316   0.137  13.898 -0.1105 -0.0336  0.3836
 8184TIP3    H246044   4.348   0.186  13.759  0.2441 -0.4906  0.3032
 8185TIP3   OH246045   0.000   1.124   3.751 -0.5296  0.1539  0.3171
 8185TIP3    H146046   0.084   1.079   3.760 -0.3525 -0.1177 -2.0832
 8185TIP3    H246047  -0.004   1.149   3.659 -2.9714  0.4311  0.4350
 8186TIP3   OH246048   2.161   6.182   4.463  0.1916 -0.3230  0.2800
 8186TIP3    H146049   2.222   6.202   4.392  0.3532  1.5089  0.8842
 8186TIP3    H246050   2.198   6.225   4.540 -0.4423 -1.5172  1.2831
 8187TIP3   OH246051   5.351   6.576   5.443  0.6140  0.3047 -0.3580
 8187TIP3    H146052   5.309   6.657   5.413  1.1149  0.3219 -1.0540
 8187TIP3    H246053   5.411   6.553   5.372  2.3854  0.7392  0.9194
 8188TIP3   OH246054   0.034   2.252   4.791  0.1947  0.1036  0.4234
 8188TIP3    H146055   0.023   2.335   4.745  0.5299 -0.2595 -0.3217
 8188TIP3    H246056   0.078   2.195   4.728 -2.3129 -1.4755 -0.0709
 8189TIP3   OH246057   2.167   5.048  13.275  0.1625 -0.1063 -0.8713
 8189TIP3    H146058   2.239   5.102  13.307 -0.8510  0.3337  0.7973
 8189TIP3    H246059   2.125   5.101  13.207 -0.6535  1.1354  0.5579
 8190TIP3   OH246060   0.434   2.906   1.976 -0.4903  0.4622  0.3143
 8190TIP3    H146061   0.347   2.894   2.014 -0.5443 -1.4732 -0.3135
 8190TIP3    H246062   0.425   2.877   1.885  0.9096 -0.2209  0.3676
 8191TIP3   OH246063   4.233   5.440  11.188 -0.2148  0.3193  0.1496
 8191TIP3    H146064   4.305   5.398  11.141  0.6289  1.9452 -0.0788
 8191TIP3    H246065   4.168   5.459  11.120 -0.7419 -0.8544  0.3037
 8192TIP3   OH246066   1.099   3.771  14.438 -0.1807 -0.3901  0.2969
 8192TIP3    H146067   1.047   3.751  14.360 -1.7477 -0.4266  1.3008
 8192TIP3    H246068   1.112   3.865  14.435  0.9590 -0.5490 -0.6858
 8193TIP3   OH246069   4.010   4.369   0.948 -0.0558  0.2348  0.0535
 8193TIP3    H146070   4.039   4.342   1.036 -0.0225  0.1607  0.0207
 8193TIP3    H246071   4.042   4.299   0.891 -1.1081 -0.3283  0.1304
 8194TIP3   OH246072   3.756   4.723   4.418 -0.6798 -0.0482  0.0265
 8194TIP3    H146073   3.804   4.651   4.460 -0.2587 -0.6013 -1.3416
 8194TIP3    H246074   3.824   4.787   4.397 -0.8970  0.2499  0.2257
 8195TIP3   OH246075   0.381   6.542  16.297  0.1899 -1.0867  0.2116
 8195TIP3    H146076   0.379   6.637  16.288 -0.1243 -1.1207 -0.1500
 8195TIP3    H246077   0.432   6.512  16.222 -0.7013 -1.2629 -0.3451
 8196TIP3   OH246078   0.704   0.266   5.415  0.3109 -0.2989  0.6006
 8196TIP3    H146079   0.763   0.333   5.448 -0.4386 -0.4325  2.3355
 8196TIP3    H246080   0.654   0.238   5.492 -0.9988 -1.2054 -0.5274
 8197TIP3   OH246081   2.583   3.068   5.388  0.8332 -0.3016 -0.0938
 8197TIP3    H146082   2.508   3.126   5.371  0.4027 -0.8837 -0.2041
 8197TIP3    H246083   2.565   3.031   5.474  0.2859 -1.5114 -0.7148
 8198TIP3   OH246084   5.776   6.035  11.278 -0.0829 -0.4928 -0.0610
 8198TIP3    H146085   5.724   6.071  11.207  0.2182 -0.5704 -0.3251
 8198TIP3    H246086   5.749   5.943  11.284 -0.0200 -0.5176 -0.1570
 8199TIP3   OH246087   6.145   3.643   4.368  0.2977  0.3839  0.3116
 8199TIP3    H146088   6.087   3.569   4.387 -0.5172  0.4277 -1.7768
 8199TIP3    H246089   6.093   3.720   4.390  0.3676  0.3887  0.4637
 8200TIP3   OH246090   5.778   1.382   2.368 -0.9329  0.2184  0.0924
 8200TIP3    H146091   5.850   1.443   2.385 -2.2845  1.4487  1.8650
 8200TIP3    H246092   5.796   1.347   2.281  1.0851  1.4905 -0.0707
 8201TIP3   OH246093   0.193   3.288  11.577  0.0627 -0.2187  0.7124
 8201TIP3    H146094   0.221   3.221  11.516  2.3409  0.7254  0.6404
 8201TIP3    H246095   0.106   3.314  11.546 -1.6631 -4.0602  1.6200
 8202TIP3   OH246096   0.099   3.693  11.184  0.6521 -0.4670 -0.9598
 8202TIP3    H146097   0.041   3.768  11.201  0.8030 -0.5582  0.0338
 8202TIP3    H246098   0.187   3.729  11.191  0.8694 -1.3217  3.1009
 8203TIP3   OH246099   2.505   4.503  10.787 -0.3729  0.5415  0.3787
 8203TIP3    H146100   2.496   4.596  10.763 -0.7910  0.5129  0.4097
 8203TIP3    H246101   2.451   4.457  10.723  0.9043  0.1857 -0.4879
 8204TIP3   OH246102   2.476   1.234   1.792  0.3330  0.7267 -0.1141
 8204TIP3    H146103   2.526   1.201   1.717  0.0420 -0.6682  0.2682
 8204TIP3    H246104   2.474   1.329   1.780  0.6761  0.5704 -1.6247
 8205TIP3   OH246105   2.018   0.132   5.163  0.6479  0.3412  0.1817
 8205TIP3    H146106   2.062   0.111   5.246 -0.4138 -0.9681  0.4378
 8205TIP3    H246107   1.945   0.188   5.188  0.8336  0.6706  0.0074
 8206TIP3   OH246108   0.705   6.796  11.302  0.0990  0.7016  0.0301
 8206TIP3    H146109   0.669   6.708  11.314  0.8445  0.3302 -0.4095
 8206TIP3    H246110   0.631   6.847  11.268 -0.2574  0.1754 -0.0045
 8207TIP3   OH246111   4.599   0.575  15.965 -0.4321 -0.5143  0.3207
 8207TIP3    H146112   4.541   0.634  16.012 -2.4043 -0.4831 -2.0032
 8207TIP3    H246113   4.556   0.490  15.969  2.4396 -2.0961  3.7750
 8208TIP3   OH246114   6.588   3.208  12.211 -0.3202 -0.3690 -0.0691
 8208TIP3    H146115   6.582   3.156  12.131 -1.3161  0.4506 -0.5527
 8208TIP3    H246116   6.502   3.199  12.252  0.0354 -0.4208  0.6842
 8209TIP3   OH246117   5.212   2.687   3.367 -0.1403  0.6634  0.7328
 8209TIP3    H146118   5.186   2.778   3.353  1.0901  0.6045 -2.7917
 8209TIP3    H246119   5.144   2.636   3.324  1.1557  0.1406 -0.7608
 8210TIP3   OH246120   4.008   1.542  10.567  0.3858  0.1832  0.3997
 8210TIP3    H146121   4.000   1.451  10.538 -1.8130  0.8451 -1.4060
 8210TIP3    H246122   3.929   1.558  10.619  0.0209  1.4167 -0.4886
 8211TIP3   OH246123   4.226   0.806  11.254  0.9833 -0.1366 -0.1153
 8211TIP3    H146124   4.219   0.819  11.348  2.2201 -1.4116  0.1822
 8211TIP3    H246125   4.316   0.830  11.233  1.1842 -1.3090 -0.6935
 8212TIP3   OH246126   3.928   3.159   4.392 -0.2752  0.3465 -0.0010
 8212TIP3    H146127   3.888   3.245   4.403 -0.8858 -0.1229  1.5466
 8212TIP3    H246128   3.995   3.155   4.460  0.8808  0.2203 -1.1121
 8213TIP3   OH246129   3.506   3.201  15.069  0.2712 -0.3711 -0.0780
 8213TIP3    H146130   3.541   3.115  15.096 -2.1224 -1.0473  1.1385
 8213TIP3    H246131   3.584   3.251  15.045  1.8712 -2.4691  0.3637
 8214TIP3   OH246132   4.401   1.332  16.820 -0.3393 -0.2440 -0.7582
 8214TIP3    H146133   4.488   1.304  16.790  0.0508 -0.8451  0.7972
 8214TIP3    H246134   4.346   1.255  16.809 -1.0720  0.5178 -2.9909
 8215TIP3   OH246135   0.112   6.626   4.858 -0.3535 -0.1503  0.2399
 8215TIP3    H146136   0.027   6.583   4.873 -0.7500 -0.5058 -2.5139
 8215TIP3    H246137   0.107   6.657   4.768  2.1750  0.5096  0.2698
 8216TIP3   OH246138   0.045   4.505  14.930 -0.2515  0.1894  0.6839
 8216TIP3    H146139  -0.005   4.423  14.926  0.9400 -0.5472 -1.7191
 8216TIP3    H246140   0.072   4.512  15.021 -4.4724  0.5785  2.1092
 8217TIP3   OH246141   2.526   5.463   4.708  0.1819 -0.5835 -0.0171
 8217TIP3    H146142   2.492   5.407   4.639  0.5324 -0.3285 -0.4018
 8217TIP3    H246143   2.550   5.544   4.664  1.8033 -0.9533  0.1422
 8218TIP3   OH246144   1.850   4.539   0.503 -0.3526  0.9368 -0.4271
 8218TIP3    H146145   1.790   4.605   0.467  0.7609  1.9238 -0.5418
 8218TIP3    H246146   1.831   4.539   0.597  0.6471  2.5377 -0.1932
 8219TIP3   OH246147   1.362   2.648   1.907 -0.0868  0.0489 -0.5780
 8219TIP3    H146148   1.369   2.743   1.919 -0.4445  0.0837 -0.6346
 8219TIP3    H246149   1.390   2.611   1.991  2.7970  0.0965 -1.4129
 8220TIP3   OH246150   5.130   6.735  13.103 -0.2158 -0.5751 -0.0012
 8220TIP3    H146151   5.098   6.825  13.101  1.1732 -0.0020  1.2243
 8220TIP3    H246152   5.075   6.688  13.041 -1.5322  0.9264 -0.0271
 8221TIP3   OH246153   4.786   1.017   1.683 -0.1167 -0.0473  0.2211
 8221TIP3    H146154   4.853   0.948   1.683  0.1149  0.1600  1.3022
 8221TIP3    H246155   4.742   1.007   1.599  0.7262 -0.7253 -0.1613
 8222TIP3   OH246156   4.398   5.672  14.320 -0.6057  1.4215 -0.4929
 8222TIP3    H146157   4.348   5.731  14.375 -1.1479  0.6406 -0.1334
 8222TIP3    H246158   4.401   5.715  14.235 -3.7469  0.5467 -1.1685
 8223TIP3   OH246159   6.340   0.780  12.372 -0.2646 -0.1946  0.2939
 8223TIP3    H146160   6.355   0.725  12.449 -2.5092 -1.5545 -0.1519
 8223TIP3    H246161   6.280   0.848  12.403  0.0702  0.1994  0.0949
 8224TIP3   OH246162   6.414   4.593   4.351 -0.1021  0.6028 -0.8811
 8224TIP3    H146163   6.499   4.573   4.391  0.0291  0.2244 -1.3495
 8224TIP3    H246164   6.370   4.649   4.416  0.5394  0.8764 -0.6761
 8225TIP3   OH246165   1.271   1.204   4.146 -0.5525  0.5987  0.7864
 8225TIP3    H146166   1.262   1.291   4.107  0.9874  1.0716  1.4143
 8225TIP3    H246167   1.308   1.150   4.077 -0.9468  0.5960  0.5775
 8226TIP3   OH246168   5.792   2.448  15.489 -0.4236  0.3825 -0.1375
 8226TIP3    H146169   5.818   2.523  15.436 -0.9869  1.0786  0.5505
 8226TIP3    H246170   5.873   2.420  15.531 -0.5105  1.7413  0.9982
 8227TIP3   OH246171   2.107   0.767  13.438  0.3443  0.2091  0.0565
 8227TIP3    H146172   2.202   0.757  13.429  0.3882  0.1319  0.5608
 8227TIP3    H246173   2.072   0.740  13.353  0.6548 -1.6620  0.4646
 8228TIP3   OH246174   5.105   3.506  15.541 -0.5648  0.1447  0.3836
 8228TIP3    H146175   5.154   3.476  15.464  1.9739 -1.0521  2.3047
 8228TIP3    H246176   5.045   3.434  15.561  0.3360 -0.5455  0.7234
 8229TIP3   OH246177   5.431   2.864   4.559  0.0684  0.2500  0.2286
 8229TIP3    H146178   5.500   2.926   4.536 -0.6745  0.6674 -1.0150
 8229TIP3    H246179   5.356   2.891   4.505 -0.7194 -0.8509  0.7319
 8230TIP3   OH246180   0.235   4.437   2.868 -0.1227  0.3040  0.1249
 8230TIP3    H146181   0.304   4.395   2.818 -0.1818  0.9264 -0.4949
 8230TIP3    H246182   0.225   4.524   2.828 -0.7389  0.5067  0.6867
 8231TIP3   OH246183   5.752   6.352   4.243 -0.3500  0.2769  0.6292
 8231TIP3    H146184   5.800   6.269   4.233  1.1394  1.0410  1.1674
 8231TIP3    H246185   5.819   6.416   4.269 -0.7469  2.4520 -3.0316
 8232TIP3   OH246186   2.115   4.195   3.543  0.0665 -0.3608  0.1879
 8232TIP3    H146187   2.187   4.140   3.513  0.6315  0.1903  0.5060
 8232TIP3    H246188   2.051   4.191   3.472  0.8902  0.0160 -0.6035
 8233TIP3   OH246189   1.755   5.932  14.024 -0.2624 -0.3401  0.2496
 8233TIP3    H146190   1.733   5.917  13.932  1.4242  1.9851 -0.6383
 8233TIP3    H246191   1.851   5.931  14.027 -0.2744 -0.0589  1.9268
 8234TIP3   OH246192   1.796   1.290  16.621  0.9388 -0.0415 -0.6667
 8234TIP3    H146193   1.724   1.232  16.641 -0.0604  0.5849 -2.2514
 8234TIP3    H246194   1.846   1.297  16.702 -0.8544 -0.3906  0.4934
 8235TIP3   OH246195   3.697   1.080  12.386  0.1340 -0.6872  0.4118
 8235TIP3    H146196   3.714   1.171  12.362  0.6118 -1.2053 -1.3607
 8235TIP3    H246197   3.783   1.039  12.384 -0.2309 -1.4437 -0.0458
 8236TIP3   OH246198   0.800   1.349   0.613  0.3183 -0.2619  0.5701
 8236TIP3    H146199   0.839   1.269   0.578  1.1894  0.0128  0.8690
 8236TIP3    H246200   0.733   1.374   0.549 -0.9402 -1.9631  1.1411
 8237TIP3   OH246201   1.742   0.963  10.426 -0.2945 -0.1892 -0.4443
 8237TIP3    H146202   1.660   0.993  10.464  0.6824  1.2751  0.6196
 8237TIP3    H246203   1.748   0.871  10.451 -1.5749 -0.3064 -0.5047
 8238TIP3   OH246204   5.165   2.522  16.038 -0.8483 -0.3769 -0.3700
 8238TIP3    H146205   5.151   2.474  15.956 -0.9517  0.0805 -0.6265
 8238TIP3    H246206   5.246   2.486  16.074 -0.5605 -0.2716 -0.9041
 8239TIP3   OH246207   2.332   3.848  12.655 -0.2013 -0.1514  0.2518
 8239TIP3    H146208   2.298   3.921  12.707  1.2360  0.5887  0.2106
 8239TIP3    H246209   2.341   3.777  12.718  2.6172  1.0707  1.4050
 8240TIP3   OH246210   4.359   4.697   3.570 -0.4931 -0.4719  0.1346
 8240TIP3    H146211   4.301   4.733   3.504 -1.7704 -0.7255  1.0842
 8240TIP3    H246212   4.329   4.736   3.653 -0.9472 -2.4972  0.9841
 8241TIP3   OH246213   3.109   1.078   0.675 -0.1930  0.2582 -0.6881
 8241TIP3    H146214   3.062   0.996   0.689 -0.7401  0.3853 -1.7341
 8241TIP3    H246215   3.184   1.072   0.734 -0.0669 -1.1297 -0.9477
 8242TIP3   OH246216   5.795   6.049   2.161 -0.5748  0.1909 -0.2266
 8242TIP3    H146217   5.778   6.031   2.068  0.4979 -0.7986 -0.2566
 8242TIP3    H246218   5.878   6.006   2.179 -0.9251  0.0796  1.2932
 8243TIP3   OH246219   1.266   2.999  10.575  0.7659 -0.2065 -0.2541
 8243TIP3    H146220   1.306   2.937  10.636  0.3419 -0.2420 -0.0033
 8243TIP3    H246221   1.188   3.031  10.622  0.4737 -0.1844 -0.7533
 8244TIP3   OH246222   5.808   2.547  10.797  0.2658  0.4429  0.0582
 8244TIP3    H146223   5.816   2.452  10.787  2.0064  0.7936 -3.1777
 8244TIP3    H246224   5.728   2.569  10.748  1.1653  0.8068 -1.3169
 8245TIP3   OH246225   5.929   0.109  11.370 -0.4003  0.2322  0.6635
 8245TIP3    H146226   5.969   0.173  11.311  3.7492 -1.8407  0.8295
 8245TIP3    H246227   5.908   0.035  11.313  0.4215 -0.4608  1.2273
 8246TIP3   OH246228   3.207   6.761   4.454 -0.1268 -0.2730 -0.3840
 8246TIP3    H146229   3.292   6.798   4.480  0.1388 -0.9584 -0.2339
 8246TIP3    H246230   3.172   6.823   4.391  0.5812 -0.0656 -0.5913
 8247TIP3   OH246231   6.678   0.876   4.498  0.8215 -0.3961  0.0569
 8247TIP3    H146232   6.688   0.780   4.497 -0.3712 -0.5411  0.2506
 8247TIP3    H246233   6.718   0.903   4.580 -0.3280 -0.9383  0.8212
 8248TIP3   OH246234   1.002   5.844  16.312 -0.0746 -0.3739 -0.3450
 8248TIP3    H146235   1.087   5.890  16.313 -0.1893 -0.1638  0.2776
 8248TIP3    H246236   0.978   5.841  16.220  0.8644 -0.9065 -0.5838
 8249TIP3   OH246237   3.999   0.164   4.098  0.1990 -0.1534  0.4444
 8249TIP3    H146238   3.921   0.160   4.044  1.1808 -0.5692 -1.0009
 8249TIP3    H246239   4.023   0.073   4.114  0.9661 -0.0472 -0.0280
 8250TIP3   OH246240   5.244   4.930   5.246 -0.0095  0.0272  0.6369
 8250TIP3    H146241   5.186   4.920   5.171  1.5269  1.2851 -0.8027
 8250TIP3    H246242   5.258   4.841   5.278 -0.1578 -0.6205 -1.0088
 8251TIP3   OH246243   3.459   1.549   3.546 -0.0179  0.0736  0.1694
 8251TIP3    H146244   3.519   1.513   3.482 -1.9417 -1.2245 -0.9941
 8251TIP3    H246245   3.492   1.519   3.631  2.1066  1.1614 -0.2092
 8252TIP3   OH246246   3.499   1.326   5.141  0.8624  0.8714  0.0501
 8252TIP3    H146247   3.461   1.409   5.109  0.5553  0.5039 -0.5665
 8252TIP3    H246248   3.586   1.323   5.101  0.2471  0.1180 -1.3076
 8253TIP3   OH246249   4.968   5.876  16.521  0.1630  0.3214  0.5912
 8253TIP3    H146250   4.880   5.848  16.498  0.2232 -0.4975  1.2940
 8253TIP3    H246251   4.965   5.972  16.519 -0.6506  0.2909  0.3079
 8254TIP3   OH246252   3.891   2.459  13.568 -0.2086  0.9856  0.5925
 8254TIP3    H146253   3.982   2.453  13.539 -0.2103 -1.9185  0.8683
 8254TIP3    H246254   3.896   2.483  13.660  0.1099  3.2955  0.0215
 8255TIP3   OH246255   6.568   0.176  13.703  0.0421  0.2968 -0.7072
 8255TIP3    H146256   6.524   0.259  13.724  0.2669  0.6301 -1.4882
 8255TIP3    H246257   6.573   0.176  13.607 -1.8122 -1.5677 -0.8971
 8256TIP3   OH246258   1.164   5.040  11.615  0.5388  0.6962 -0.7302
 8256TIP3    H146259   1.072   5.035  11.640  0.5377  0.5739 -0.7570
 8256TIP3    H246260   1.180   5.133  11.600  1.0174  1.0636  1.5924
 8257TIP3   OH246261   6.712   2.041   4.090 -0.0950 -0.2796 -0.2025
 8257TIP3    H146262   6.636   2.023   4.035 -0.8210 -1.9855  1.2378
 8257TIP3    H246263   6.726   2.136   4.082 -1.1872 -0.2250 -1.9462
 8258TIP3   OH246264   3.648   5.992  14.170 -0.0149  0.2397  0.7728
 8258TIP3    H146265   3.682   6.048  14.101  2.1477 -0.3017  1.3043
 8258TIP3    H246266   3.641   5.905  14.130 -1.4524  0.4479  0.5044
 8259TIP3   OH246267   5.589   3.430   3.187  0.0478  0.4319  0.3094
 8259TIP3    H146268   5.599   3.511   3.238  0.8043 -0.3905  1.5213
 8259TIP3    H246269   5.498   3.431   3.158  0.2782  2.1446 -0.4814
 8260TIP3   OH246270   0.932   3.262  10.311  0.5754  0.2903  0.5679
 8260TIP3    H146271   0.912   3.245  10.403  0.3325  2.4731  0.9812
 8260TIP3    H246272   0.854   3.231  10.264  0.2061  0.2079  1.2192
 8261TIP3   OH246273   6.362   6.450  10.973  0.0265 -0.5227 -0.6971
 8261TIP3    H146274   6.375   6.380  11.037  0.7717 -0.3464 -0.6471
 8261TIP3    H246275   6.447   6.459  10.929 -0.0940  0.2563 -0.7904
 8262TIP3   OH246276   4.488   4.760  14.148 -0.5414  0.0605  0.4748
 8262TIP3    H146277   4.573   4.736  14.111 -1.0708 -1.8986  0.3761
 8262TIP3    H246278   4.432   4.773  14.071 -0.4132  1.1188  0.5437
 8263TIP3   OH246279   5.228   3.717   2.355 -0.2820 -0.8031  0.0872
 8263TIP3    H146280   5.246   3.628   2.385 -1.9388 -0.8551  0.9933
 8263TIP3    H246281   5.238   3.771   2.433 -0.9726 -0.4200 -0.0880
 8264TIP3   OH246282   4.905   4.252  12.619  0.5240  0.2503  0.5600
 8264TIP3    H146283   4.978   4.313  12.604  1.0913  0.0252  2.2291
 8264TIP3    H246284   4.947   4.172  12.649 -0.3128 -0.5407 -0.3045
 8265TIP3   OH246285   3.856   6.536   3.443 -0.5550  0.0434 -0.1318
 8265TIP3    H146286   3.937   6.491   3.468  0.8535  1.7731 -1.3280
 8265TIP3    H246287   3.858   6.538   3.347 -2.2865 -0.2938 -0.2027
 8266TIP3   OH246288   4.690   5.078   1.724  0.2858 -0.4131 -0.0073
 8266TIP3    H146289   4.737   5.019   1.783  1.2504 -0.5607 -0.9041
 8266TIP3    H246290   4.727   5.164   1.743  0.6784 -0.4777 -0.4719
 8267TIP3   OH246291   2.399   3.559  13.868  0.0075  0.3420  0.0964
 8267TIP3    H146292   2.399   3.467  13.843  1.6736  0.1525  0.7044
 8267TIP3    H246293   2.452   3.603  13.802 -0.4758  0.8233  0.0165
 8268TIP3   OH246294   6.600   3.395   4.322  0.1730  0.5123  0.7805
 8268TIP3    H146295   6.560   3.329   4.266  1.0590  0.9715 -0.4426
 8268TIP3    H246296   6.533   3.415   4.388 -0.3208 -1.1455  0.8142
 8269TIP3   OH246297   4.624   0.513  11.019 -0.5817 -0.2420 -0.8735
 8269TIP3    H146298   4.644   0.582  11.083 -0.3492 -0.1168 -1.0827
 8269TIP3    H246299   4.601   0.437  11.073  1.5950 -0.7572 -0.5937
 8270TIP3   OH246300   4.486   0.486   5.034 -0.0078 -0.3493  0.0568
 8270TIP3    H146301   4.558   0.491   5.096  0.5496 -2.0440 -0.3892
 8270TIP3    H246302   4.429   0.418   5.069 -1.4013  0.9371  0.3738
 8271TIP3   OH246303   4.036   5.749   2.496  0.3343 -0.1127  0.1697
 8271TIP3    H146304   3.958   5.721   2.447  0.1745  0.0106  0.3506
 8271TIP3    H246305   4.102   5.682   2.477 -0.1151 -0.7505  0.7905
 8272TIP3   OH246306   3.102   0.590   1.611  0.2502  0.2211  0.4271
 8272TIP3    H146307   3.123   0.533   1.537  1.1584  0.1880  0.6996
 8272TIP3    H246308   3.009   0.608   1.602  0.2223 -0.2937 -0.3693
 8273TIP3   OH246309   2.924   1.503   2.051  0.1322  0.0007 -0.5558
 8273TIP3    H146310   2.910   1.540   1.964 -0.3041 -0.7445 -0.8156
 8273TIP3    H246311   2.980   1.427   2.036  1.5862  0.9292  0.0534
 8274TIP3   OH246312   6.308   1.064  14.639  0.5930 -0.9183 -0.1065
 8274TIP3    H146313   6.238   1.127  14.619  0.1915 -1.4802 -0.5030
 8274TIP3    H246314   6.353   1.051  14.556  0.2111 -1.7078 -0.1945
 8275TIP3   OH246315   2.196   3.582  15.193 -0.3602  0.0895 -0.1903
 8275TIP3    H146316   2.211   3.650  15.127 -1.3769  0.0299 -0.5126
 8275TIP3    H246317   2.102   3.586  15.210 -0.4838 -1.3435 -0.3468
 8276TIP3   OH246318   4.901   2.796  12.461 -0.2339  0.2036 -0.4502
 8276TIP3    H146319   4.876   2.772  12.551  0.9199 -0.7852 -0.3740
 8276TIP3    H246320   4.956   2.874  12.471 -2.3694  1.8358 -0.5539
 8277TIP3   OH246321   2.161   2.804   1.526 -0.4050 -0.3930  0.3607
 8277TIP3    H146322   2.228   2.860   1.566 -0.0679 -1.7561  1.8005
 8277TIP3    H246323   2.080   2.854   1.535  0.1104  0.5019  0.2318
 8278TIP3   OH246324   5.434   5.343   5.130  0.0534  0.2312 -0.5989
 8278TIP3    H146325   5.517   5.318   5.090  0.0215  0.8850 -1.0938
 8278TIP3    H246326   5.398   5.410   5.072  0.9319  2.6528  1.4653
 8279TIP3   OH246327   6.485   0.978  11.539  0.3958 -0.1202  0.4013
 8279TIP3    H146328   6.533   0.966  11.457 -2.3347 -0.7696 -1.2504
 8279TIP3    H246329   6.426   0.902  11.543 -2.5213  1.9701  0.6648
 8280TIP3   OH246330   2.557   3.594  13.628  0.2865 -0.1373 -0.7994
 8280TIP3    H146331   2.528   3.562  13.543  0.6697 -2.0152 -0.2568
 8280TIP3    H246332   2.632   3.650  13.609 -0.5184  0.6397 -1.7894
 8281TIP3   OH246333   6.563   3.120   6.279 -0.4745  0.7048 -1.0086
 8281TIP3    H146334   6.550   3.142   6.187 -0.1387 -0.3077 -1.3147
 8281TIP3    H246335   6.620   3.189   6.313 -0.6517  1.1198 -1.5331
 8282TIP3   OH246336   0.538   1.295  16.511  0.4973  0.0591 -0.0451
 8282TIP3    H146337   0.488   1.215  16.496 -1.4068  0.9062  1.4206
 8282TIP3    H246338   0.626   1.275  16.477 -0.8354 -1.3832 -3.0861
 8283TIP3   OH246339   0.621   2.260  14.731 -0.6757  0.0984 -0.0120
 8283TIP3    H146340   0.554   2.283  14.667 -0.4794 -0.4669 -0.4379
 8283TIP3    H246341   0.652   2.174  14.703  2.1242  1.4187 -1.4706
 8284TIP3   OH246342   1.353   6.013  12.980 -0.6815  0.4870 -0.8797
 8284TIP3    H146343   1.398   5.961  12.914 -0.4891 -0.8540  0.2488
 8284TIP3    H246344   1.321   5.949  13.044 -1.5067  1.6640 -0.0524
 8285TIP3   OH246345   3.368   1.196  15.993 -0.0465 -0.2558  0.4683
 8285TIP3    H146346   3.331   1.246  16.066 -0.0906  0.9992 -0.3828
 8285TIP3    H246347   3.462   1.211  15.999 -0.0380 -0.2646  0.3560
 8286TIP3   OH246348   4.807   4.681   3.471 -0.6478 -0.1843 -0.2699
 8286TIP3    H146349   4.889   4.656   3.515 -0.7140 -1.9761 -1.0655
 8286TIP3    H246350   4.836   4.731   3.394 -0.2234 -1.1786 -0.7881
 8287TIP3   OH246351   3.135   3.245  14.348  0.3008  0.3591  0.2627
 8287TIP3    H146352   3.042   3.268  14.352  0.2264  0.2758 -0.7521
 8287TIP3    H246353   3.160   3.263  14.258  1.0275 -0.5683  0.2711
 8288TIP3   OH246354   6.520   0.677   1.161  0.1350 -0.3554 -0.3619
 8288TIP3    H146355   6.576   0.721   1.225 -0.9331  0.8926 -0.2534
 8288TIP3    H246356   6.489   0.598   1.207  0.2193 -0.0142  0.2986
 8289TIP3   OH246357   2.814   2.638   4.326 -0.1026 -0.1887  0.2270
 8289TIP3    H146358   2.845   2.599   4.408  0.3623 -0.3944 -0.0447
 8289TIP3    H246359   2.795   2.563   4.270 -1.0245 -0.0654  0.3587
 8290TIP3   OH246360   2.757   5.944  13.372  0.0243  0.1982 -0.1800
 8290TIP3    H146361   2.766   5.968  13.280 -0.9281  0.8682 -0.1085
 8290TIP3    H246362   2.844   5.914  13.398  0.8162  1.8896 -0.7665
 8291TIP3   OH246363   0.783   4.815   5.847  0.2971 -0.5939 -0.5400
 8291TIP3    H146364   0.742   4.799   5.932  0.5639  2.1914  0.2208
 8291TIP3    H246365   0.877   4.821   5.867  0.1598  3.1213 -0.3126
 8292TIP3   OH246366   5.679   2.316  12.640 -0.0713 -0.2069 -0.1611
 8292TIP3    H146367   5.600   2.369  12.633 -0.3026 -0.4567  0.4390
 8292TIP3    H246368   5.675   2.278  12.728 -0.7876 -2.5669 -1.1209
 8293TIP3   OH246369   4.780   3.296  12.050 -0.3377  0.4644  0.2665
 8293TIP3    H146370   4.763   3.390  12.063 -1.3007  0.2348  0.7518
 8293TIP3    H246371   4.707   3.252  12.094  0.2816 -0.5274  0.3357
 8294TIP3   OH246372   0.769   2.028  16.683 -0.2413  0.4050  0.1509
 8294TIP3    H146373   0.708   2.062  16.749 -0.2215  0.8061 -0.0327
 8294TIP3    H246374   0.854   2.030  16.726 -0.4106 -0.5091  0.5375
 8295TIP3   OH246375   0.593   4.571  14.062  0.2888 -0.5453 -0.0131
 8295TIP3    H146376   0.656   4.643  14.065 -0.8588  0.5283 -0.7058
 8295TIP3    H246377   0.644   4.496  14.032  1.2882  0.2531 -0.3794
 8296TIP3   OH246378   5.546   0.442   3.808  0.4477  0.0969 -0.2693
 8296TIP3    H146379   5.491   0.519   3.795 -0.4904 -0.4524  0.2876
 8296TIP3    H246380   5.552   0.433   3.903  0.7425 -0.3845 -0.3302
 8297TIP3   OH246381   5.176   2.595   5.163 -0.0843  0.4026 -0.6733
 8297TIP3    H146382   5.267   2.566   5.152 -0.6507 -1.6616 -0.3364
 8297TIP3    H246383   5.165   2.664   5.098  1.5516  0.2778 -1.1339
 8298TIP3   OH246384   1.367   5.353  13.400  0.1798  0.7532  0.4711
 8298TIP3    H146385   1.462   5.355  13.391  0.0799  1.4029 -0.7210
 8298TIP3    H246386   1.336   5.320  13.315 -0.6177 -0.9434  1.3603
 8299TIP3   OH246387   0.623   4.833  13.480  0.0869  0.8043  0.2010
 8299TIP3    H146388   0.576   4.753  13.458  0.2127  0.8522 -0.2361
 8299TIP3    H246389   0.564   4.879  13.541 -0.2898  0.7133 -0.0928
 8300TIP3   OH246390   4.190   4.534   5.418 -0.1984  0.3697 -0.3850
 8300TIP3    H146391   4.097   4.512   5.415 -0.2440  0.3216  0.7640
 8300TIP3    H246392   4.192   4.629   5.418 -0.3128  0.3833  0.5684
 8301TIP3   OH246393   1.105   1.542   6.318  0.2495  0.0724 -0.2145
 8301TIP3    H146394   1.094   1.608   6.249 -0.3426 -0.2420 -0.4328
 8301TIP3    H246395   1.161   1.584   6.382 -2.1844  1.8381  0.9299
 8302TIP3   OH246396   3.312   6.642   1.482  0.2053  0.2313 -0.7387
 8302TIP3    H146397   3.266   6.638   1.566  1.6230  0.6960  0.0906
 8302TIP3    H246398   3.354   6.728   1.482  2.8705 -0.9955 -0.4589
 8303TIP3   OH246399   3.774   4.433   4.489  0.8218  0.4750 -0.3739
 8303TIP3    H146400   3.734   4.482   4.562  0.8770 -1.5554  1.0966
 8303TIP3    H246401   3.868   4.432   4.510  0.6415 -1.5977  0.5231
 8304TIP3   OH246402   1.284   3.815  16.498  0.0750  0.4103 -0.0941
 8304TIP3    H146403   1.366   3.843  16.459  0.4798 -1.5250 -0.7515
 8304TIP3    H246404   1.292   3.839  16.591  1.0733  0.8739 -0.2908
 8305TIP3   OH246405   2.034   6.652  14.110  0.2819  0.0297  0.1610
 8305TIP3    H146406   2.037   6.647  14.014 -1.3836 -1.4382  0.1357
 8305TIP3    H246407   2.071   6.738  14.130  0.0865  0.6512 -1.8419
 8306TIP3   OH246408   2.258   1.285   1.956  0.3296 -0.4982 -0.5863
 8306TIP3    H146409   2.329   1.261   1.896  0.7667 -1.5423  0.3157
 8306TIP3    H246410   2.263   1.380   1.964  1.3288 -0.5189 -0.8962
 8307TIP3   OH246411   2.443   0.508   0.784  0.0236  0.3341  0.3222
 8307TIP3    H146412   2.399   0.432   0.822 -1.5829  1.1063  0.1088
 8307TIP3    H246413   2.452   0.486   0.691  0.0366  0.1889  0.3579
 8308TIP3   OH246414   3.242   5.994  13.761 -0.2931  0.5500 -0.0735
 8308TIP3    H146415   3.276   5.971  13.848 -1.4526 -0.1430  0.2130
 8308TIP3    H246416   3.167   5.935  13.748 -0.6380  1.2097 -1.2035
 8309TIP3   OH246417   0.443   5.827   0.848  0.2773 -0.0868 -0.5183
 8309TIP3    H146418   0.421   5.917   0.873  0.4703  0.1481 -1.1698
 8309TIP3    H246419   0.366   5.775   0.874  0.7574  0.0074  1.2200
 8310TIP3   OH246420   3.224   3.836   1.830  0.2355 -0.4289 -0.8459
 8310TIP3    H146421   3.163   3.815   1.759  0.0349 -0.8148 -0.5618
 8310TIP3    H246422   3.307   3.797   1.803  0.7506  1.2817 -1.9027
 8311TIP3   OH246423   5.364   1.032   5.950  0.2624  0.4802  0.6927
 8311TIP3    H146424   5.336   1.031   6.041 -3.7338  0.6081 -0.3722
 8311TIP3    H246425   5.350   0.943   5.919  0.6014  0.6740 -0.0470
 8312TIP3   OH246426   3.320   1.043  12.804  0.0795 -0.1374 -0.0662
 8312TIP3    H146427   3.256   1.095  12.756  0.2883  0.3917  0.2256
 8312TIP3    H246428   3.311   0.955  12.768 -1.8866 -0.4333  0.9866
 8313TIP3   OH246429   5.496   5.743   0.824  0.6386 -0.0609 -0.3719
 8313TIP3    H146430   5.497   5.685   0.748 -0.8772 -1.8594  0.8803
 8313TIP3    H246431   5.584   5.737   0.860  0.5297 -1.6364 -0.2856
 8314TIP3   OH246432   0.949   0.173  15.723 -0.4894 -0.6261 -0.5122
 8314TIP3    H146433   0.928   0.190  15.815  3.1611  0.8938  0.2145
 8314TIP3    H246434   1.038   0.137  15.725 -0.3104 -0.5691 -3.4403
 8315TIP3   OH246435   2.698   5.773   1.033 -0.7811  0.0274  0.6238
 8315TIP3    H146436   2.778   5.824   1.020 -1.8691  0.9525 -4.3667
 8315TIP3    H246437   2.710   5.695   0.979 -2.3731 -1.0649  1.7475
 8316TIP3   OH246438   1.828   5.584  10.662  0.4589 -0.2068  0.2340
 8316TIP3    H146439   1.912   5.611  10.699  0.5511  0.6931 -0.5949
 8316TIP3    H246440   1.849   5.511  10.605  0.9115  0.8550 -1.0136
 8317TIP3   OH246441   1.523   0.438   3.595 -0.5271 -0.0769 -0.0035
 8317TIP3    H146442   1.467   0.492   3.540 -0.3916 -0.8819 -0.9743
 8317TIP3    H246443   1.486   0.350   3.588 -0.3335 -0.2466  0.9751
 8318TIP3   OH246444   1.711   2.318  13.588 -0.4675  0.1128 -0.2022
 8318TIP3    H146445   1.788   2.301  13.535  1.0692  4.0887  0.4663
 8318TIP3    H246446   1.743   2.367  13.664 -3.4867  0.9852  0.6818
 8319TIP3   OH246447   3.977   6.806   3.760 -0.2181 -0.3987  0.0221
 8319TIP3    H146448   4.046   6.757   3.716 -0.6551 -1.2248  0.2424
 8319TIP3    H246449   3.972   6.889   3.712  0.7530 -0.4271 -0.1394
 8320TIP3   OH246450   0.219   3.091   4.852  0.0816 -0.0210  0.1206
 8320TIP3    H146451   0.143   3.100   4.794  0.4382 -0.8393 -0.4875
 8320TIP3    H246452   0.269   3.172   4.838 -0.1374  0.0501 -0.2698
 8321TIP3   OH246453   4.297   2.617   4.815 -0.7209  0.2724  0.0164
 8321TIP3    H146454   4.253   2.696   4.784  0.1670 -0.5044 -3.6525
 8321TIP3    H246455   4.388   2.643   4.828 -0.5492  0.0026 -0.6208
 8322TIP3   OH246456   1.790   0.166   1.374  0.0199 -0.0065 -0.4762
 8322TIP3    H146457   1.712   0.160   1.428 -0.2828 -2.7532 -1.0647
 8322TIP3    H246458   1.859   0.125   1.427  0.5444  0.4102 -0.8211
 8323TIP3   OH246459   6.694   6.060   3.046 -0.5081  0.0862  0.0977
 8323TIP3    H146460   6.737   6.138   3.010 -2.3296 -0.2969 -3.3525
 8323TIP3    H246461   6.763   5.994   3.050 -0.1592  0.0780 -3.2894
 8324TIP3   OH246462   3.538   6.489   1.559 -0.0588 -0.2016  0.1646
 8324TIP3    H146463   3.531   6.449   1.472  0.1109 -0.7960  0.4162
 8324TIP3    H246464   3.501   6.576   1.548  3.1381  1.1396 -1.4084
 8325TIP3   OH246465   6.360   2.493  12.294  0.0680 -0.5729  0.4755
 8325TIP3    H146466   6.453   2.504  12.310 -0.3319  2.0030  1.5964
 8325TIP3    H246467   6.331   2.430  12.360  1.2749 -2.9356 -1.1402
 8326TIP3   OH246468   5.666   2.746  14.417  0.8319  1.1165  0.1417
 8326TIP3    H146469   5.600   2.776  14.478 -1.1256  2.1427 -2.3024
 8326TIP3    H246470   5.625   2.754  14.331  3.6803  0.5191 -1.4172
 8327TIP3   OH246471   1.185   6.060   2.204 -0.1268 -0.0952 -0.2080
 8327TIP3    H146472   1.178   6.136   2.146  0.8621  1.4872  1.6441
 8327TIP3    H246473   1.104   6.061   2.254  0.6525  0.8656  1.0775
 8328TIP3   OH246474   6.484   3.015  16.553 -0.4637 -0.0908 -0.5332
 8328TIP3    H146475   6.493   2.952  16.482  0.7664 -0.8632  0.2785
 8328TIP3    H246476   6.466   2.962  16.631  1.6761  0.4095  0.3696
 8329TIP3   OH246477   1.375   5.962  15.427  0.0260 -0.2943  0.5494
 8329TIP3    H146478   1.387   6.023  15.354  0.5643 -3.1216 -1.9248
 8329TIP3    H246479   1.281   5.967  15.447 -0.5673 -0.8854 -1.7992
 8330TIP3   OH246480   6.296   2.131   4.111 -0.3250  0.2803  0.6500
 8330TIP3    H146481   6.339   2.077   4.044 -0.3345 -0.0311  0.8976
 8330TIP3    H246482   6.281   2.215   4.067  0.4055  0.3483  0.5115
 8331TIP3   OH246483   5.920   2.258  11.152  0.4450  0.3031 -0.4381
 8331TIP3    H146484   5.868   2.196  11.100 -0.8259 -0.6710  1.8198
 8331TIP3    H246485   6.010   2.226  11.147 -0.1357 -1.5733  0.3572
 8332TIP3   OH246486   5.820   4.097   4.691  0.1443 -0.2792  0.0214
 8332TIP3    H146487   5.740   4.150   4.690  0.8816  0.9735  1.6913
 8332TIP3    H246488   5.870   4.128   4.616  1.5058  3.1231  2.0907
 8333TIP3   OH246489   1.681   4.649   3.321  0.4111  0.6177 -0.3429
 8333TIP3    H146490   1.666   4.556   3.337 -2.6028  1.1134  0.3578
 8333TIP3    H246491   1.679   4.658   3.226 -0.9272  0.1525 -0.3740
 8334TIP3   OH246492   2.643   5.677  14.613 -0.1899 -0.5038  0.3190
 8334TIP3    H146493   2.730   5.648  14.640 -0.4677 -2.4662 -0.7438
 8334TIP3    H246494   2.598   5.697  14.696  0.8009 -0.8700  0.9678
 8335TIP3   OH246495   0.016   1.457   3.711 -0.0400 -0.3224 -0.4432
 8335TIP3    H146496  -0.022   1.436   3.626 -0.1896 -0.6318 -0.3009
 8335TIP3    H246497  -0.021   1.391   3.771  1.2264 -1.0379 -0.4243
 8336TIP3   OH246498   1.355   1.408  11.613  0.0766 -0.2063 -0.6177
 8336TIP3    H146499   1.437   1.434  11.656 -0.7273  1.1440  0.1905
 8336TIP3    H246500   1.381   1.341  11.550  1.6761 -0.4206  0.2115
 8337TIP3   OH246501   2.458   4.781  13.070  0.0726 -0.0391  0.1078
 8337TIP3    H146502   2.365   4.799  13.083 -0.2425 -1.5259  0.0868
 8337TIP3    H246503   2.471   4.785  12.975  0.0862  0.3915  0.1263
 8338TIP3   OH246504   4.479   1.959  12.513  0.6208  0.1915  0.0827
 8338TIP3    H146505   4.525   1.996  12.588  0.9735  1.9345 -0.9332
 8338TIP3    H246506   4.528   1.880  12.491  0.2881 -0.5619  1.8823
 8339TIP3   OH246507   2.509   6.442   3.620 -0.3643 -0.0838  0.0992
 8339TIP3    H146508   2.477   6.390   3.694 -1.6237 -0.2831 -0.5630
 8339TIP3    H246509   2.554   6.380   3.564 -1.2964 -0.3602 -0.3628
 8340TIP3   OH246510   6.279   3.945  10.534 -0.1734  0.5967  0.2445
 8340TIP3    H146511   6.270   4.038  10.511 -0.4859  0.4729 -0.1544
 8340TIP3    H246512   6.373   3.932  10.546 -0.2833  1.4451  2.3766
 8341TIP3   OH246513   3.965   6.019  16.430 -0.1402 -0.9872  0.0427
 8341TIP3    H146514   3.953   6.076  16.354 -0.9083 -0.1315  0.7876
 8341TIP3    H246515   4.036   5.960  16.404 -0.2190 -0.5518 -1.2400
 8342TIP3   OH246516   1.812   0.742  15.470  0.0768 -0.0216  0.5431
 8342TIP3    H146517   1.733   0.704  15.509  0.8672 -1.2382  1.0083
 8342TIP3    H246518   1.787   0.760  15.379 -0.7112 -0.4650  0.6596
 8343TIP3   OH246519   2.333   4.759   2.301  0.8059 -0.0405  0.1553
 8343TIP3    H146520   2.356   4.838   2.351  0.4427  0.0736  0.1420
 8343TIP3    H246521   2.255   4.784   2.251  0.4291 -0.5441  0.4882
 8344TIP3   OH246522   6.340   0.729  12.110  0.1806 -0.5472 -0.2119
 8344TIP3    H146523   6.397   0.655  12.087 -0.9183 -1.2636 -0.7024
 8344TIP3    H246524   6.377   0.763  12.192  2.1071 -0.1369 -1.1794
 8345TIP3   OH246525   1.494   4.982   9.805 -1.1687  0.5295  0.0856
 8345TIP3    H146526   1.554   4.915   9.838  1.0879  3.0894  1.6346
 8345TIP3    H246527   1.507   4.980   9.710 -1.3534 -1.3261  0.0599
 8346TIP3   OH246528   2.373   0.290   0.928 -0.2199 -0.0003 -0.4138
 8346TIP3    H146529   2.395   0.239   1.006  0.6512  1.3304  0.2604
 8346TIP3    H246530   2.282   0.316   0.941  0.8993  3.4366  2.1910
 8347TIP3   OH246531   4.888   1.540   0.199  0.0054 -0.1961  0.2860
 8347TIP3    H146532   4.871   1.617   0.253  0.0950  0.7303 -0.9638
 8347TIP3    H246533   4.962   1.565   0.144  1.1590 -1.8038  1.0425
 8348TIP3   OH246534   0.281   1.995  11.076 -0.2992 -0.3848  0.4045
 8348TIP3    H146535   0.220   1.989  11.003  2.3169 -2.3915 -1.8270
 8348TIP3    H246536   0.345   2.060  11.048  0.7258 -1.1472  0.9051
 8349TIP3   OH246537   1.473   1.652   2.054  0.4910  0.1301  0.5447
 8349TIP3    H146538   1.462   1.702   1.973 -1.1439 -0.2698  0.4705
 8349TIP3    H246539   1.449   1.713   2.123  0.8307  0.1504  0.6454
 8350TIP3   OH246540   0.874   6.821   0.438 -0.3453 -0.2033  0.0822
 8350TIP3    H146541   0.789   6.815   0.394  0.7580 -0.4841 -2.1580
 8350TIP3    H246542   0.868   6.902   0.489 -2.2902 -0.7534  0.8455
 8351TIP3   OH246543   6.413   4.154  12.956 -0.3336  0.5002  0.0271
 8351TIP3    H146544   6.318   4.155  12.969 -0.3816 -0.3604 -0.2110
 8351TIP3    H246545   6.441   4.241  12.982 -1.2996  1.0481 -0.6944
 8352TIP3   OH246546   1.193   4.449   5.488  0.3600  0.0803  0.3721
 8352TIP3    H146547   1.138   4.391   5.540 -1.3716  0.4043 -1.0180
 8352TIP3    H246548   1.216   4.520   5.548  0.4817 -0.7820  1.3860
 8353TIP3   OH246549   1.478   2.473  12.799  0.0767 -0.1075  0.3179
 8353TIP3    H146550   1.392   2.455  12.761 -0.0380 -1.6115  1.1877
 8353TIP3    H246551   1.474   2.566  12.824 -0.8293  0.1747 -0.7766
 8354TIP3   OH246552   2.775   1.511  16.360 -0.1864  0.0323 -0.5908
 8354TIP3    H146553   2.711   1.466  16.414  1.9740 -0.5614  1.6790
 8354TIP3    H246554   2.723   1.561  16.297 -2.8252 -0.3404  1.1365
 8355TIP3   OH246555   3.524   2.741   0.727 -0.0220  0.1395 -0.1814
 8355TIP3    H146556   3.547   2.695   0.808  1.7176  0.2447 -0.5697
 8355TIP3    H246557   3.458   2.686   0.686 -1.4404  0.4143  1.5985
 8356TIP3   OH246558   2.497   1.098  14.231  0.0369  0.1510  0.5034
 8356TIP3    H146559   2.500   1.181  14.277  0.3692  0.0331  0.6991
 8356TIP3    H246560   2.587   1.067  14.231 -0.0888 -0.2265  0.4663
 8357TIP3   OH246561   6.656   1.280   0.273  0.0479  0.7094  0.3861
 8357TIP3    H146562   6.613   1.318   0.197 -0.3624 -0.3974  0.0476
 8357TIP3    H246563   6.640   1.343   0.343 -0.4556  1.2423 -0.1968
 8358TIP3   OH246564   4.593   6.122   4.647 -0.0198 -0.1859  0.5456
 8358TIP3    H146565   4.578   6.042   4.596  0.0141 -0.0660  0.3463
 8358TIP3    H246566   4.662   6.099   4.708  0.1991 -0.2210  0.2865
 8359TIP3   OH246567   0.077   4.123  16.339  0.1931 -0.2461 -0.6384
 8359TIP3    H146568   0.022   4.100  16.414 -0.0516  0.4548 -0.5957
 8359TIP3    H246569   0.154   4.165  16.377 -0.5398  1.3276 -0.8234
 8360TIP3   OH246570   6.060   3.860  14.684  0.0777  0.1577  0.3510
 8360TIP3    H146571   6.057   3.819  14.771 -0.9386 -1.6478 -0.4712
 8360TIP3    H246572   6.014   3.943  14.694  1.0585  0.5646  1.7974
 8361TIP3   OH246573   1.088   2.191   9.711 -0.7335 -0.3789 -0.3535
 8361TIP3    H146574   1.152   2.137   9.665 -0.2347  0.4625 -0.6642
 8361TIP3    H246575   1.041   2.129   9.768 -0.0572 -1.1051 -0.5682
 8362TIP3   OH246576   5.392   4.128  14.123  0.2395  0.5752 -0.4470
 8362TIP3    H146577   5.381   4.113  14.029 -0.6903 -0.8767 -0.1272
 8362TIP3    H246578   5.452   4.060  14.151  0.7182  1.1636 -0.0124
 8363TIP3   OH246579   2.066   3.416  16.469  0.4853 -0.3027 -0.5229
 8363TIP3    H146580   2.098   3.469  16.396  2.6113  1.6179  1.6264
 8363TIP3    H246581   1.988   3.462  16.500  1.2443  0.5539  0.1644
 8364TIP3   OH246582   0.164   0.787  16.631 -0.2938 -0.0076 -0.4605
 8364TIP3    H146583   0.167   0.864  16.688  0.4442  0.5011 -1.1848
 8364TIP3    H246584   0.164   0.713  16.692 -0.4153  0.5428  0.2237
 8365TIP3   OH246585   4.010   6.717  15.503  0.4861  0.0889  0.0448
 8365TIP3    H146586   4.095   6.712  15.459  0.0246  1.0981 -1.0181
 8365TIP3    H246587   3.996   6.811  15.516 -0.4323 -0.0722  0.2579
 8366TIP3   OH246588   5.663   5.030  12.028 -0.1917  0.7530  0.3689
 8366TIP3    H146589   5.644   4.959  11.965  1.6104  0.1135  0.4924
 8366TIP3    H246590   5.579   5.047  12.071 -0.9428 -0.4246 -0.5726
 8367TIP3   OH246591   4.572   1.133   3.530 -0.7425  0.5559  0.1093
 8367TIP3    H146592   4.533   1.079   3.599  0.3848  0.5117  0.7488
 8367TIP3    H246593   4.516   1.210   3.525 -0.7328  0.6649  1.2507
 8368TIP3   OH246594   6.819   5.659   3.835  0.2297 -0.1859  0.3973
 8368TIP3    H146595   6.761   5.597   3.880  2.9892 -2.5962  0.9344
 8368TIP3    H246596   6.830   5.622   3.747  0.4232  0.6259  0.0690
 8369TIP3   OH246597   5.662   4.373   4.186  0.5273 -0.2629 -0.2518
 8369TIP3    H146598   5.628   4.317   4.255  0.0556 -1.1169 -1.1436
 8369TIP3    H246599   5.707   4.444   4.232 -4.0346  2.0921  1.1815
 8370TIP3   OH246600   0.691   6.804  16.629 -0.4198  0.6652  0.0741
 8370TIP3    H146601   0.678   6.803  16.724  1.6477 -2.8654  0.4770
 8370TIP3    H246602   0.705   6.713  16.605 -0.9296  1.4057 -3.7085
 8371TIP3   OH246603   6.566   2.557   3.542  0.1870  0.3450 -0.0073
 8371TIP3    H146604   6.526   2.470   3.533 -0.2654  0.6406 -1.0946
 8371TIP3    H246605   6.660   2.541   3.543  0.1305 -0.3884  2.7831
 8372TIP3   OH246606   4.011   4.519   1.731  0.6137  0.3320  0.1355
 8372TIP3    H146607   4.054   4.604   1.740 -0.7152  1.2392 -1.5877
 8372TIP3    H246608   3.962   4.509   1.813  0.0084  1.7048 -0.0227
 8373TIP3   OH246609   6.209   2.769   4.415 -0.0872  0.7523  0.5254
 8373TIP3    H146610   6.163   2.793   4.335  0.3292  1.9573  0.6302
 8373TIP3    H246611   6.144   2.723   4.468 -0.2659 -0.4234 -0.6478
 8374TIP3   OH246612   5.933   0.833  12.077  0.7902 -0.2235 -0.0306
 8374TIP3    H146613   5.941   0.926  12.098 -0.1751 -0.0907 -0.2019
 8374TIP3    H246614   5.993   0.789  12.138  1.0818  0.4920  0.2037
 8375TIP3   OH246615   4.283   4.333   2.384 -0.1364  0.1676 -0.3176
 8375TIP3    H146616   4.305   4.273   2.456 -1.2072 -0.3483 -0.3845
 8375TIP3    H246617   4.273   4.418   2.426  1.2207  0.2868 -0.1894
 8376TIP3   OH246618   5.188   2.022   5.386 -0.2203 -0.4318 -0.1170
 8376TIP3    H146619   5.124   2.089   5.410 -0.2684 -0.1312 -1.0297
 8376TIP3    H246620   5.156   1.988   5.302  1.5032  0.6781 -1.3097
 8377TIP3   OH246621   0.449   2.726   5.169 -0.5695  0.8301 -0.2246
 8377TIP3    H146622   0.410   2.810   5.142 -0.4430  0.9252 -0.1152
 8377TIP3    H246623   0.499   2.748   5.247  1.0724  1.0590 -1.2927
 8378TIP3   OH246624   1.240   5.680  16.127  0.0968 -0.0948 -0.0124
 8378TIP3    H146625   1.162   5.683  16.072  0.2371 -3.2917 -0.6103
 8378TIP3    H246626   1.208   5.651  16.212  0.6011 -1.9587 -0.4074
 8379TIP3   OH246627   6.747   2.174  15.522  0.0679 -0.2154  0.4709
 8379TIP3    H146628   6.655   2.153  15.542 -0.5044 -0.4040 -2.0833
 8379TIP3    H246629   6.744   2.264  15.489  0.7800 -0.3185  0.1209
 8380TIP3   OH246630   0.735   1.101   0.955 -0.8681 -0.0209 -0.5250
 8380TIP3    H146631   0.650   1.067   0.928 -1.4616 -0.9953  2.1960
 8380TIP3    H246632   0.788   1.022   0.970 -0.0877  0.5170 -0.4061
 8381TIP3   OH246633   4.869   2.428  11.697 -0.0596 -0.2540 -0.0448
 8381TIP3    H146634   4.826   2.384  11.624 -2.5236  0.1783  1.0511
 8381TIP3    H246635   4.818   2.508  11.711  2.3814  1.3947  0.0518
 8382TIP3   OH246636   4.090   2.150   6.739 -0.3554  0.3193 -0.1449
 8382TIP3    H146637   4.075   2.180   6.649  0.6701 -0.8062 -0.7298
 8382TIP3    H246638   4.009   2.108   6.765 -0.7221  0.8173 -0.4764
 8383TIP3   OH246639   6.022   6.805  12.706  0.5186 -0.4355 -0.5344
 8383TIP3    H146640   6.079   6.728  12.717 -0.7479 -1.5107 -1.2627
 8383TIP3    H246641   6.006   6.810  12.612 -0.5450 -0.1194 -0.3475
 8384TIP3   OH246642   4.081   0.354   0.130  0.6800 -0.4126 -0.2853
 8384TIP3    H146643   4.013   0.368   0.196  1.1429  2.4525 -0.2832
 8384TIP3    H246644   4.060   0.270   0.091 -1.6002 -0.6024  1.1931
 8385TIP3   OH246645   6.699   6.578  11.885  0.5585  0.0964  0.0463
 8385TIP3    H146646   6.711   6.635  11.960  0.4541 -2.0489  1.7884
 8385TIP3    H246647   6.707   6.636  11.809 -0.5039  2.5682  1.6826
 8386TIP3   OH246648   6.836   1.003  11.818 -0.3392  0.2494 -0.0119
 8386TIP3    H146649   6.888   0.996  11.737 -2.2225 -2.1224 -1.1411
 8386TIP3    H246650   6.796   1.089  11.813 -0.9246 -0.0812 -1.9902
 8387TIP3   OH246651   4.176   6.024   1.903 -0.0688 -0.4240 -0.2400
 8387TIP3    H146652   4.132   6.040   1.987 -1.4802 -2.0144 -0.6304
 8387TIP3    H246653   4.266   6.001   1.928  0.9351  3.5457  0.5354
 8388TIP3   OH246654   0.806   0.573   2.101 -0.3427 -0.0845  0.2886
 8388TIP3    H146655   0.870   0.577   2.029  0.1237 -0.5331  0.6683
 8388TIP3    H246656   0.721   0.566   2.057 -0.3007  2.1841 -0.2453
 8389TIP3   OH246657   1.276   0.184   1.444  0.3641 -0.2413 -0.6768
 8389TIP3    H146658   1.285   0.277   1.423  2.9800 -0.5515 -1.3091
 8389TIP3    H246659   1.226   0.147   1.370  0.3154  0.4539 -0.9965
 8390TIP3   OH246660   1.025   0.923   5.087  0.0226  0.3459 -0.0803
 8390TIP3    H146661   1.082   0.973   5.145  0.7753 -0.9552  0.3460
 8390TIP3    H246662   0.963   0.987   5.052  1.2569  1.6415  0.0474
 8391TIP3   OH246663   2.190   1.224  11.619  0.2826  0.3853 -0.4489
 8391TIP3    H146664   2.267   1.186  11.662  0.0963  2.1482  1.6135
 8391TIP3    H246665   2.223   1.304  11.579 -0.4395  1.1236  0.4003
 8392TIP3   OH246666   2.849   5.842   2.855 -0.1746 -0.1910 -0.4723
 8392TIP3    H146667   2.825   5.814   2.943 -0.0496  1.0953 -0.0032
 8392TIP3    H246668   2.945   5.838   2.854 -0.1629  0.0845 -0.4498
 8393TIP3   OH246669   0.367   1.692   5.566  0.1078 -0.5277  0.5196
 8393TIP3    H146670   0.405   1.760   5.620 -0.0273 -0.8318  1.0009
 8393TIP3    H246671   0.401   1.610   5.602 -0.6174 -0.7764  0.6594
 8394TIP3   OH246672   2.934   5.865   3.593  0.2887  0.0740  0.1638
 8394TIP3    H146673   2.998   5.813   3.642 -0.2653  0.4151  1.2906
 8394TIP3    H246674   2.916   5.814   3.514  0.9409 -0.6679  0.4859
 8395TIP3   OH246675   0.129   6.107   1.982  0.4779 -0.2336  0.7245
 8395TIP3    H146676   0.223   6.125   1.977  0.3474  0.1665 -0.9393
 8395TIP3    H246677   0.094   6.143   1.901 -1.4359  1.3972  2.1853
 8396TIP3   OH246678   5.252   0.787  16.835 -0.5720  0.0532  0.0370
 8396TIP3    H146679   5.311   0.766  16.907 -0.1532 -0.9819 -0.5855
 8396TIP3    H246680   5.165   0.764  16.868 -0.5244  0.7215  0.6333
 8397TIP3   OH246681   5.332   1.743  12.201 -0.6811  0.6056  0.7976
 8397TIP3    H146682   5.322   1.652  12.173  0.6687  0.2447  1.4095
 8397TIP3    H246683   5.265   1.791  12.152  0.8214 -0.1531 -2.2293
 8398TIP3   OH246684   3.473   5.651  12.059 -0.2254  0.4947  0.3479
 8398TIP3    H146685   3.445   5.740  12.084  0.5081  1.1129 -0.9594
 8398TIP3    H246686   3.522   5.620  12.135  0.8425  1.8254  0.2513
 8399TIP3   OH246687   4.999   0.862   2.913 -0.6662  0.1790  0.4295
 8399TIP3    H146688   5.032   0.942   2.870 -2.2396  0.1979 -0.8340
 8399TIP3    H246689   5.040   0.863   2.999  0.2754  1.7383  0.0150
 8400TIP3   OH246690   4.080   2.496  15.573  0.2162 -0.3559 -0.0194
 8400TIP3    H146691   4.080   2.548  15.653 -1.1741  0.3572 -0.4483
 8400TIP3    H246692   4.040   2.554  15.507 -1.4221 -1.9508 -0.5013
 8401TIP3   OH246693   1.429   5.245   2.987 -0.4524  0.3193  0.8227
 8401TIP3    H146694   1.468   5.252   2.900 -1.9835 -3.0675 -0.3141
 8401TIP3    H246695   1.346   5.291   2.979 -0.9099 -0.5685  0.1905
 8402TIP3   OH246696   6.704   0.704  11.472  0.1947 -0.3413  0.4828
 8402TIP3    H146697   6.734   0.716  11.562  2.7906 -0.4002 -0.2879
 8402TIP3    H246698   6.710   0.792  11.434  0.2585 -0.5221  0.0709
 8403TIP3   OH246699   2.006   2.705  10.752  0.0487  0.4719 -0.5107
 8403TIP3    H146700   1.997   2.610  10.740  0.5519  0.0416  1.9148
 8403TIP3    H246701   2.060   2.733  10.678  0.2808 -1.2149 -1.0425
 8404TIP3   OH246702   6.124   5.015  12.825  0.1415  0.4884  0.5748
 8404TIP3    H146703   6.058   5.073  12.862 -0.6109 -0.2416  0.4338
 8404TIP3    H246704   6.108   5.017  12.731  0.4165  0.4251  0.5254
 8405TIP3   OH246705   2.913   0.075  10.353  0.7298  0.5539  0.2588
 8405TIP3    H146706   2.826   0.058  10.318 -0.2533  1.3771  2.1614
 8405TIP3    H246707   2.944   0.153  10.305  0.0251  0.8068  0.2047
 8406TIP3   OH246708   5.305   5.553   4.747 -0.2334  0.2677  0.1645
 8406TIP3    H146709   5.383   5.501   4.729 -0.5069 -0.6488  1.5246
 8406TIP3    H246710   5.253   5.499   4.806  0.3978  2.8114  3.3487
 8407TIP3   OH246711   2.528   5.089   4.974 -0.2037 -0.2580  0.0624
 8407TIP3    H146712   2.486   5.139   5.044  0.2088 -0.6629  0.6084
 8407TIP3    H246713   2.619   5.082   5.001 -0.1605 -0.9055 -0.2328
 8408TIP3   OH246714   2.190   1.184  11.191  0.7862  0.1172 -0.1810
 8408TIP3    H146715   2.110   1.143  11.158  1.8876 -1.4672 -1.0106
 8408TIP3    H246716   2.240   1.113  11.230  0.3913  1.6098  3.4181
 8409TIP3   OH246717   2.945   2.948   2.896  0.0738 -0.6640  0.4610
 8409TIP3    H146718   2.983   2.864   2.868  0.8808 -0.1738  0.0507
 8409TIP3    H246719   2.908   2.985   2.816  0.3357 -0.3155  0.5004
 8410TIP3   OH246720   6.682   1.142  10.779  0.3909 -0.3984  0.4035
 8410TIP3    H146721   6.605   1.097  10.743  0.8372 -2.5387  2.0053
 8410TIP3    H246722   6.720   1.081  10.841  1.1253  2.1418  2.6508
 8411TIP3   OH246723   4.427   1.355  11.068 -0.4295  0.4472  0.6077
 8411TIP3    H146724   4.444   1.388  10.980 -1.4094  1.2037  0.6809
 8411TIP3    H246725   4.343   1.394  11.092 -0.5428 -0.3645  1.5796
 8412TIP3   OH246726   6.414   5.737  12.246 -0.8376  0.4280  0.1114
 8412TIP3    H146727   6.489   5.749  12.304 -0.9711  0.1843  0.3328
 8412TIP3    H246728   6.353   5.807  12.270  0.6617  2.7580 -2.2591
 8413TIP3   OH246729   1.632   4.572  15.699  0.0620 -0.1399  0.7805
 8413TIP3    H146730   1.665   4.520  15.772  1.0274 -0.4985  0.1057
 8413TIP3    H246731   1.561   4.520  15.663  1.4132 -1.3169 -0.2672
 8414TIP3   OH246732   5.748   1.742  15.991  0.0135  0.2581 -0.0853
 8414TIP3    H146733   5.669   1.795  15.991 -0.0285  0.2017  0.3581
 8414TIP3    H246734   5.751   1.703  16.079  1.2529  1.3388  0.3976
 8415TIP3   OH246735   2.050   4.150  10.699  0.4794 -0.0089  0.1549
 8415TIP3    H146736   2.026   4.231  10.653 -0.6872 -0.9508 -0.9574
 8415TIP3    H246737   1.966   4.109  10.720  0.9727  0.1878  2.8582
 8416TIP3   OH246738   4.537   3.597  15.451  0.3106 -0.5793 -0.0288
 8416TIP3    H146739   4.592   3.606  15.529 -1.4997 -0.7699  1.3195
 8416TIP3    H246740   4.498   3.683  15.439 -2.5313 -1.4681  1.7703
 8417TIP3   OH246741   1.683   5.798   4.098  0.2988 -0.5822  0.5602
 8417TIP3    H146742   1.732   5.880   4.089 -0.4424  0.2600  3.2708
 8417TIP3    H246743   1.687   5.758   4.011  3.2986  0.8111 -0.0663
 8418TIP3   OH246744   2.498   1.586   4.989 -0.3749  0.2042 -0.2403
 8418TIP3    H146745   2.565   1.615   4.928 -0.9068 -0.8915 -1.3876
 8418TIP3    H246746   2.545   1.535   5.055 -0.0725 -0.7114 -1.1380
 8419TIP3   OH246747   1.564   3.641  13.810  0.2788  0.2819  0.2757
 8419TIP3    H146748   1.562   3.545  13.818  1.1150  0.3790  2.3979
 8419TIP3    H246749   1.524   3.672  13.891  2.1827  1.7003  0.7282
 8420TIP3   OH246750   1.510   4.382  14.804 -0.0131 -0.0145 -0.0672
 8420TIP3    H146751   1.589   4.374  14.750  0.3064  0.5883  0.3045
 8420TIP3    H246752   1.537   4.356  14.891  0.0395  1.1296  0.2788
 8421TIP3   OH246753   1.514   4.739   2.567 -0.4449 -0.4224  0.6353
 8421TIP3    H146754   1.569   4.687   2.509 -0.7976 -1.8368  1.5090
 8421TIP3    H246755   1.445   4.773   2.510  1.8737  2.4051 -0.7311
 8422TIP3   OH246756   1.993   2.073  15.405 -0.1469 -0.3631 -0.6642
 8422TIP3    H146757   1.906   2.056  15.370 -0.0944 -2.1705 -0.0256
 8422TIP3    H246758   2.020   1.989  15.443  1.5441  0.3790 -0.1486
 8423TIP3   OH246759   5.974   2.337   6.280 -0.0391  0.4792  0.5089
 8423TIP3    H146760   6.000   2.304   6.194 -0.2424  1.1364  0.1906
 8423TIP3    H246761   5.961   2.431   6.267 -0.4594  0.5189  1.1634
 8424TIP3   OH246762   0.079   1.012  16.788  0.1142 -0.3496 -0.2147
 8424TIP3    H146763   0.142   1.080  16.765 -0.1312  0.5344  1.5824
 8424TIP3    H246764   0.002   1.060  16.819  0.2343 -1.4197  1.8516
 8425TIP3   OH246765   6.461   6.163   0.818  0.8293  1.0323 -0.1190
 8425TIP3    H146766   6.389   6.221   0.794 -0.4875 -1.0229 -1.4300
 8425TIP3    H246767   6.484   6.119   0.736  1.5755 -0.4983  0.8774
 8426TIP3   OH246768   4.974   3.608   5.112 -0.0901 -0.0576 -0.1130
 8426TIP3    H146769   5.005   3.519   5.095 -2.4537 -1.0486  0.3619
 8426TIP3    H246770   5.003   3.627   5.201 -0.8807 -1.0213  0.3777
 8427TIP3   OH246771   3.170   3.052   5.120  0.3589  0.5078 -0.0687
 8427TIP3    H146772   3.229   3.118   5.083  0.3553  0.6018  0.0906
 8427TIP3    H246773   3.083   3.091   5.114  0.3508  0.4977 -0.0169
 8428TIP3   OH246774   1.850   1.463  14.086 -0.5182  0.2912  0.4029
 8428TIP3    H146775   1.811   1.376  14.080 -0.3212  0.2328  0.0015
 8428TIP3    H246776   1.904   1.459  14.166 -0.0660 -0.1304  0.0805
 8429TIP3   OH246777   6.901   1.639  10.286  0.3055 -0.2078  0.1859
 8429TIP3    H146778   6.863   1.579  10.350  1.3698  0.8533  1.8870
 8429TIP3    H246779   6.940   1.581  10.220 -0.6899 -1.3365  0.5468
 8430TIP3   OH246780   4.068   4.012  12.951 -0.0686 -0.2992  0.0243
 8430TIP3    H146781   4.085   3.918  12.940  1.7710  0.0410 -0.3758
 8430TIP3    H246782   4.010   4.034  12.878 -1.5217 -1.3171  0.8023
 8431TIP3   OH246783   5.982   0.268   0.404 -0.6225  0.1141 -0.0365
 8431TIP3    H146784   6.030   0.251   0.323 -0.3261 -0.1007  0.1808
 8431TIP3    H246785   6.037   0.230   0.472 -1.4749 -0.8244  0.1466
 8432TIP3   OH246786   6.618   6.884  10.127  1.0016 -0.4033 -0.2161
 8432TIP3    H146787   6.637   6.977  10.141 -0.9112 -0.0096 -0.0311
 8432TIP3    H246788   6.703   6.846  10.105  1.8276  1.3788 -0.3090
 8433TIP3   OH246789   6.124   2.730   3.127  0.4850 -0.2592 -0.3932
 8433TIP3    H146790   6.134   2.660   3.191  1.2347  0.8383  0.7419
 8433TIP3    H246791   6.040   2.771   3.149 -0.6960 -1.6726 -2.0005
 8434TIP3   OH246792   1.298   2.519  11.658 -0.5012 -0.9205  0.2178
 8434TIP3    H146793   1.304   2.607  11.694  0.1375 -0.1492 -1.6778
 8434TIP3    H246794   1.339   2.463  11.725 -2.1174 -0.0200  2.0521
 8435TIP3   OH246795   5.851   6.685  12.043  0.4683 -0.0130  0.6958
 8435TIP3    H146796   5.779   6.661  11.984 -0.1069  1.1185  0.9099
 8435TIP3    H246797   5.920   6.719  11.985  0.3643  0.0055  0.5828
 8436TIP3   OH246798   3.829   1.835   4.771 -0.2557 -0.1736  0.0567
 8436TIP3    H146799   3.764   1.884   4.822 -0.0561  0.8189 -0.6174
 8436TIP3    H246800   3.830   1.878   4.686  1.2002 -0.2296  0.0158
 8437TIP3   OH246801   0.543   1.472  11.567  0.0545  0.2148 -0.1054
 8437TIP3    H146802   0.572   1.563  11.562  0.4173  0.2089  1.3468
 8437TIP3    H246803   0.453   1.478  11.600 -0.5016  0.0957 -1.5412
 8438TIP3   OH246804   2.232   5.385  10.405  0.1630  0.6372  0.5224
 8438TIP3    H146805   2.324   5.369  10.385  0.5535  0.6888  2.1950
 8438TIP3    H246806   2.185   5.348  10.330  1.4148 -1.6626  0.7812
 8439TIP3   OH246807   6.626   2.764   5.084 -0.5037 -0.1169 -0.2141
 8439TIP3    H146808   6.621   2.686   5.028 -0.9406 -0.5910  0.4699
 8439TIP3    H246809   6.558   2.751   5.150 -0.9037  1.0774 -0.3638
 8440TIP3   OH246810   6.826   0.914  15.262 -0.0878  0.1313  0.0916
 8440TIP3    H146811   6.814   0.937  15.354 -0.3428 -0.4444  0.2089
 8440TIP3    H246812   6.745   0.943  15.219  0.0341  0.4055  0.0441
 8441TIP3   OH246813   3.416   3.048   3.079 -0.0669 -0.3477 -0.1346
 8441TIP3    H146814   3.494   3.044   3.025 -0.8416 -0.5007 -1.2707
 8441TIP3    H246815   3.349   3.000   3.030 -1.2169  0.8306  0.2044
 8442TIP3   OH246816   5.210   2.509  12.346 -0.1185 -0.2782  0.2589
 8442TIP3    H146817   5.207   2.495  12.252 -1.4404  1.9417 -0.0915
 8442TIP3    H246818   5.131   2.465  12.379 -0.3493  0.0471  0.1462
 8443TIP3   OH246819   2.401   5.917   2.716  0.0872  0.4707  0.8048
 8443TIP3    H146820   2.346   5.991   2.744 -4.2723 -2.4743  1.0277
 8443TIP3    H246821   2.430   5.876   2.798  0.2540  0.4136  0.7185
 8444TIP3   OH246822   0.511   0.245   3.838  0.3536 -0.0329 -0.7636
 8444TIP3    H146823   0.417   0.233   3.828 -0.0311  1.0491  1.1064
 8444TIP3    H246824   0.534   0.313   3.775 -0.4627  0.8986 -0.0868
 8445TIP3   OH246825   5.393   6.420  14.884  0.3756 -0.3832 -0.1649
 8445TIP3    H146826   5.307   6.423  14.842  1.2234 -0.7564 -2.0298
 8445TIP3    H246827   5.387   6.483  14.956 -1.1133  0.3948 -0.9227
 8446TIP3   OH246828   1.248   6.217  13.554 -0.1633 -0.3669  0.3974
 8446TIP3    H146829   1.312   6.282  13.523  2.1291 -2.8295 -0.4376
 8446TIP3    H246830   1.188   6.205  13.479 -1.3453  1.5245  0.9734
 8447TIP3   OH246831   3.683   1.478  15.218  0.0761 -0.1824  0.3844
 8447TIP3    H146832   3.610   1.458  15.277  0.3361 -0.2459  0.6909
 8447TIP3    H246833   3.657   1.559  15.175 -1.0811 -1.2645 -1.0330
 8448TIP3   OH246834   0.814   3.671  13.848  0.5433 -0.3495 -0.1242
 8448TIP3    H146835   0.764   3.735  13.898 -1.0418 -1.7941  0.2282
 8448TIP3    H246836   0.904   3.681  13.879 -0.0645  0.1569  1.5752
 8449TIP3   OH246837   2.245   0.004  12.289 -0.2185 -0.0876 -0.3354
 8449TIP3    H146838   2.227   0.077  12.229 -0.9958 -0.2125 -0.2692
 8449TIP3    H246839   2.204  -0.072  12.247  1.2368 -0.6689 -0.7914
 8450TIP3   OH246840   4.944   5.362  11.327 -0.3193  0.0265 -0.5376
 8450TIP3    H146841   4.861   5.399  11.299  0.0371  2.4051  1.2450
 8450TIP3    H246842   4.924   5.312  11.406  0.1288  2.3502  1.1455
 8451TIP3   OH246843   5.146   5.690  12.678  0.0739  0.5894  0.0489
 8451TIP3    H146844   5.197   5.611  12.658  0.4179  0.5538  1.0183
 8451TIP3    H246845   5.167   5.751  12.607  1.2885  0.4869  0.2974
 8452TIP3   OH246846   1.914   1.916   5.311 -0.5098 -0.1069  0.1353
 8452TIP3    H146847   1.981   1.944   5.249 -1.8154  1.0997 -0.7919
 8452TIP3    H246848   1.902   1.991   5.369  0.9386 -1.3311  2.1406
 8453TIP3   OH246849   5.745   6.410  16.048 -0.7709  0.3669 -0.3450
 8453TIP3    H146850   5.824   6.427  16.099 -1.0749  2.1204 -0.3901
 8453TIP3    H246851   5.777   6.372  15.966  0.1703  2.1540 -0.8571
 8454TIP3   OH246852   4.959   1.916   4.962  0.0976  0.3211  0.3237
 8454TIP3    H146853   4.916   1.832   4.980  1.3703 -0.1161  1.4546
 8454TIP3    H246854   4.891   1.981   4.979 -1.0891 -0.4616 -1.1306
 8455TIP3   OH246855   5.726   0.658   0.462 -0.5050 -0.1387 -0.3454
 8455TIP3    H146856   5.800   0.615   0.505 -0.7534  0.1747  0.4220
 8455TIP3    H246857   5.749   0.750   0.461 -0.9314 -0.0246  0.0031
 8456TIP3   OH246858   3.366   1.686  11.613  0.4548 -0.5693 -0.0403
 8456TIP3    H146859   3.436   1.712  11.553 -0.7621  1.1624 -0.7975
 8456TIP3    H246860   3.312   1.625  11.564 -0.8283  1.2321 -0.9898
 8457TIP3   OH246861   2.982   2.655   3.584  0.9097 -0.2865  0.6849
 8457TIP3    H146862   2.949   2.621   3.667  2.8799  0.3448  1.8060
 8457TIP3    H246863   3.049   2.719   3.610  2.1521 -0.6572 -1.3848
 8458TIP3   OH246864   5.023   6.133   1.502  0.1845  0.2397 -0.2681
 8458TIP3    H146865   5.071   6.056   1.471 -1.4181 -0.6319 -0.7124
 8458TIP3    H246866   5.055   6.147   1.591 -2.2720 -3.4784  1.4418
 8459TIP3   OH246867   1.815   5.740   0.600  0.4022 -0.1519  0.2738
 8459TIP3    H146868   1.809   5.749   0.505 -1.0204  0.3606  0.3774
 8459TIP3    H246869   1.764   5.814   0.634 -0.1344 -1.0066  1.4064
 8460TIP3   OH246870   3.465   4.167   0.281 -0.9167  0.0204  0.0063
 8460TIP3    H146871   3.518   4.174   0.360  1.3207 -0.7692 -1.3402
 8460TIP3    H246872   3.462   4.073   0.263 -4.0327 -0.1230  0.7686
 8461TIP3   OH246873   3.889   1.541   1.458  0.3143  0.1884 -0.2112
 8461TIP3    H146874   3.800   1.504   1.456  0.3546  0.0754  0.0342
 8461TIP3    H246875   3.895   1.593   1.378 -0.1039  0.5039 -0.0426
 8462TIP3   OH246876   3.441   4.417  15.990  0.1386  0.3139 -0.1902
 8462TIP3    H146877   3.481   4.501  16.013  0.8256  0.1567 -0.7638
 8462TIP3    H246878   3.512   4.367  15.951  0.0637 -1.0314  1.3164
 8463TIP3   OH246879   5.679   5.091   2.915 -0.2078 -0.0183 -0.1399
 8463TIP3    H146880   5.730   5.165   2.882 -0.9052  0.3862 -0.3298
 8463TIP3    H246881   5.714   5.015   2.869  2.0911 -0.1959  1.7096
 8464TIP3   OH246882   6.158   2.270   1.777  0.1375  0.3746 -0.2948
 8464TIP3    H146883   6.139   2.200   1.841 -0.1555  1.2758  0.6317
 8464TIP3    H246884   6.195   2.224   1.702 -0.2033 -0.8009  0.2290
 8465TIP3   OH246885   0.321   4.449   0.878  0.1845  0.5508  0.0925
 8465TIP3    H146886   0.335   4.505   0.802 -3.0039  0.9264 -0.3333
 8465TIP3    H246887   0.329   4.360   0.844  1.5171  0.6888 -0.0239
 8466TIP3   OH246888   4.249   1.996   0.994  0.6839 -0.0300 -0.2555
 8466TIP3    H146889   4.259   1.923   1.055  1.8240 -0.0794 -0.4798
 8466TIP3    H246890   4.292   2.070   1.037 -0.5245  0.5424 -0.0018
 8467TIP3   OH246891   1.631   1.715   4.187  0.4897  0.3260 -0.1371
 8467TIP3    H146892   1.678   1.790   4.224 -0.7197  1.2890 -0.4985
 8467TIP3    H246893   1.547   1.715   4.233 -0.1052  0.1069 -1.2064
 8468TIP3   OH246894   0.622   0.009   3.964  0.5125 -0.0182 -0.2065
 8468TIP3    H146895   0.575   0.092   3.963 -0.9806 -0.8221 -1.4843
 8468TIP3    H246896   0.554  -0.057   3.954  1.5083 -1.5141  2.1596
 8469TIP3   OH246897   1.683   0.657   3.665 -0.2750 -0.2549  0.1184
 8469TIP3    H146898   1.764   0.615   3.695 -0.8627 -0.9554  0.7833
 8469TIP3    H246899   1.620   0.585   3.659 -0.9984  0.3625  0.1539
 8470TIP3   OH246900   6.186   3.162   6.306  0.0444 -0.3250  0.4498
 8470TIP3    H146901   6.229   3.102   6.366  1.4195  0.5590  0.3965
 8470TIP3    H246902   6.144   3.227   6.363 -1.9332 -1.5955  0.5274
 8471TIP3   OH246903   0.064   1.731  11.810  0.3086 -0.0884 -0.4101
 8471TIP3    H146904   0.090   1.808  11.759  1.2868 -0.0973  0.0506
 8471TIP3    H246905   0.114   1.659  11.772 -0.6538 -0.5263 -0.8833
 8472TIP3   OH246906   0.711   5.680  13.664  0.6924 -0.2098 -0.3319
 8472TIP3    H146907   0.710   5.744  13.736  0.0120 -1.2894  0.6666
 8472TIP3    H246908   0.803   5.658  13.653  0.7726 -0.3627  0.5467
 8473TIP3   OH246909   6.249   1.365  16.260  0.2480  0.1061  0.4229
 8473TIP3    H146910   6.213   1.282  16.229  1.8716 -0.1317 -0.9584
 8473TIP3    H246911   6.231   1.365  16.354 -0.8629 -1.2334  0.2445
 8474TIP3   OH246912   0.150   6.515  14.836  0.0101  0.0200  0.3791
 8474TIP3    H146913   0.139   6.491  14.928 -0.2963  0.3595  0.4360
 8474TIP3    H246914   0.226   6.466  14.807 -0.7514 -1.2388  0.4157
 8475TIP3   OH246915   3.931   6.841   1.317 -0.8622  0.3946 -0.0940
 8475TIP3    H146916   3.946   6.935   1.306  0.6212  0.0301 -1.6119
 8475TIP3    H246917   3.939   6.826   1.411  0.4681  1.5581  0.0083
 8476TIP3   OH246918   4.539   0.320  14.841  0.2073  0.7599 -0.6180
 8476TIP3    H146919   4.566   0.387  14.904 -0.3616  1.4944 -1.1256
 8476TIP3    H246920   4.605   0.324  14.772  1.2777 -0.5978  0.2740
 8477TIP3   OH246921   1.369   2.231  15.314 -0.1070 -0.6915  0.6711
 8477TIP3    H146922   1.320   2.165  15.265 -0.0962 -0.0195 -0.2700
 8477TIP3    H246923   1.302   2.288  15.350 -0.0614 -0.3232  0.1806
 8478TIP3   OH246924   2.477   5.299   4.462 -0.2175 -0.4771  0.7395
 8478TIP3    H146925   2.471   5.218   4.513 -2.0170 -1.6941 -1.2549
 8478TIP3    H246926   2.415   5.287   4.390  1.0817  1.7817 -0.8848
 8479TIP3   OH246927   0.751   1.027   4.980 -0.4353  0.4137  0.0511
 8479TIP3    H146928   0.772   0.939   4.949  0.3953  0.4888  0.3700
 8479TIP3    H246929   0.656   1.034   4.972 -0.4194 -0.2087 -0.7607
 8480TIP3   OH246930   6.534   6.295   4.337 -0.2948 -0.0807  0.4441
 8480TIP3    H146931   6.549   6.249   4.255 -1.0724 -0.1011  0.3088
 8480TIP3    H246932   6.518   6.386   4.312  0.4174  0.1092  0.6504
 8481TIP3   OH246933   5.891   4.338  16.858 -0.1672  0.1264  0.1282
 8481TIP3    H146934   5.927   4.353  16.945 -1.6341 -1.3021  1.0431
 8481TIP3    H246935   5.796   4.329  16.872 -0.3940 -0.5799 -1.5370
 8482TIP3   OH246936   5.117   4.798   0.028  0.3213 -0.0672 -0.4080
 8482TIP3    H146937   5.205   4.773   0.055  0.2654  1.0181  0.9041
 8482TIP3    H246938   5.066   4.799   0.110 -1.0329 -1.1023 -1.1996
 8483TIP3   OH246939   5.894   2.636   5.778 -0.1031  0.1781 -0.2515
 8483TIP3    H146940   5.977   2.602   5.811  0.3396  0.0688 -1.4269
 8483TIP3    H246941   5.847   2.665   5.856  0.7967 -0.2882  0.4837
 8484TIP3   OH246942   2.496   5.667  11.421  0.6294  0.3088  0.0098
 8484TIP3    H146943   2.410   5.708  11.431  1.9863  3.1433  1.1096
 8484TIP3    H246944   2.503   5.606  11.495 -0.1466  0.5970  0.3306
 8485TIP3   OH246945   2.042   1.519   3.270 -0.1252 -0.0818  0.5419
 8485TIP3    H146946   2.122   1.571   3.277 -0.0148 -0.2445  0.4745
 8485TIP3    H246947   2.002   1.526   3.357 -0.8190  1.2537  0.1470
 8486TIP3   OH246948   1.249   3.851  13.705 -0.8255  0.0721 -0.3703
 8486TIP3    H146949   1.271   3.819  13.792  2.9510 -0.4488 -1.3193
 8486TIP3    H246950   1.199   3.780  13.665 -0.3863 -0.7794  0.5514
 8487TIP3   OH246951   6.643   1.416  14.087 -1.0981 -0.1892 -0.0531
 8487TIP3    H146952   6.653   1.510  14.102 -1.9384  0.1660 -1.5311
 8487TIP3    H246953   6.731   1.381  14.097 -0.4279  1.0501 -1.2923
 8488TIP3   OH246954   5.281   6.129   5.158 -0.9722  0.0126  0.1702
 8488TIP3    H146955   5.276   6.221   5.182 -1.6744  0.3109 -1.0600
 8488TIP3    H246956   5.265   6.082   5.241  0.0890  0.9600  0.9396
 8489TIP3   OH246957   4.947   4.537   0.378  0.7320 -0.0475 -0.7662
 8489TIP3    H146958   4.915   4.613   0.329  1.5306  0.2043 -0.9202
 8489TIP3    H246959   4.868   4.494   0.411  0.2675  0.8403 -0.6934
 8490TIP3   OH246960   6.487   5.270   0.339  0.1236 -0.4081  0.4422
 8490TIP3    H146961   6.411   5.323   0.316  0.2934 -0.3558 -0.0185
 8490TIP3    H246962   6.542   5.272   0.260  0.5183 -0.5854  0.7095
 8491TIP3   OH246963   2.590   3.978  13.518  0.4625  0.2691  0.1005
 8491TIP3    H146964   2.610   4.072  13.515  0.1532  0.3429  0.2409
 8491TIP3    H246965   2.522   3.966  13.451 -0.5159  0.4104  1.0306
 8492TIP3   OH246966   6.353   0.410   1.736 -0.0862 -0.4772 -0.0008
 8492TIP3    H146967   6.288   0.416   1.806  0.2552  0.4113  0.2563
 8492TIP3    H246968   6.306   0.438   1.658  0.5289  2.4590  0.5681
 8493TIP3   OH246969   2.111   2.260   2.952  0.8220 -0.3376  0.2740
 8493TIP3    H146970   2.061   2.178   2.952 -0.6650  0.5233 -1.0565
 8493TIP3    H246971   2.162   2.257   2.871 -1.4205  1.2440 -1.3134
 8494TIP3   OH246972   5.105   3.848   5.844 -0.6439  0.7083 -0.4489
 8494TIP3    H146973   5.127   3.839   5.751  0.8520 -1.0691  0.0124
 8494TIP3    H246974   5.044   3.922   5.847  0.6110  1.9498 -2.6325
 8495TIP3   OH246975   4.679   3.794  14.212  0.1265  0.2233  0.5883
 8495TIP3    H146976   4.620   3.816  14.283 -0.9591 -0.6355 -0.0236
 8495TIP3    H246977   4.640   3.834  14.134  0.0512 -0.8061  0.0875
 8496TIP3   OH246978   2.031   5.120  16.122 -0.2519 -0.1076 -0.1184
 8496TIP3    H146979   1.967   5.128  16.193  0.4725  4.6111  0.3508
 8496TIP3    H246980   2.097   5.060  16.155 -1.9638 -1.2652  1.4099
 8497TIP3   OH246981   3.751   2.557   0.266  0.2554 -0.2049 -0.0194
 8497TIP3    H146982   3.727   2.531   0.355  1.4165 -0.1927  0.3137
 8497TIP3    H246983   3.776   2.649   0.273 -2.5819  0.7396 -0.9576
 8498TIP3   OH246984   0.708   5.645  11.466 -0.0681 -0.3649  0.4600
 8498TIP3    H146985   0.705   5.717  11.403 -2.0578  0.2894  1.2407
 8498TIP3    H246986   0.707   5.688  11.551  0.7764 -1.2920  0.9662
 8499TIP3   OH246987   1.716   4.788   4.389 -0.0321  0.4686  0.5964
 8499TIP3    H146988   1.679   4.783   4.477  0.3215 -0.0037  0.7254
 8499TIP3    H246989   1.689   4.873   4.356 -1.7942 -0.1114  0.4347
 8500TIP3   OH246990   1.124   2.193   3.875 -0.3964 -0.2692  0.5951
 8500TIP3    H146991   1.198   2.136   3.854 -1.0842 -0.8284 -0.3878
 8500TIP3    H246992   1.057   2.170   3.810 -0.8557  1.3570  0.4665
 8501TIP3   OH246993   5.559   3.934  14.614  0.5475  0.0565 -0.2945
 8501TIP3    H146994   5.636   3.878  14.617  0.5409  0.0423 -0.3733
 8501TIP3    H246995   5.541   3.957  14.705 -0.3294 -1.2856 -0.1007
 8502TIP3   OH246996   5.681   2.539   1.724 -0.3230  0.1294  0.3849
 8502TIP3    H146997   5.719   2.579   1.646  2.1338  1.6733  2.2150
 8502TIP3    H246998   5.744   2.471   1.749 -0.3252  0.6244  1.7911
 8503TIP3   OH246999   4.264   0.564   1.311  0.2488 -0.1951  0.3938
 8503TIP3    H147000   4.300   0.483   1.345 -0.4216 -0.4353  0.5464
 8503TIP3    H247001   4.236   0.543   1.222  0.4376 -0.0251  0.2935
 8504TIP3   OH247002   6.170   5.578   5.359 -0.2143 -0.0983  0.5362
 8504TIP3    H147003   6.104   5.510   5.346 -1.6160  1.4779 -1.2224
 8504TIP3    H247004   6.153   5.612   5.446  0.1148 -1.5304  1.1927
 8505TIP3   OH247005   3.781   1.574  16.334 -0.1089  0.2139  0.3705
 8505TIP3    H147006   3.801   1.484  16.309 -0.2910 -0.2256  1.7141
 8505TIP3    H247007   3.866   1.610  16.362 -0.2903 -0.0697  1.3416
 8506TIP3   OH247008   0.492   3.758   3.702  0.2876 -0.2717  0.3366
 8506TIP3    H147009   0.476   3.787   3.792  0.8063 -1.3462  0.7868
 8506TIP3    H247010   0.407   3.725   3.673 -0.0052  0.5281  0.2411
 8507TIP3   OH247011   2.448   2.039  10.731 -0.8315  0.1509 -0.2171
 8507TIP3    H147012   2.409   2.005  10.651 -1.5483  0.8152 -0.1550
 8507TIP3    H247013   2.376   2.041  10.794 -0.7782  1.6373 -0.1777
 8508TIP3   OH247014   1.370   0.809   0.826 -0.3426  0.4409  0.5048
 8508TIP3    H147015   1.456   0.846   0.847 -1.1764  3.0240 -0.2286
 8508TIP3    H247016   1.308   0.868   0.869 -1.8111  0.8071 -1.9037
 8509TIP3   OH247017   0.679   5.349   3.087 -0.4548  1.0867  0.0349
 8509TIP3    H147018   0.704   5.303   3.167  1.3037  0.6403 -0.7207
 8509TIP3    H247019   0.649   5.435   3.117  1.4335  1.4124  1.1158
 8510TIP3   OH247020   1.819   0.661  14.812 -0.1645  0.6450 -0.7744
 8510TIP3    H147021   1.799   0.602  14.739 -1.5662 -2.5689  1.8961
 8510TIP3    H247022   1.768   0.740  14.794 -2.6142 -1.0817 -2.0697
 8511TIP3   OH247023   2.150   0.087   0.167 -0.1120 -0.2724  0.5632
 8511TIP3    H147024   2.116   0.078   0.078  0.0195 -0.6522  0.5519
 8511TIP3    H247025   2.087   0.040   0.221 -1.0622  1.2819  0.8746
 8512TIP3   OH247026   3.191   6.585  15.042  0.0261 -0.6912 -0.4164
 8512TIP3    H147027   3.121   6.598  15.106 -0.0297 -2.6091 -0.0354
 8512TIP3    H247028   3.148   6.600  14.957 -0.1298  0.9219 -0.0867
 8513TIP3   OH247029   5.760   2.872  10.744  0.4641 -0.0919 -0.2885
 8513TIP3    H147030   5.742   2.787  10.785 -3.3558  1.4867  1.7641
 8513TIP3    H247031   5.802   2.923  10.812 -1.2562  0.9599  0.0346
 8514TIP3   OH247032   1.322   1.515   4.105  0.1361 -0.5766  0.2104
 8514TIP3    H147033   1.340   1.508   4.199  0.9248  0.5853  0.1681
 8514TIP3    H247034   1.227   1.520   4.099  0.0968 -0.1946  1.0047
 8515TIP3   OH247035   6.065   5.903   1.546  0.5641  0.2389 -0.4327
 8515TIP3    H147036   6.102   5.828   1.498  2.2427  0.1538  0.9097
 8515TIP3    H247037   6.084   5.979   1.490 -1.3253 -0.2869 -1.8995
 8516TIP3   OH247038   6.468   0.367  11.155 -0.5526  0.4971  0.1172
 8516TIP3    H147039   6.495   0.457  11.167 -2.8706  1.2406  0.3063
 8516TIP3    H247040   6.494   0.346  11.065  1.4472  0.7457  0.5844
 8517TIP3   OH247041   1.902   5.168  10.110 -0.5122  0.2976 -0.2071
 8517TIP3    H147042   1.876   5.080  10.081  1.3754  0.1694 -1.6594
 8517TIP3    H247043   1.839   5.227  10.068 -0.9890 -0.2624 -0.2853
 8518TIP3   OH247044   0.933   5.852   5.149  0.0280  0.0200  0.1602
 8518TIP3    H147045   0.958   5.870   5.239 -0.3113 -0.2909  0.3169
 8518TIP3    H247046   0.901   5.762   5.150 -3.4226  1.1037  0.4864
 8519TIP3   OH247047   5.797   0.147   5.356 -0.1048  0.1557 -0.2612
 8519TIP3    H147048   5.853   0.107   5.423 -1.6092 -1.8684 -0.1072
 8519TIP3    H247049   5.814   0.241   5.363  1.7122 -0.2190  1.1534
 8520TIP3   OH247050   2.213   5.805   1.608  0.5415 -0.4545  0.3380
 8520TIP3    H147051   2.145   5.841   1.552  1.3579 -0.1180 -0.4558
 8520TIP3    H247052   2.216   5.864   1.683 -0.9283 -1.2122  1.0256
 8521TIP3   OH247053   2.876   2.961  14.425 -0.1681  0.5076 -0.1505
 8521TIP3    H147054   2.824   2.984  14.503 -0.3678  0.0974 -0.1601
 8521TIP3    H247055   2.964   2.993  14.445 -0.4117  1.1701 -0.1114
 8522TIP3   OH247056   5.482   4.689   3.558  0.0919  0.0973 -0.0511
 8522TIP3    H147057   5.441   4.717   3.476 -0.3282  0.0647  0.1480
 8522TIP3    H247058   5.496   4.595   3.547 -1.7849 -0.2993  0.6825
 8523TIP3   OH247059   6.203   3.611   2.606  0.3507  0.0765 -0.2787
 8523TIP3    H147060   6.183   3.691   2.558 -0.3801  0.6846  0.9813
 8523TIP3    H247061   6.118   3.569   2.620  0.8188 -1.4550 -1.7817
 8524TIP3   OH247062   0.731   4.266   1.510 -0.4629 -0.2596  0.4561
 8524TIP3    H147063   0.663   4.280   1.575  0.2638  1.2125  0.9328
 8524TIP3    H247064   0.731   4.346   1.457  1.3892  0.1312  0.9624
 8525TIP3   OH247065   5.581   5.356  12.246  0.1835  0.7566 -0.1420
 8525TIP3    H147066   5.664   5.312  12.228  0.4888  1.5034 -0.6066
 8525TIP3    H247067   5.568   5.416  12.172 -0.5400  0.9821  0.1504
 8526TIP3   OH247068   1.532   5.950   4.679 -0.5471 -0.4177  0.4452
 8526TIP3    H147069   1.622   5.981   4.678  0.0993 -2.1809 -0.1381
 8526TIP3    H247070   1.515   5.925   4.770 -0.3834 -0.2876  0.5114
 8527TIP3   OH247071   3.521   4.316  12.729 -0.3973 -0.8043 -1.0174
 8527TIP3    H147072   3.543   4.325  12.636  1.8896  1.1565 -0.3928
 8527TIP3    H247073   3.601   4.281  12.769 -1.0025 -0.6578  0.3581
 8528TIP3   OH247074   6.050   4.827  11.995  0.3763 -0.1329 -0.1139
 8528TIP3    H147075   6.123   4.859  11.943  1.1078 -0.3421  0.7560
 8528TIP3    H247076   6.037   4.737  11.965 -0.3473  0.2951 -1.1299
 8529TIP3   OH247077   6.377   4.909   0.975  0.2686 -0.0370 -0.5302
 8529TIP3    H147078   6.412   4.823   1.000  0.7076 -0.5525 -2.7287
 8529TIP3    H247079   6.350   4.898   0.884 -0.7190  1.8636 -0.4987
 8530TIP3   OH247080   4.506   3.787  12.254 -0.0207 -0.2183  0.1448
 8530TIP3    H147081   4.419   3.784  12.295 -0.0904  0.1278  0.0333
 8530TIP3    H247082   4.565   3.810  12.326 -0.2816  1.4273 -0.1157
 8531TIP3   OH247083   0.875   0.851   3.650 -0.0252 -0.0383  0.3828
 8531TIP3    H147084   0.882   0.936   3.694 -1.7179  0.9178 -1.0538
 8531TIP3    H247085   0.918   0.864   3.566 -3.0118  0.4948 -1.1983
 8532TIP3   OH247086   5.527   4.695   5.248 -0.0257  0.3873  0.0578
 8532TIP3    H147087   5.436   4.680   5.274 -0.6208  2.8615 -0.4012
 8532TIP3    H247088   5.568   4.735   5.324  0.1440  1.0572 -0.3769
 8533TIP3   OH247089   1.334   0.005   2.866 -0.0376 -0.4454 -0.2233
 8533TIP3    H147090   1.366   0.088   2.903  0.7590 -0.6003 -0.5505
 8533TIP3    H247091   1.273  -0.028   2.931  0.2634 -0.0037  0.2933
 8534TIP3   OH247092   4.121   2.396  11.366  0.5507  0.1957 -0.2358
 8534TIP3    H147093   4.194   2.450  11.395  1.6743 -1.8137  0.8320
 8534TIP3    H247094   4.144   2.371  11.276  0.8669  0.0823 -0.1248
 8535TIP3   OH247095   4.697   5.593  12.940  0.2356 -0.1791 -0.0809
 8535TIP3    H147096   4.761   5.570  12.873 -2.0643  0.0223 -2.5291
 8535TIP3    H247097   4.741   5.659  12.994  1.9866  0.1526 -1.8155
 8536TIP3   OH247098   3.553   6.541  14.300  0.3381 -0.8201 -0.7435
 8536TIP3    H147099   3.601   6.459  14.307 -0.1918 -1.0249  0.6422
 8536TIP3    H247100   3.484   6.535  14.365 -0.0375  0.5115 -0.9860
 8537TIP3   OH247101   2.072   1.427   4.950 -0.1517  0.2056  0.2346
 8537TIP3    H147102   2.131   1.362   4.988 -0.1770 -0.0616 -0.1836
 8537TIP3    H247103   1.995   1.425   5.007  0.9893  1.9291  1.9409
 8538TIP3   OH247104   6.517   2.439  15.803  0.1866 -0.2787 -0.3383
 8538TIP3    H147105   6.547   2.464  15.891 -0.6623 -0.5620  0.0523
 8538TIP3    H247106   6.560   2.500  15.744  1.8552 -0.9490  0.1344
 8539TIP3   OH247107   2.555   6.782   5.463  0.6576 -0.6355 -0.6631
 8539TIP3    H147108   2.632   6.769   5.407 -0.2229 -1.4630 -1.7218
 8539TIP3    H247109   2.552   6.703   5.517  0.0847 -1.0055 -1.2203
 8540TIP3   OH247110   0.272   5.725  10.364  0.6582  0.0152  0.6626
 8540TIP3    H147111   0.246   5.810  10.329  1.7685  0.1062  0.0426
 8540TIP3    H247112   0.190   5.676  10.372 -0.2989  1.8209  2.9503
 8541TIP3   OH247113   0.730   6.683   2.148 -0.0777  0.3567 -0.1109
 8541TIP3    H147114   0.814   6.641   2.166  0.2049  1.1266  0.4667
 8541TIP3    H247115   0.707   6.656   2.059  0.5247 -0.2804 -0.0767
 8542TIP3   OH247116   3.400   2.043   5.065 -0.1217  0.5404  0.2074
 8542TIP3    H147117   3.356   2.127   5.051 -0.3015  0.1488 -1.7991
 8542TIP3    H247118   3.343   1.978   5.023  1.1939 -0.2771 -0.3986
 8543TIP3   OH247119   5.991   1.839  12.953 -0.4864  0.0815 -0.7420
 8543TIP3    H147120   5.938   1.771  12.995  0.5954 -1.0570 -1.1881
 8543TIP3    H247121   5.968   1.834  12.860 -1.4235  1.2849 -0.6048
 8544TIP3   OH247122   3.533   2.279   2.130  0.5565 -0.6858 -0.1915
 8544TIP3    H147123   3.571   2.297   2.044 -2.5262 -2.1005 -2.0207
 8544TIP3    H247124   3.553   2.187   2.147  2.6003 -0.0147  1.5427
 8545TIP3   OH247125   5.653   6.577   3.053 -0.1555  0.2543 -0.5420
 8545TIP3    H147126   5.747   6.566   3.048 -0.0318  1.1209 -0.3316
 8545TIP3    H247127   5.632   6.564   3.145 -0.2429  0.0355 -0.5934
 8546TIP3   OH247128   3.140   1.537   0.172  0.0650  0.5183 -0.6140
 8546TIP3    H147129   3.140   1.481   0.250 -1.9979  1.5699  0.2250
 8546TIP3    H247130   3.225   1.522   0.131  0.3068 -1.8074  0.5715
 8547TIP3   OH247131   1.182   3.037   2.852  0.0572  0.1294 -0.4213
 8547TIP3    H147132   1.149   2.988   2.776  2.1634  0.5320 -1.6691
 8547TIP3    H247133   1.177   3.129   2.826  0.0143  0.3362  0.2825
 8548TIP3   OH247134   0.663   2.433   5.816 -0.4210  0.3745  0.1175
 8548TIP3    H147135   0.731   2.496   5.835  0.8978 -1.3116  1.2687
 8548TIP3    H247136   0.596   2.449   5.882  0.5193 -0.2592  1.2620
 8549TIP3   OH247137   4.193   0.348  13.955  0.8133  0.3980 -0.0856
 8549TIP3    H147138   4.171   0.416  13.891  3.1391 -1.5565 -3.2781
 8549TIP3    H247139   4.113   0.295  13.962  0.2284  1.1920 -0.6432
 8550TIP3   OH247140   0.592   4.095  13.493 -0.1926 -0.0955  0.2097
 8550TIP3    H147141   0.531   4.036  13.449 -1.0776 -0.4244  1.7919
 8550TIP3    H247142   0.650   4.037  13.543  1.1821  0.2377 -0.9344
 8551TIP3   OH247143   5.023   6.713  14.584 -0.9804 -0.4825  0.1270
 8551TIP3    H147144   4.981   6.706  14.670 -3.2587  2.4055 -0.6022
 8551TIP3    H247145   5.072   6.795  14.589  0.8379 -1.4673 -0.6377
 8552TIP3   OH247146   4.017   2.706  15.414  0.2021 -0.2392 -0.1798
 8552TIP3    H147147   3.989   2.774  15.475 -0.9349 -1.3537  0.5902
 8552TIP3    H247148   4.113   2.713  15.412  0.2893 -0.2432  1.8580
 8553TIP3   OH247149   6.050   1.203   0.502  0.1102 -0.1388 -0.4219
 8553TIP3    H147150   5.988   1.157   0.558  1.4696  0.6799  1.8777
 8553TIP3    H247151   5.995   1.245   0.435 -1.3922 -2.6373 -0.8901
 8554TIP3   OH247152   5.433   5.045  15.574 -0.2104  0.2938  0.4305
 8554TIP3    H147153   5.346   5.076  15.600 -0.5038  0.3628 -0.6079
 8554TIP3    H247154   5.469   5.007  15.654 -2.6200 -3.1097  0.1251
 8555TIP3   OH247155   1.210   2.810   3.417 -0.1940 -0.0657 -0.1529
 8555TIP3    H147156   1.208   2.746   3.347 -0.6805 -0.1844 -0.0292
 8555TIP3    H247157   1.159   2.884   3.384 -0.0635  0.0514 -0.0936
 8556TIP3   OH247158   0.026   0.132   1.218 -0.2158 -0.2019 -0.6203
 8556TIP3    H147159  -0.029   0.074   1.270 -0.9842  0.0999 -1.0709
 8556TIP3    H247160   0.045   0.206   1.276 -1.1267  0.1677 -0.7651
 8557TIP3   OH247161   5.524   5.907   2.051  0.1649 -0.7514  0.3832
 8557TIP3    H147162   5.607   5.913   2.002 -0.9562  2.0844 -1.4265
 8557TIP3    H247163   5.501   5.998   2.070 -2.6990 -1.4097  0.4935
 8558TIP3   OH247164   4.951   5.119   0.803 -0.2167 -0.3801 -0.6428
 8558TIP3    H147165   4.939   5.058   0.730 -0.3214  0.1344 -1.0642
 8558TIP3    H247166   5.046   5.129   0.810 -0.1405 -1.4669  0.1785
 8559TIP3   OH247167   3.776   4.424   3.099 -0.3992 -0.7627 -0.2678
 8559TIP3    H147168   3.809   4.492   3.157 -0.3199 -0.6354 -0.4645
 8559TIP3    H247169   3.714   4.375   3.153 -2.3085  0.9335 -0.7875
 8560TIP3   OH247170   0.069   0.889  14.117  0.5340  0.0748 -0.3045
 8560TIP3    H147171   0.102   0.838  14.190  0.0153  1.4528  0.9404
 8560TIP3    H247172   0.101   0.978  14.133 -0.1157  0.5290 -1.4016
 8561TIP3   OH247173   0.904   1.130  10.930 -0.6862 -0.0235 -0.0698
 8561TIP3    H147174   0.853   1.122  11.011 -0.2372 -0.6391  0.1563
 8561TIP3    H247175   0.895   1.222  10.905  0.2306  0.5030  1.4025
 8562TIP3   OH247176   2.543   0.099  11.871  0.0903  0.6671 -0.1401
 8562TIP3    H147177   2.519   0.164  11.938  1.3446  1.6924 -0.6371
 8562TIP3    H247178   2.460   0.058  11.847 -0.7957  2.2989 -0.0156
 8563TIP3   OH247179   4.934   3.929  12.531 -0.2353 -0.1537  0.1461
 8563TIP3    H147180   4.838   3.929  12.529 -0.2819 -0.9236  1.2380
 8563TIP3    H247181   4.956   3.864  12.598  1.0296  0.7396  0.6394
 8564TIP3   OH247182   4.648   3.628   1.495  0.4029 -0.1172  0.4236
 8564TIP3    H147183   4.582   3.585   1.441  0.3069 -1.0039  1.2280
 8564TIP3    H247184   4.662   3.713   1.453  0.0028 -0.6071 -0.7304
 8565TIP3   OH247185   0.034   2.796  15.069  0.1273  0.1092 -0.2797
 8565TIP3    H147186   0.120   2.753  15.068  1.1413  2.0394 -0.4101
 8565TIP3    H247187   0.023   2.829  14.980 -0.3438  0.6194 -0.0381
 8566TIP3   OH247188   6.893   6.376  16.551 -0.4164 -0.2670  0.2965
 8566TIP3    H147189   6.912   6.388  16.458 -0.3939 -1.1093  0.1870
 8566TIP3    H247190   6.939   6.448  16.594 -1.1157  0.6232 -0.4079
 8567TIP3   OH247191   0.086   2.474   6.379 -0.2434  1.0275  0.5283
 8567TIP3    H147192   0.146   2.461   6.305 -1.4739 -1.3412 -0.1724
 8567TIP3    H247193   0.024   2.541   6.348 -0.1220  0.8224 -0.1891
 8568TIP3   OH247194   0.522   1.785   4.458  0.0356 -0.2956  0.1002
 8568TIP3    H147195   0.599   1.728   4.456  1.2569  1.2841 -2.2359
 8568TIP3    H247196   0.555   1.868   4.491 -1.1715 -0.1337  0.9932
 8569TIP3   OH247197   3.955   1.500  11.042  1.0320 -0.5763  0.4471
 8569TIP3    H147198   3.877   1.514  10.990  2.2064  1.0995 -0.9745
 8569TIP3    H247199   3.923   1.488  11.132 -0.8173  0.5998 -0.0098
 8570TIP3   OH247200   6.799   5.511  13.415  0.0491  0.3606  0.2753
 8570TIP3    H147201   6.756   5.504  13.330  0.7342 -1.6309  0.0425
 8570TIP3    H247202   6.730   5.538  13.475 -1.0990 -0.9298 -0.4213
 8571TIP3   OH247203   1.140   0.486  13.457  0.5206  0.2117  0.7777
 8571TIP3    H147204   1.127   0.524  13.370  2.1244 -0.7303  0.0965
 8571TIP3    H247205   1.185   0.554  13.507  1.9089 -0.1334  0.0553
 8572TIP3   OH247206   4.052   2.717   2.991  0.2456 -0.7592  0.1515
 8572TIP3    H147207   4.072   2.673   2.909  0.2595  0.3290 -0.4504
 8572TIP3    H247208   4.137   2.726   3.035  0.0699 -2.5143  0.9241
 8573TIP3   OH247209   4.654   5.707  14.439 -0.0987 -0.4952 -0.6225
 8573TIP3    H147210   4.710   5.702  14.362  1.1834 -2.9081  0.3793
 8573TIP3    H247211   4.565   5.711  14.404  0.5429  1.6631 -2.2144
 8574TIP3   OH247212   1.794   0.424  10.537 -0.7091 -0.0222 -0.1753
 8574TIP3    H147213   1.770   0.415  10.629  1.6029  1.1120  0.6526
 8574TIP3    H247214   1.862   0.358  10.523  0.7933  1.4754 -0.2687
 8575TIP3   OH247215   6.769   5.691   4.628 -0.1399 -0.7670 -0.1153
 8575TIP3    H147216   6.679   5.676   4.658  0.3734 -0.0344  1.9596
 8575TIP3    H247217   6.820   5.621   4.668  0.7546  0.8881  1.8256
 8576TIP3   OH247218   3.371   0.429  13.172 -0.8601 -0.1659  0.4380
 8576TIP3    H147219   3.359   0.492  13.102  1.6652 -2.3431 -2.2417
 8576TIP3    H247220   3.299   0.366  13.160 -1.3921  0.3451  0.9053
 8577TIP3   OH247221   5.476   2.756   5.267 -0.4960 -0.3059 -0.2031
 8577TIP3    H147222   5.387   2.783   5.291 -0.8811 -1.1325 -0.6161
 8577TIP3    H247223   5.486   2.785   5.177 -0.5852 -0.7562 -0.3601
 8578TIP3   OH247224   4.236   4.310  16.853 -0.1886 -0.4968 -0.2098
 8578TIP3    H147225   4.328   4.285  16.864 -0.2301 -1.4148 -1.6319
 8578TIP3    H247226   4.237   4.368  16.776 -0.7032  0.2129  0.3042
 8579TIP3   OH247227   3.276   6.048  15.933 -0.4749 -0.1417 -0.1723
 8579TIP3    H147228   3.217   6.073  16.005  0.1833  0.1677  0.2642
 8579TIP3    H247229   3.321   6.129  15.910  2.5032 -1.0172  1.9914
 8580TIP3   OH247230   6.453   5.454  16.185  0.4403  0.0497  0.1883
 8580TIP3    H147231   6.486   5.482  16.270 -0.1164  2.5987 -0.3471
 8580TIP3    H247232   6.439   5.535  16.137 -2.4876 -1.0797 -1.1285
 8581TIP3   OH247233   2.600   4.213  11.673 -0.0841 -0.5061 -0.0924
 8581TIP3    H147234   2.665   4.166  11.621  2.0398  1.5583  0.4937
 8581TIP3    H247235   2.551   4.264  11.609  1.6402  1.0146 -0.2791
 8582TIP3   OH247236   4.276   3.920   5.386 -0.2792 -0.4817 -0.3724
 8582TIP3    H147237   4.269   3.825   5.378  0.1318 -0.6235  0.7029
 8582TIP3    H247238   4.200   3.954   5.339 -1.5548 -1.4281  0.9176
 8583TIP3   OH247239   4.604   5.735   2.523 -0.3850 -0.0526  0.1613
 8583TIP3    H147240   4.531   5.673   2.517 -0.3231 -0.1170  0.0689
 8583TIP3    H247241   4.681   5.685   2.496 -0.4319  0.2317 -0.5147
 8584TIP3   OH247242   6.156   6.348  13.151 -0.1084  0.0807  0.2290
 8584TIP3    H147243   6.068   6.343  13.115  0.0406 -0.1310 -0.1083
 8584TIP3    H247244   6.214   6.351  13.075  0.3228 -2.2455  0.3950
 8585TIP3   OH247245   6.627   6.596   5.314  0.4431  0.1889 -0.2466
 8585TIP3    H147246   6.618   6.501   5.310 -2.7683  0.3793 -0.0576
 8585TIP3    H247247   6.689   6.611   5.386 -0.6052 -1.7585  1.1571
 8586TIP3   OH247248   2.686   5.109  12.933 -0.4407 -0.0190 -0.0765
 8586TIP3    H147249   2.658   5.126  12.844  0.6652  3.5267  0.0959
 8586TIP3    H247250   2.749   5.038  12.926 -2.6539 -1.9544 -1.6011
 8587TIP3   OH247251   3.543   0.408  16.099 -0.3329 -0.0604 -0.0911
 8587TIP3    H147252   3.582   0.457  16.172 -2.9171  0.7727  0.8565
 8587TIP3    H247253   3.516   0.325  16.139  0.2171 -0.5267 -0.6736
 8588TIP3   OH247254   2.646   2.849  15.336  0.0881 -0.8264 -0.5399
 8588TIP3    H147255   2.711   2.779  15.348 -0.7417 -1.8558 -1.7243
 8588TIP3    H247256   2.612   2.834  15.248  1.1413  2.1872 -1.5662
 8589TIP3   OH247257   0.232   5.839   0.388 -0.3909  0.1505  0.7077
 8589TIP3    H147258   0.198   5.869   0.473 -0.7488  3.7442 -0.5169
 8589TIP3    H247259   0.175   5.882   0.323  0.5243 -1.6165 -1.3843
 8590TIP3   OH247260   3.883   2.388   0.507 -0.1124  0.0077 -0.3676
 8590TIP3    H147261   3.965   2.436   0.498  1.9934 -3.4748 -1.9287
 8590TIP3    H247262   3.882   2.360   0.599 -0.0311  0.8333 -0.1099
 8591TIP3   OH247263   0.813   4.949   1.580  0.4234  0.5907  0.0687
 8591TIP3    H147264   0.886   5.005   1.608  1.3396  0.4196 -1.8487
 8591TIP3    H247265   0.816   4.875   1.640  1.9561  0.5042 -0.0803
 8592TIP3   OH247266   3.449   5.024  12.429  0.7054  0.1284  0.6035
 8592TIP3    H147267   3.472   5.024  12.336  0.4255  1.0461  0.5308
 8592TIP3    H247268   3.528   5.056  12.473  0.5338  0.5432  0.6067
 8593TIP3   OH247269   2.954   6.430   4.154 -0.5450 -0.0726 -0.1617
 8593TIP3    H147270   2.912   6.494   4.212 -0.9918  0.3791 -0.9661
 8593TIP3    H247271   2.964   6.476   4.070 -0.0528 -0.7639 -0.4931
 8594TIP3   OH247272   2.694   4.344  12.279 -0.9259 -0.8851 -0.4524
 8594TIP3    H147273   2.764   4.283  12.303 -0.6781 -1.2882 -2.0709
 8594TIP3    H247274   2.733   4.401  12.213 -0.7770  1.8897  1.8434
 8595TIP3   OH247275   5.405   0.454  15.643  0.7089 -0.1324 -0.3199
 8595TIP3    H147276   5.309   0.458  15.641  0.7587  2.2857 -1.6792
 8595TIP3    H247277   5.427   0.457  15.736 -0.5246 -2.1340  0.0760
 8596TIP3   OH247278   6.625   4.341  10.514  0.5553 -0.1612 -0.1863
 8596TIP3    H147279   6.601   4.430  10.540 -0.3872  0.2933 -2.3569
 8596TIP3    H247280   6.550   4.309  10.464  0.4239 -2.6294  1.4376
 8597TIP3   OH247281   1.516   4.553  13.019  0.3526  0.4559  0.3011
 8597TIP3    H147282   1.600   4.536  13.063 -0.1748 -1.2466  0.7046
 8597TIP3    H247283   1.540   4.569  12.928  1.2458  1.6965  0.7190
 8598TIP3   OH247284   5.969   4.267  15.574  0.3346 -0.6139 -0.0307
 8598TIP3    H147285   5.917   4.214  15.634 -1.0172 -0.5773 -1.1159
 8598TIP3    H247286   5.907   4.330  15.539  1.4298  0.2834 -0.3967
 8599TIP3   OH247287   2.913   2.701   0.315  0.2955  0.0394 -0.5946
 8599TIP3    H147288   2.828   2.734   0.285 -0.2451 -1.2766 -0.5530
 8599TIP3    H247289   2.924   2.618   0.269  1.7841  0.3992 -0.9439
 8600TIP3   OH247290   3.523   6.461   1.280  0.4927 -0.0048  0.4218
 8600TIP3    H147291   3.478   6.377   1.283 -0.2626  0.3798  0.0120
 8600TIP3    H247292   3.469   6.516   1.224  0.3220  1.1422  1.6470
 8601TIP3   OH247293   0.299   0.824  13.899 -0.3946 -0.1472  0.8877
 8601TIP3    H147294   0.268   0.734  13.899  0.2784 -0.4078 -0.8477
 8601TIP3    H247295   0.393   0.817  13.916 -0.2346  0.1847  0.1489
 8602TIP3   OH247296   6.092   2.620  11.533 -0.2361  0.1324  0.7295
 8602TIP3    H147297   6.098   2.694  11.594  1.7492  0.4531  0.2120
 8602TIP3    H247298   6.163   2.562  11.559 -1.5236 -1.4584  0.8841
 8603TIP3   OH247299   2.633   2.931   2.504 -0.0788  0.3284  0.0366
 8603TIP3    H147300   2.557   2.909   2.450 -0.7229 -0.9075  1.4015
 8603TIP3    H247301   2.705   2.879   2.467 -0.7532 -1.3286  0.9634
 8604TIP3   OH247302   4.898   3.118  13.995 -0.5106 -0.2522 -0.4368
 8604TIP3    H147303   4.813   3.093  13.958 -1.5213  0.5125  1.2482
 8604TIP3    H247304   4.900   3.213  13.987  0.6097 -0.3251 -1.2632
 8605TIP3   OH247305   6.302   4.183   2.570 -0.3109  0.4170  0.5882
 8605TIP3    H147306   6.236   4.231   2.620  1.7562  2.9079  1.1550
 8605TIP3    H247307   6.385   4.206   2.612  1.0573 -1.5904 -0.8378
 8606TIP3   OH247308   6.800   4.451   2.634 -0.7247 -0.4260  0.3139
 8606TIP3    H147309   6.825   4.450   2.542 -1.5031 -0.5027  0.0985
 8606TIP3    H247310   6.704   4.443   2.634 -0.8080  0.3601  1.0975
 8607TIP3   OH247311   1.900   2.834  15.752 -0.5004 -0.4029 -0.1075
 8607TIP3    H147312   1.910   2.928  15.763  0.9132 -0.8130  3.1587
 8607TIP3    H247313   1.818   2.824  15.703  0.2723  2.4776 -2.2563
 8608TIP3   OH247314   3.436   5.837   0.338  0.0244  0.0655 -0.3870
 8608TIP3    H147315   3.442   5.768   0.405  2.7391 -1.4860 -2.0496
 8608TIP3    H247316   3.460   5.917   0.384 -1.2880 -0.3637  1.1630
 8609TIP3   OH247317   2.094   5.501   1.907 -0.2841 -0.9263 -0.1311
 8609TIP3    H147318   2.004   5.470   1.904 -0.4974 -0.6944  2.0920
 8609TIP3    H247319   2.087   5.595   1.924  0.3618 -0.8439 -0.2842
 8610TIP3   OH247320   5.037   3.790  16.224  0.1837  0.0336 -0.0046
 8610TIP3    H147321   4.984   3.760  16.297  2.5238 -1.3494  1.2496
 8610TIP3    H247322   5.042   3.885  16.235  0.1424 -0.1134  1.3828
 8611TIP3   OH247323   1.896   3.764   3.229  0.2472 -0.5667 -0.2536
 8611TIP3    H147324   1.959   3.691   3.233  0.5266 -0.3469 -0.6142
 8611TIP3    H247325   1.871   3.779   3.320 -0.7196 -1.8968 -0.2688
 8612TIP3   OH247326   5.096   5.630  10.835  0.6315  0.3917  0.1464
 8612TIP3    H147327   5.161   5.563  10.816  0.6299  0.8227 -1.5825
 8612TIP3    H247328   5.143   5.696  10.885  1.0718 -0.0916  0.3821
 8613TIP3   OH247329   5.617   1.385  16.569  0.0507 -0.3275  0.9585
 8613TIP3    H147330   5.523   1.369  16.570  0.0010 -0.1192  0.2036
 8613TIP3    H247331   5.627   1.466  16.518  0.4839  0.7157  2.6394
 8614TIP3   OH247332   4.791   4.357  10.606 -0.4390  0.9782 -0.2533
 8614TIP3    H147333   4.708   4.310  10.606 -0.0119  0.2035 -0.0497
 8614TIP3    H247334   4.780   4.426  10.540 -1.6171  1.5956  0.5454
 8615TIP3   OH247335   5.936   5.567   1.032  0.3140  0.1842 -0.0056
 8615TIP3    H147336   5.983   5.639   1.074 -0.7345  0.6879  0.3197
 8615TIP3    H247337   5.979   5.559   0.946  1.0509  0.5688  0.3133
 8616TIP3   OH247338   2.993   0.407   1.906 -0.5126  0.6737 -0.6677
 8616TIP3    H147339   3.016   0.345   1.976  0.2841  0.6753 -0.9225
 8616TIP3    H247340   2.929   0.465   1.947 -3.3122 -1.8196 -1.1493
 8617TIP3   OH247341   2.918   2.853  15.982 -1.0148 -0.1935 -0.4963
 8617TIP3    H147342   2.949   2.924  15.925  2.1012 -0.1183  1.0667
 8617TIP3    H247343   2.915   2.893  16.069  1.8018 -2.0711  0.6019
 8618TIP3   OH247344   2.628   1.256  15.075 -0.6506 -0.5317  0.1890
 8618TIP3    H147345   2.634   1.346  15.106  0.8792 -0.2994 -0.6406
 8618TIP3    H247346   2.582   1.262  14.991 -0.6143 -0.5334  0.1698
 8619TIP3   OH247347   6.720   5.185   4.619  0.1008 -0.3081 -0.9445
 8619TIP3    H147348   6.677   5.229   4.546  1.5157  1.9884 -0.5252
 8619TIP3    H247349   6.696   5.237   4.696  0.8429 -1.0164 -0.2056
 8620TIP3   OH247350   2.471   5.350  16.607 -0.1283 -0.2375  0.5068
 8620TIP3    H147351   2.422   5.418  16.655 -1.5749 -1.2386  0.5112
 8620TIP3    H247352   2.418   5.334  16.528  2.1267  1.2720 -1.4503
 8621TIP3   OH247353   4.658   6.615   2.655  0.2267  0.6780 -0.0121
 8621TIP3    H147354   4.596   6.614   2.727  0.0684 -0.7913 -0.1410
 8621TIP3    H247355   4.715   6.540   2.671 -0.5573 -0.4371 -2.0247
 8622TIP3   OH247356   6.646   6.888   0.236 -0.0988  0.4679  0.0606
 8622TIP3    H147357   6.712   6.910   0.170 -0.6763 -0.5926 -0.9073
 8622TIP3    H247358   6.563   6.893   0.190 -0.6863  1.3152  1.1514
 8623TIP3   OH247359   6.730   6.738  11.674 -0.1351  0.5209  0.0391
 8623TIP3    H147360   6.822   6.762  11.682 -0.0609  0.3609 -0.3194
 8623TIP3    H247361   6.696   6.796  11.607 -0.3228  0.6509  0.2460
 8624TIP3   OH247362   3.568   1.360  14.347 -0.8297  0.7534  0.5078
 8624TIP3    H147363   3.555   1.379  14.254  0.7579 -2.0780 -0.3978
 8624TIP3    H247364   3.608   1.440  14.382 -0.8313  1.6328 -1.3718
 8625TIP3   OH247365   1.402   1.318   0.257  0.2000  0.3911  0.4267
 8625TIP3    H147366   1.464   1.381   0.221  0.0943  0.9946  1.2785
 8625TIP3    H247367   1.398   1.338   0.350 -0.2625 -0.5124  0.6145
 8626TIP3   OH247368   1.904   3.296  13.553  0.2432  0.2555  0.0682
 8626TIP3    H147369   1.974   3.275  13.491  0.2075 -0.3427  0.2321
 8626TIP3    H247370   1.830   3.322  13.497 -0.6504 -2.7321 -0.3100
 8627TIP3   OH247371   2.720   1.174  16.133  0.4814  0.3777 -0.3114
 8627TIP3    H147372   2.716   1.081  16.153  0.3273  0.3475 -0.4795
 8627TIP3    H247373   2.683   1.217  16.210  0.9174  0.3214 -0.0664
 8628TIP3   OH247374   2.492   5.329   1.595 -1.1496  1.0145 -0.0365
 8628TIP3    H147375   2.452   5.402   1.643  0.7690  0.2223  3.0006
 8628TIP3    H247376   2.453   5.251   1.634 -2.0916  0.2588 -2.2664
 8629TIP3   OH247377   1.428   4.319   2.582  0.0923  0.4679  0.0811
 8629TIP3    H147378   1.386   4.395   2.622 -0.5920  0.7379 -1.1234
 8629TIP3    H247379   1.356   4.259   2.563  0.4632  0.1411 -0.3051
 8630TIP3   OH247380   5.035   6.458  11.604  0.3191  0.7333  0.8988
 8630TIP3    H147381   5.097   6.408  11.551  2.2079  0.9208  2.7825
 8630TIP3    H247382   4.957   6.404  11.608  1.8512 -1.5664  1.8655
 8631TIP3   OH247383   4.030   3.052  14.556  0.4221 -0.7097  0.0843
 8631TIP3    H147384   4.031   2.963  14.592  0.8830 -0.8980 -0.3719
 8631TIP3    H247385   3.946   3.057  14.510 -0.0068 -0.5917  0.8588
 8632TIP3   OH247386   2.182   1.866   0.388  0.6361 -0.5300 -0.1597
 8632TIP3    H147387   2.193   1.867   0.293 -1.2764 -0.6781 -0.4262
 8632TIP3    H247388   2.248   1.803   0.419  0.8564 -0.9673 -1.4530
 8633TIP3   OH247389   2.777   1.403   5.474 -0.3120 -0.2870 -0.3587
 8633TIP3    H147390   2.703   1.463   5.480 -0.2165 -0.1917 -0.1054
 8633TIP3    H247391   2.783   1.381   5.381  0.0614  0.6107 -0.5575
 8634TIP3   OH247392   5.171   2.500  14.147  0.1548  0.4367  0.1634
 8634TIP3    H147393   5.249   2.445  14.137  0.2979  0.7383 -0.4343
 8634TIP3    H247394   5.173   2.528  14.239 -0.6523 -1.6261  0.8855
 8635TIP3   OH247395   3.830   2.136   3.730 -0.1914  0.2128  0.0018
 8635TIP3    H147396   3.791   2.195   3.795 -0.5813  1.4510 -1.3091
 8635TIP3    H247397   3.817   2.049   3.766  1.9761  0.9316  2.8925
 8636TIP3   OH247398   0.071   5.048   0.800  0.3624 -0.4567 -0.3740
 8636TIP3    H147399   0.150   5.035   0.853 -0.5323 -1.6486  0.7432
 8636TIP3    H247400   0.073   4.976   0.737 -0.0342 -0.7504 -0.0588
 8637TIP3   OH247401   0.790   1.481  13.681 -0.2239 -0.1307 -0.0391
 8637TIP3    H147402   0.873   1.459  13.722 -0.4888 -1.3765 -0.1282
 8637TIP3    H247403   0.812   1.503  13.590  0.3169  2.2598  0.5925
 8638TIP3   OH247404   4.422   6.832   0.295  0.1494  0.6239  0.0005
 8638TIP3    H147405   4.342   6.867   0.335  1.2073  2.4875  0.6178
 8638TIP3    H247406   4.477   6.806   0.369  1.4970  2.6492 -0.2090
 8639TIP3   OH247407   1.687   1.733   2.762 -0.4574 -0.3874  0.1087
 8639TIP3    H147408   1.707   1.826   2.748 -0.2999 -0.6291 -1.5618
 8639TIP3    H247409   1.592   1.730   2.774 -0.4084  0.0291  0.6420
 8640TIP3   OH247410   2.360   5.440   1.345  0.0866 -0.1770  0.1146
 8640TIP3    H147411   2.388   5.417   1.434 -0.9727 -1.4218  0.1438
 8640TIP3    H247412   2.413   5.385   1.288  1.7311  1.5593 -0.1555
 8641TIP3   OH247413   0.495   2.547   1.633 -0.0318  0.2004  0.5416
 8641TIP3    H147414   0.498   2.544   1.538 -0.2334  0.1453  0.5381
 8641TIP3    H247415   0.584   2.574   1.658  0.3763 -0.9082  0.3805
 8642TIP3   OH247416   2.507   4.283  15.772 -0.4386  0.1463  0.2616
 8642TIP3    H147417   2.418   4.259  15.798 -0.2877 -3.5105 -1.8118
 8642TIP3    H247418   2.499   4.310  15.681  0.5132  0.1630  0.1701
 8643TIP3   OH247419   2.678   6.096  14.303 -0.5722 -0.0120  0.5356
 8643TIP3    H147420   2.601   6.120  14.353 -0.8138  0.3856 -0.0191
 8643TIP3    H247421   2.732   6.175  14.302  0.5736 -0.7199  2.2177
 8644TIP3   OH247422   2.452   6.802   6.196 -0.3478  0.0845 -0.1151
 8644TIP3    H147423   2.441   6.871   6.262  0.7839  0.5760 -0.4190
 8644TIP3    H247424   2.381   6.740   6.214 -0.5335  0.6115  1.0669
 8645TIP3   OH247425   5.201   5.757  13.881 -0.0591 -0.4032 -0.0830
 8645TIP3    H147426   5.201   5.706  13.801  0.0985 -2.1309  0.9715
 8645TIP3    H247427   5.283   5.733  13.925  0.7713  1.9016 -0.2057
 8646TIP3   OH247428   1.420   3.169   2.446  0.6763  0.0953  0.6312
 8646TIP3    H147429   1.497   3.223   2.425 -1.4761  2.5964 -1.5147
 8646TIP3    H247430   1.423   3.160   2.542  2.1684  2.5105  0.9052
 8647TIP3   OH247431   4.265   3.692  12.334  0.1829  0.2233  0.0340
 8647TIP3    H147432   4.287   3.599  12.330 -0.2044  0.1482 -0.4783
 8647TIP3    H247433   4.172   3.695  12.313  0.7022  0.9313 -2.3787
 8648TIP3   OH247434   0.746   4.655  13.668  0.3188 -0.1942 -0.6898
 8648TIP3    H147435   0.707   4.729  13.622 -2.4836 -1.1676 -0.1126
 8648TIP3    H247436   0.689   4.642  13.744  1.8136 -1.7985  0.2332
 8649TIP3   OH247437   4.287   0.023  10.644 -0.0429 -0.0028 -0.0440
 8649TIP3    H147438   4.234  -0.056  10.636  0.7180 -0.5981  0.5595
 8649TIP3    H247439   4.236   0.092  10.602 -0.3701 -0.9808 -1.2779
 8650TIP3   OH247440   2.144   5.261   4.976  0.1356 -0.1954  0.1998
 8650TIP3    H147441   2.202   5.187   4.991  0.4799 -0.1015 -0.6012
 8650TIP3    H247442   2.202   5.335   4.960 -0.1977  0.0151 -0.0669
 8651TIP3   OH247443   4.756   4.489  12.039  0.5757  0.2832 -0.2305
 8651TIP3    H147444   4.755   4.584  12.035 -0.0744  0.2698 -0.4447
 8651TIP3    H247445   4.671   4.462  12.006  1.3844 -0.4476 -1.8539
 8652TIP3   OH247446   1.419   2.974  12.431  0.1230 -0.1692  0.0376
 8652TIP3    H147447   1.359   3.047  12.444  0.5459  0.4985 -1.4380
 8652TIP3    H247448   1.372   2.898  12.463 -0.4046  0.7151  1.4556
 8653TIP3   OH247449   5.827   2.092  12.610  0.0403 -0.1750  0.0166
 8653TIP3    H147450   5.761   2.148  12.651  0.2996 -0.0170  0.2248
 8653TIP3    H247451   5.806   2.094  12.517  0.8608  1.4060 -0.1762
 8654TIP3   OH247452   5.529   2.499  14.349  0.0040  0.4328  0.0530
 8654TIP3    H147453   5.572   2.570  14.301  0.8176 -0.7695 -1.0700
 8654TIP3    H247454   5.596   2.467  14.409 -0.1067  0.1302  0.0171
 8655TIP3   OH247455   3.818   5.776  10.542  0.0905 -0.0808  0.2151
 8655TIP3    H147456   3.723   5.781  10.551 -0.2385 -2.6342 -0.8704
 8655TIP3    H247457   3.839   5.838  10.472 -0.7952  0.4042  0.3719
 8656TIP3   OH247458   2.045   2.849  16.077  0.2961 -0.0316 -0.8362
 8656TIP3    H147459   2.117   2.807  16.124  1.1469  0.4134 -1.7007
 8656TIP3    H247460   2.017   2.782  16.014 -0.9548 -0.6900  0.3642
 8657TIP3   OH247461   2.939   4.693   2.293 -0.2457 -0.6309 -0.7067
 8657TIP3    H147462   3.009   4.630   2.276  0.8270  0.8264 -1.9673
 8657TIP3    H247463   2.894   4.703   2.209 -1.6712 -1.1673 -0.0365
 8658TIP3   OH247464   3.864   4.177   1.754 -0.0332  0.0633 -0.2875
 8658TIP3    H147465   3.859   4.195   1.660  1.2604  1.5466 -0.0887
 8658TIP3    H247466   3.805   4.241   1.794  1.1966  0.9856  0.0794
 8659TIP3   OH247467   4.206   1.094   4.041  0.1109  0.2708 -0.4375
 8659TIP3    H147468   4.138   1.047   4.089 -1.0910  2.7683  0.5479
 8659TIP3    H247469   4.288   1.053   4.069 -0.6812  0.3067  2.2963
 8660TIP3   OH247470   2.591   6.061   3.955 -0.4115  0.1620 -0.1186
 8660TIP3    H147471   2.649   6.071   4.031 -0.9813 -0.2937  0.3861
 8660TIP3    H247472   2.596   5.968   3.933 -2.9596 -0.4999  1.6077
 8661TIP3   OH247473   3.245   0.713   1.811 -0.6228  0.2566 -0.0544
 8661TIP3    H147474   3.223   0.685   1.722  0.0622  0.1286 -0.1944
 8661TIP3    H247475   3.319   0.657   1.836 -1.5143 -0.4703  1.0267
 8662TIP3   OH247476   6.255   1.287   0.235 -0.5301 -0.3718  0.2081
 8662TIP3    H147477   6.186   1.269   0.172 -1.1980 -0.7046  1.0205
 8662TIP3    H247478   6.214   1.344   0.300  0.5629  1.2070 -0.4222
 8663TIP3   OH247479   5.949   5.002   9.965  0.1736  0.3762  0.0699
 8663TIP3    H147480   5.893   5.007  10.043 -1.8310 -1.5717 -1.1133
 8663TIP3    H247481   6.009   4.930   9.983  0.2615  0.4725  0.1571
 8664TIP3   OH247482   2.242   2.913   2.768 -0.0476  0.0343  0.4540
 8664TIP3    H147483   2.254   2.902   2.862  0.3232 -0.6120  0.3398
 8664TIP3    H247484   2.197   2.997   2.759  2.5785  1.6359  1.0665
 8665TIP3   OH247485   6.530   3.246  15.567  0.1271 -0.2874 -1.0594
 8665TIP3    H147486   6.572   3.330  15.585  0.8359 -1.1332  1.6990
 8665TIP3    H247487   6.600   3.181  15.579 -1.5072 -1.6318  2.4149
 8666TIP3   OH247488   6.862   5.891   5.015  0.6295  0.1663  0.0609
 8666TIP3    H147489   6.871   5.984   5.033 -0.0392  0.1246  0.6786
 8666TIP3    H247490   6.783   5.865   5.062 -0.2197 -0.3419 -1.5647
 8667TIP3   OH247491   5.506   2.386   3.995  0.3173 -0.3088  0.1369
 8667TIP3    H147492   5.564   2.310   4.000 -0.9591 -1.4206 -1.2043
 8667TIP3    H247493   5.419   2.350   3.983 -0.7489  1.3306  2.2987
 8668TIP3   OH247494   4.392   1.629  12.865  0.1415  0.0452 -0.3018
 8668TIP3    H147495   4.344   1.631  12.782 -0.3925 -0.2736 -0.0086
 8668TIP3    H247496   4.325   1.614  12.931  0.2586  2.4769  0.4453
 8669TIP3   OH247497   2.499   4.711  12.784  0.2554 -0.3120 -0.4787
 8669TIP3    H147498   2.513   4.658  12.863  0.3281 -0.1752 -0.3994
 8669TIP3    H247499   2.468   4.648  12.719 -1.4526 -0.1535  0.1346
 8670TIP3   OH247500   5.008   4.399  15.416  0.1628 -0.2595 -0.3069
 8670TIP3    H147501   5.073   4.336  15.448  1.5790  1.7694  1.0548
 8670TIP3    H247502   5.044   4.430  15.333 -0.4866 -1.1084 -0.9287
 8671TIP3   OH247503   3.024   4.560   5.773  0.4119 -0.2785 -0.5256
 8671TIP3    H147504   2.955   4.566   5.707 -1.5961 -0.9067  1.4039
 8671TIP3    H247505   3.074   4.482   5.749 -1.7109 -1.8572 -0.1170
 8672TIP3   OH247506   5.654   5.291  13.628 -0.1178 -0.0874  0.1743
 8672TIP3    H147507   5.579   5.315  13.574  0.0150 -1.3783 -0.6294
 8672TIP3    H247508   5.725   5.278  13.565  0.1082 -1.3745  0.6811
 8673TIP3   OH247509   0.551   3.065  16.456 -0.0165 -0.2841 -0.0008
 8673TIP3    H147510   0.487   3.136  16.467  0.6398  0.7961 -2.4797
 8673TIP3    H247511   0.511   2.990  16.499 -2.0299  0.8767  0.2779
 8674TIP3   OH247512   1.174   0.920   2.369  0.6236 -0.1626 -0.2919
 8674TIP3    H147513   1.112   0.907   2.441 -0.8341  0.0355 -1.4495
 8674TIP3    H247514   1.135   0.991   2.318  2.3611  0.6721 -0.5151
 8675TIP3   OH247515   0.777   1.587   4.739 -0.6844  0.1776  0.0003
 8675TIP3    H147516   0.765   1.604   4.832  1.2330 -1.4646  0.6145
 8675TIP3    H247517   0.804   1.495   4.734 -1.2216  0.0612 -2.2421
 8676TIP3   OH247518   6.070   2.648   4.606  0.1645 -0.0434 -0.0189
 8676TIP3    H147519   6.027   2.712   4.663 -0.3105 -0.9122  0.6180
 8676TIP3    H247520   6.111   2.586   4.666 -0.8464 -1.3091 -0.6029
 8677TIP3   OH247521   3.685   1.112   0.603  0.1016  0.1871 -0.1148
 8677TIP3    H147522   3.656   1.132   0.514 -1.1282  1.0768  0.4581
 8677TIP3    H247523   3.667   1.018   0.614  0.9429 -0.0979 -1.0301
 8678TIP3   OH247524   1.740   5.879  14.638 -0.1544  0.2685 -0.5265
 8678TIP3    H147525   1.813   5.826  14.608  0.6228  1.1911 -0.2940
 8678TIP3    H247526   1.690   5.820  14.695  2.6978  0.7544  2.7643
 8679TIP3   OH247527   4.931   6.744   0.902 -0.1144 -0.0307  0.3279
 8679TIP3    H147528   4.903   6.799   0.974  0.5648 -0.4876  0.9619
 8679TIP3    H247529   5.004   6.693   0.938 -0.6099 -1.2083 -0.2870
 8680TIP3   OH247530   5.231   6.009  12.665  0.2732 -0.4638 -0.0066
 8680TIP3    H147531   5.301   5.984  12.605  0.3363 -1.5056  0.4909
 8680TIP3    H247532   5.165   6.050  12.609  1.5753  1.2424 -0.3981
 8681TIP3   OH247533   3.621   3.802  13.589  0.0663  0.3375 -0.0628
 8681TIP3    H147534   3.575   3.720  13.605  1.0184 -0.0533  0.7851
 8681TIP3    H247535   3.706   3.776  13.555 -0.6577  1.0837 -2.7061
 8682TIP3   OH247536   3.755   1.179   5.445  0.1916  0.5063 -0.2281
 8682TIP3    H147537   3.663   1.154   5.437 -0.1795  1.2318  1.2924
 8682TIP3    H247538   3.752   1.265   5.488  1.6010 -0.1144  1.1902
 8683TIP3   OH247539   4.187   4.679   4.577  0.5760  0.1852  0.2713
 8683TIP3    H147540   4.140   4.746   4.528  0.7667  0.6961  0.7708
 8683TIP3    H247541   4.270   4.670   4.531 -0.3051 -1.3385 -1.1260
 8684TIP3   OH247542   1.302   6.615   2.522  0.2366  0.0016 -0.2476
 8684TIP3    H147543   1.212   6.642   2.505  0.0363 -0.6437 -0.2367
 8684TIP3    H247544   1.341   6.601   2.435  0.5689  1.0422 -0.2741
 8685TIP3   OH247545   2.362   1.245   5.732 -0.3704  0.2880  0.0760
 8685TIP3    H147546   2.393   1.253   5.822 -0.3976  1.0809  0.0171
 8685TIP3    H247547   2.267   1.254   5.739 -0.2092  2.8594 -0.2865
 8686TIP3   OH247548   1.315   2.709   2.897  0.4208  0.1983 -0.2101
 8686TIP3    H147549   1.369   2.675   2.825  0.5943  1.2238 -0.5827
 8686TIP3    H247550   1.225   2.690   2.871  0.5206 -0.1690 -0.2980
 8687TIP3   OH247551   1.263   3.386   4.478  0.2936 -0.0296  0.1113
 8687TIP3    H147552   1.343   3.345   4.445  0.3175  0.1001  0.0059
 8687TIP3    H247553   1.293   3.452   4.540  0.2273 -0.6167  0.7789
 8688TIP3   OH247554   1.975   5.758  12.925 -0.1248  0.3448 -0.0297
 8688TIP3    H147555   2.014   5.753  12.838  0.5988  1.1420  0.2353
 8688TIP3    H247556   1.991   5.672  12.964  1.4919  0.6768  0.1139
 8689TIP3   OH247557   4.147   1.692  15.412 -0.3490  0.2783 -0.0830
 8689TIP3    H147558   4.098   1.645  15.479  1.1458 -0.8400  0.3033
 8689TIP3    H247559   4.124   1.648  15.330  1.0770 -1.2977  0.2798
 8690TIP3   OH247560   3.466   1.990   2.853  0.4521 -0.4018 -0.1069
 8690TIP3    H147561   3.389   1.937   2.832  0.8892 -0.7674 -0.8235
 8690TIP3    H247562   3.461   2.064   2.792 -1.2710  1.5627  2.2126
 8691TIP3   OH247563   3.164   3.121   2.606  0.7859  0.6137 -0.0899
 8691TIP3    H147564   3.129   3.069   2.534  0.8540 -0.5824  0.7158
 8691TIP3    H247565   3.256   3.135   2.583  0.7908  0.3001 -0.2587
 8692TIP3   OH247566   0.631   5.517  14.430 -0.2833  0.2640  0.3235
 8692TIP3    H147567   0.626   5.437  14.377 -0.8108 -1.1078  2.3204
 8692TIP3    H247568   0.571   5.501  14.503  2.3440  0.8991  2.7957
 8693TIP3   OH247569   0.228   1.837   0.092 -0.1404  0.0224 -0.1988
 8693TIP3    H147570   0.137   1.842   0.123  0.0116  0.0779  0.2568
 8693TIP3    H247571   0.222   1.806   0.002 -0.6576  0.7272 -0.4147
 8694TIP3   OH247572   4.390   1.403  15.764 -0.0947  0.2749 -0.3584
 8694TIP3    H147573   4.375   1.370  15.675  2.6867  2.2669 -1.7257
 8694TIP3    H247574   4.324   1.470  15.776 -1.5920 -1.1616 -0.1451
 8695TIP3   OH247575   4.276   5.228   3.553  0.0638  0.5885  0.2353
 8695TIP3    H147576   4.342   5.226   3.483  1.3089  4.7384  1.0627
 8695TIP3    H247577   4.201   5.273   3.514 -1.0974 -1.1524  0.3243
 8696TIP3   OH247578   0.500   5.515   4.824  0.4096  0.5203  0.4660
 8696TIP3    H147579   0.513   5.601   4.784 -0.5992  0.1952 -0.6294
 8696TIP3    H247580   0.588   5.476   4.827  0.7827  1.3495  0.4222
 8697TIP3   OH247581   5.687   3.259  11.251  0.1339 -0.0447 -0.1487
 8697TIP3    H147582   5.733   3.203  11.314  0.2578 -0.3305 -0.4964
 8697TIP3    H247583   5.597   3.263  11.284  0.3345  0.2942  0.3809
 8698TIP3   OH247584   0.684   1.316  12.201  0.0223  0.3776  0.7149
 8698TIP3    H147585   0.616   1.327  12.267  0.5544 -1.4020  1.6286
 8698TIP3    H247586   0.763   1.353  12.241  0.3461 -0.7075  1.1143
 8699TIP3   OH247587   3.367   3.742  11.416 -0.3600  0.1467  0.0428
 8699TIP3    H147588   3.353   3.727  11.323 -2.2292  0.4296  0.2397
 8699TIP3    H247589   3.350   3.657  11.457  2.3396 -0.5067  0.0291
 8700TIP3   OH247590   3.976   4.835  13.375 -0.0273  0.0082  0.5498
 8700TIP3    H147591   4.006   4.746  13.391  0.1995  0.2852  1.7182
 8700TIP3    H247592   3.945   4.833  13.284 -0.6913 -1.4430  0.7759
 8701TIP3   OH247593   3.779   4.415  15.479 -0.0864  0.3102 -0.1691
 8701TIP3    H147594   3.771   4.499  15.525 -1.2365 -0.0267  0.2745
 8701TIP3    H247595   3.756   4.434  15.389  2.3676  1.0174 -0.7318
 8702TIP3   OH247596   0.357   1.766  11.446 -0.8296  0.4095 -0.2042
 8702TIP3    H147597   0.323   1.710  11.515 -1.0637  2.4709  1.4716
 8702TIP3    H247598   0.292   1.836  11.438 -0.9784  0.0378 -2.8104
 8703TIP3   OH247599   0.020   0.515  13.249 -0.1776  0.4980 -0.0526
 8703TIP3    H147600   0.080   0.589  13.237 -0.1479  0.3437 -0.9632
 8703TIP3    H247601  -0.049   0.529  13.184  1.7579 -2.1591 -2.9866
 8704TIP3   OH247602   1.167   3.889  12.088 -0.0470 -0.2627  0.0098
 8704TIP3    H147603   1.209   3.974  12.076 -0.8594  0.1818  0.1560
 8704TIP3    H247604   1.194   3.837  12.013 -0.3001  0.4567 -0.5985
 8705TIP3   OH247605   1.657   0.849   5.155 -0.2145 -0.1662 -0.5373
 8705TIP3    H147606   1.661   0.862   5.250  1.9992 -0.1811 -0.5717
 8705TIP3    H247607   1.564   0.842   5.135 -0.6810 -3.1909  2.0305
 8706TIP3   OH247608   2.082   3.591   4.198 -0.1374 -0.2320  0.0414
 8706TIP3    H147609   2.112   3.638   4.275  2.1454  1.1110 -1.5852
 8706TIP3    H247610   2.020   3.651   4.156  0.3130 -0.0397 -0.3431
 8707TIP3   OH247611   5.934   2.598  15.290  0.1471  0.2083 -0.0392
 8707TIP3    H147612   6.014   2.553  15.317 -0.2367 -1.6119 -1.7264
 8707TIP3    H247613   5.924   2.576  15.197 -0.9741  2.4869 -0.5264
 8708TIP3   OH247614   5.764   0.604   3.963 -0.5729 -0.0803 -0.1928
 8708TIP3    H147615   5.832   0.557   3.914 -1.3788 -0.2248 -1.2175
 8708TIP3    H247616   5.690   0.608   3.902 -0.9835  1.3524  0.3727
 8709TIP3   OH247617   2.754   3.097   5.789 -0.0383  0.9788  0.1226
 8709TIP3    H147618   2.722   3.181   5.820  0.0690  0.6511  1.1640
 8709TIP3    H247619   2.752   3.040   5.866 -0.1758  0.0014 -0.5678
 8710TIP3   OH247620   3.113   6.309   0.455 -0.0708 -0.3942 -0.4840
 8710TIP3    H147621   3.095   6.216   0.470 -2.6137  0.1043 -0.0286
 8710TIP3    H247622   3.079   6.353   0.532 -1.3114  1.1231 -1.8312
 8711TIP3   OH247623   3.626   3.109  12.468 -0.7179  0.5225 -0.2905
 8711TIP3    H147624   3.671   3.078  12.390  2.1341  0.5120  1.2250
 8711TIP3    H247625   3.569   3.036  12.493 -0.0810 -0.3162 -1.1858
 8712TIP3   OH247626   0.883   0.131  16.631  0.2171 -0.2996 -0.4314
 8712TIP3    H147627   0.955   0.082  16.591 -0.8977 -0.4443 -2.3758
 8712TIP3    H247628   0.813   0.067  16.642  0.5473 -0.3224  2.0807
 8713TIP3   OH247629   4.115   4.034   5.179 -0.4792  0.0215 -0.2401
 8713TIP3    H147630   4.162   4.099   5.126  0.2332  0.1961  0.5900
 8713TIP3    H247631   4.096   3.963   5.117  0.0526  0.3648 -0.8108
 8714TIP3   OH247632   2.544   0.419   5.857 -0.1635  0.3468 -0.4969
 8714TIP3    H147633   2.529   0.479   5.930 -0.3377  1.2170 -1.2217
 8714TIP3    H247634   2.620   0.367   5.883 -1.4782 -0.8382  1.2107
 8715TIP3   OH247635   5.568   0.342  11.573  0.0440  0.0057 -0.0034
 8715TIP3    H147636   5.507   0.347  11.498 -0.6586 -0.0217  0.5560
 8715TIP3    H247637   5.550   0.421  11.623 -0.7369 -0.8270  1.0715
 8716TIP3   OH247638   3.721   5.947   1.528  0.0010  0.1428  0.0214
 8716TIP3    H147639   3.675   6.026   1.554  1.2976  0.6810  0.7867
 8716TIP3    H247640   3.689   5.928   1.440 -0.2218  1.6124 -0.2329
 8717TIP3   OH247641   1.581   0.307  14.660 -0.3403 -0.0914  0.4283
 8717TIP3    H147642   1.534   0.231  14.694 -0.2937  0.3556  1.5583
 8717TIP3    H247643   1.537   0.382  14.701 -0.1634  0.4765 -0.3860
 8718TIP3   OH247644   6.578   1.968  10.761 -0.6576  0.1342  0.5285
 8718TIP3    H147645   6.548   1.964  10.670 -0.8074 -0.7706  0.6101
 8718TIP3    H247646   6.591   1.876  10.786 -0.1627  0.4005  1.2696
 8719TIP3   OH247647   3.679   5.654  12.815 -0.0721  0.4670  0.1783
 8719TIP3    H147648   3.727   5.736  12.825 -0.7577  0.7219  1.7334
 8719TIP3    H247649   3.745   5.590  12.790  1.2711  0.6403  2.9153
 8720TIP3   OH247650   0.353   2.642  11.365  0.6196 -0.6758 -0.4701
 8720TIP3    H147651   0.311   2.673  11.285  1.1130 -1.8769 -1.2219
 8720TIP3    H247652   0.443   2.623  11.339  0.7498 -1.2063  0.3420
 8721TIP3   OH247653   6.446   2.193  10.766 -0.4588  0.2409 -0.5210
 8721TIP3    H147654   6.496   2.118  10.796  0.9673  1.4998  0.4169
 8721TIP3    H247655   6.354   2.169  10.781  0.0052 -1.0047  0.4552
 8722TIP3   OH247656   5.817   3.083  11.833  0.4164  0.1256 -0.7185
 8722TIP3    H147657   5.739   3.134  11.811 -0.1155 -0.5457 -0.4292
 8722TIP3    H247658   5.818   3.082  11.929  1.0901  0.5844 -0.7141
 8723TIP3   OH247659   4.047   3.818   0.481 -0.4031 -0.1256  0.0231
 8723TIP3    H147660   3.980   3.798   0.416 -0.9691  0.8215  0.2876
 8723TIP3    H247661   4.020   3.769   0.559 -0.0341 -0.8140 -0.2755
 8724TIP3   OH247662   3.635   2.982   5.400 -0.1800  0.4957  0.5500
 8724TIP3    H147663   3.695   3.029   5.457  0.4833 -0.6410  0.8229
 8724TIP3    H247664   3.581   3.050   5.359  0.6106  1.4516  1.0817
 8725TIP3   OH247665   5.781   5.197  11.671 -0.6918 -0.2346 -0.4218
 8725TIP3    H147666   5.744   5.211  11.759  0.8754  0.8937  0.0999
 8725TIP3    H247667   5.874   5.215  11.681  0.2776 -3.9234 -1.4657
 8726TIP3   OH247668   2.197   1.538   1.984 -0.6807 -0.0977  1.1090
 8726TIP3    H147669   2.104   1.524   2.002 -0.9520  0.3928  0.1469
 8726TIP3    H247670   2.206   1.632   1.971 -0.3067 -0.2860 -0.1353
 8727TIP3   OH247671   0.472   2.961  10.961  0.2966 -0.3387 -0.4793
 8727TIP3    H147672   0.500   3.051  10.948 -1.5707  0.1120 -1.8113
 8727TIP3    H247673   0.541   2.908  10.922  1.0035  0.5540 -0.4650
 8728TIP3   OH247674   3.548   6.494   2.538 -0.3054 -0.7225 -0.7483
 8728TIP3    H147675   3.565   6.429   2.471 -2.6329 -0.2269 -1.9283
 8728TIP3    H247676   3.537   6.443   2.619 -1.3632 -1.7600 -1.5080
 8729TIP3   OH247677   5.509   5.652  12.717 -0.0337 -0.0249  0.0394
 8729TIP3    H147678   5.452   5.723  12.687  2.2807  1.8015 -0.2929
 8729TIP3    H247679   5.543   5.613  12.636 -1.3434 -1.6798  0.2129
 8730TIP3   OH247680   4.739   4.337   2.048 -0.1616  0.1516  0.4095
 8730TIP3    H147681   4.644   4.349   2.043  0.0054  1.2167 -0.6092
 8730TIP3    H247682   4.772   4.419   2.085  0.4703  0.3229 -0.5113
 8731TIP3   OH247683   2.905   1.501   6.018  0.4981  0.0342 -0.1620
 8731TIP3    H147684   2.997   1.476   6.018 -0.0087 -2.1224  0.6954
 8731TIP3    H247685   2.870   1.463   6.099 -1.5980 -1.1323 -1.5060
 8732TIP3   OH247686   3.334   6.163  12.466 -0.2360  0.1388  0.5157
 8732TIP3    H147687   3.273   6.210  12.408  1.2227  0.2074 -1.0455
 8732TIP3    H247688   3.335   6.074  12.431  0.8471  0.2441  0.2430
 8733TIP3   OH247689   3.483   1.245   2.599 -0.3314 -0.4643 -0.3130
 8733TIP3    H147690   3.396   1.243   2.559 -1.3221 -2.7466  1.7171
 8733TIP3    H247691   3.501   1.338   2.613 -2.2160  0.0854 -1.2421
 8734TIP3   OH247692   4.923   6.113  13.372 -0.1999 -0.1017  0.1296
 8734TIP3    H147693   4.913   6.129  13.278 -2.2240 -1.2379  0.0881
 8734TIP3    H247694   4.841   6.143  13.410  0.5466  0.2194  1.5371
 8735TIP3   OH247695   0.723   5.118  11.646  0.1757  0.4567 -0.0897
 8735TIP3    H147696   0.773   5.037  11.655  0.7031  0.9526  1.9344
 8735TIP3    H247697   0.647   5.107  11.703 -0.6652  0.7394 -1.1237
 8736TIP3   OH247698   5.001   1.110   1.830  0.1485  0.0075  0.5583
 8736TIP3    H147699   5.032   1.029   1.789  0.1654  0.4871 -0.4173
 8736TIP3    H247700   4.909   1.116   1.803 -0.0255 -0.0021  1.1446
 8737TIP3   OH247701   2.345   2.902   4.200  0.5930  0.2772  0.1857
 8737TIP3    H147702   2.411   2.928   4.264  0.1507  0.8331  0.4217
 8737TIP3    H247703   2.271   2.871   4.252  0.5831 -0.1444 -0.0739
 8738TIP3   OH247704   5.134   6.421  14.815  0.6347 -0.5487  0.2746
 8738TIP3    H147705   5.094   6.355  14.758 -0.0003  1.2963 -1.5177
 8738TIP3    H247706   5.091   6.408  14.899 -0.2505 -1.7120 -0.3188
 8739TIP3   OH247707   4.735   5.193   0.440  0.5489  0.3420 -0.2624
 8739TIP3    H147708   4.703   5.177   0.529  1.4958  0.5319  0.1316
 8739TIP3    H247709   4.825   5.224   0.453  1.6171 -1.9902 -1.3738
 8740TIP3   OH247710   1.626   4.300   5.175  0.4150  0.0658 -0.4756
 8740TIP3    H147711   1.594   4.214   5.148 -0.4254  0.1803  0.0833
 8740TIP3    H247712   1.574   4.320   5.254  0.1838  1.3302 -0.9294
 8741TIP3   OH247713   2.949   5.680  14.962  0.0788 -0.3147 -0.8202
 8741TIP3    H147714   2.977   5.606  15.016 -0.3634 -0.2950 -0.5592
 8741TIP3    H247715   3.029   5.708  14.917  1.1700  1.3976  1.8674
 8742TIP3   OH247716   5.175   0.431   4.312 -0.5951  0.3322 -0.6998
 8742TIP3    H147717   5.091   0.460   4.348  0.0247  1.2045  0.0878
 8742TIP3    H247718   5.161   0.339   4.288 -1.4981  0.2046  0.2744
 8743TIP3   OH247719   0.980   3.092  10.963 -0.2062  0.0184  0.3924
 8743TIP3    H147720   0.930   3.087  11.045 -1.8683  0.5662 -0.5566
 8743TIP3    H247721   0.998   3.000  10.941 -0.0429 -0.1468  1.1826
 8744TIP3   OH247722   6.734   4.390   3.224  0.1286 -0.0716 -0.5463
 8744TIP3    H147723   6.797   4.357   3.288  0.0618  0.3063 -0.2819
 8744TIP3    H247724   6.787   4.441   3.163 -0.0198  1.0079  0.1870
 8745TIP3   OH247725   1.925   2.021  12.651 -0.0115 -0.4115  0.0643
 8745TIP3    H147726   1.873   1.944  12.674  0.5211 -0.7287  0.2337
 8745TIP3    H247727   1.897   2.088  12.714 -1.2416 -0.1206 -0.7540
 8746TIP3   OH247728   0.391   4.380  15.825  0.2355  0.0031 -0.0152
 8746TIP3    H147729   0.403   4.358  15.918 -0.6086  1.3237  0.4371
 8746TIP3    H247730   0.296   4.394  15.816  0.5134  1.5841 -0.6719
 8747TIP3   OH247731   5.275   5.740   3.560 -0.3867  0.0783  0.4034
 8747TIP3    H147732   5.211   5.701   3.619  0.2400 -1.1926  0.2819
 8747TIP3    H247733   5.233   5.737   3.474 -0.1989 -0.7031  0.3328
 8748TIP3   OH247734   5.242   4.162   0.104  0.8974 -0.7726 -0.5999
 8748TIP3    H147735   5.257   4.100   0.033  2.3330  0.6867 -1.6326
 8748TIP3    H247736   5.252   4.248   0.064  0.0372  0.1451  1.0220
 8749TIP3   OH247737   2.325   5.334   1.854 -0.0405 -0.3985  0.3595
 8749TIP3    H147738   2.254   5.391   1.886  0.8825  1.1563 -0.2618
 8749TIP3    H247739   2.369   5.304   1.933  0.5467  1.2211  0.6938
 8750TIP3   OH247740   0.304   1.599  16.756 -0.7022 -0.2839 -0.2968
 8750TIP3    H147741   0.210   1.587  16.771 -1.1019 -1.0649 -2.8688
 8750TIP3    H247742   0.345   1.520  16.792 -1.3673 -1.1874 -1.4435
 8751TIP3   OH247743   6.239   2.141  15.505 -0.1027  0.0805  0.0581
 8751TIP3    H147744   6.162   2.102  15.545 -0.1154 -0.2121 -0.2435
 8751TIP3    H247745   6.221   2.138  15.411 -0.3749  1.3817  0.0456
 8752TIP3   OH247746   2.073   4.696  11.819 -0.7730 -0.3155 -0.4820
 8752TIP3    H147747   2.025   4.778  11.825 -1.8517 -0.9979  0.6071
 8752TIP3    H247748   2.165   4.722  11.815 -1.0249  0.9139  0.9951
 8753TIP3   OH247749   3.049   0.580   6.323  0.4492 -0.0890  0.1085
 8753TIP3    H147750   2.995   0.639   6.269 -0.5592  1.0509  2.2448
 8753TIP3    H247751   3.130   0.571   6.273 -0.5205  0.6718 -1.7308
 8754TIP3   OH247752   3.462   3.220   5.349 -0.0590 -0.4552  0.3538
 8754TIP3    H147753   3.428   3.181   5.430  2.7997  0.4811  2.1429
 8754TIP3    H247754   3.426   3.309   5.349 -0.4339 -0.6057  0.3508
 8755TIP3   OH247755   1.496   4.178   5.878  0.3632  0.0793 -0.2550
 8755TIP3    H147756   1.567   4.199   5.938 -0.9205 -1.5767  2.0006
 8755TIP3    H247757   1.448   4.260   5.868  1.5266  0.7600 -0.3133
 8756TIP3   OH247758   1.838   0.254   4.073 -0.0728 -0.1088  0.3081
 8756TIP3    H147759   1.924   0.229   4.106 -0.1943  0.0132  0.7139
 8756TIP3    H247760   1.837   0.222   3.982  1.0930  1.4625 -0.3026
 8757TIP3   OH247761   6.025   2.733  14.847  0.8817  0.0644  0.3743
 8757TIP3    H147762   6.110   2.711  14.885  2.0135  1.7478 -1.0167
 8757TIP3    H247763   6.025   2.690  14.762  0.8373  0.9868 -0.1041
 8758TIP3   OH247764   6.265   0.322  12.776 -0.3217  0.6466 -0.2794
 8758TIP3    H147765   6.289   0.302  12.866  0.8549 -1.1332 -0.9410
 8758TIP3    H247766   6.192   0.264  12.757  0.4459 -0.1215 -0.9407
 8759TIP3   OH247767   2.020   3.316  11.587 -0.6447  0.4952  0.1951
 8759TIP3    H147768   1.939   3.266  11.596  0.4342 -1.5539 -0.7787
 8759TIP3    H247769   2.017   3.351  11.497 -0.4980  0.5208  0.2000
 8760TIP3   OH247770   4.057   1.316  15.791  0.8841  0.1897 -0.0126
 8760TIP3    H147771   3.975   1.330  15.839  0.9033 -1.9250  0.7508
 8760TIP3    H247772   4.042   1.358  15.706 -1.4799 -1.0810 -0.3229
 8761TIP3   OH247773   0.209   2.789   1.506  0.2666 -0.8077 -0.5496
 8761TIP3    H147774   0.144   2.721   1.526  0.5253 -0.8220  0.3051
 8761TIP3    H247775   0.191   2.859   1.569  0.8153 -0.6380 -0.5732
 8762TIP3   OH247776   5.555   6.193   3.470 -0.4147  0.0507 -0.3827
 8762TIP3    H147777   5.555   6.281   3.433 -1.5144 -0.0450 -0.6378
 8762TIP3    H247778   5.469   6.158   3.449  0.0159 -1.1005 -0.3002
 8763TIP3   OH247779   4.521   2.181   1.840 -0.1444  0.0676 -0.2959
 8763TIP3    H147780   4.433   2.213   1.823 -0.0426  0.6864  0.2986
 8763TIP3    H247781   4.579   2.253   1.816  0.1730 -0.1500 -0.2068
 8764TIP3   OH247782   3.165   1.991   4.488  0.3099 -0.1757  0.0322
 8764TIP3    H147783   3.195   1.905   4.459  1.8393  0.6322 -0.8865
 8764TIP3    H247784   3.152   2.041   4.408 -0.1962  0.5870  0.5706
 8765TIP3   OH247785   4.570   3.771   4.705  0.0991  0.0359 -0.2738
 8765TIP3    H147786   4.571   3.788   4.611 -2.3960  0.2950 -0.3274
 8765TIP3    H247787   4.636   3.830   4.741  1.1808 -0.1573 -1.8423
 8766TIP3   OH247788   3.461   3.310   3.162  0.4213 -0.3032  0.3412
 8766TIP3    H147789   3.431   3.220   3.151  0.3316 -0.1793 -0.5004
 8766TIP3    H247790   3.381   3.361   3.173  0.3357 -0.0607 -1.2479
 8767TIP3   OH247791   5.168   3.284  12.265 -0.1489  0.0856 -0.3624
 8767TIP3    H147792   5.225   3.274  12.341 -0.3385  2.4748  0.1839
 8767TIP3    H247793   5.151   3.378  12.261 -2.0742 -0.2725 -1.9648
 8768TIP3   OH247794   6.745   6.354  15.097 -0.6480  0.0453 -0.3312
 8768TIP3    H147795   6.748   6.343  15.192 -0.5953  1.7229 -0.1070
 8768TIP3    H247796   6.665   6.309  15.070 -1.6149  1.0487  0.7694
 8769TIP3   OH247797   2.817   3.480   5.701  0.3151  0.0737  0.1524
 8769TIP3    H147798   2.831   3.563   5.655 -1.5576 -0.0560 -0.7272
 8769TIP3    H247799   2.860   3.414   5.647 -0.8287  0.0879 -0.8124
 8770TIP3   OH247800   2.480   1.539  15.983 -0.0081  0.0594  0.4528
 8770TIP3    H147801   2.401   1.509  16.028  0.5983 -0.7773  0.9713
 8770TIP3    H247802   2.485   1.632  16.004 -1.2213  0.2867 -0.1380
 8771TIP3   OH247803   2.656   3.677  14.244 -0.1448  0.3899  0.3683
 8771TIP3    H147804   2.618   3.597  14.208  2.3809 -0.1763 -1.2400
 8771TIP3    H247805   2.580   3.730  14.268 -1.8967 -1.9876  0.4228
 8772TIP3   OH247806   0.237   2.567  16.085 -0.1210 -1.0929 -0.3226
 8772TIP3    H147807   0.151   2.550  16.124  0.0824  2.5071  2.2048
 8772TIP3    H247808   0.227   2.652  16.042  1.6002 -1.7504 -2.1712
 8773TIP3   OH247809   2.860   2.476   0.113  0.0639  0.5511 -0.2524
 8773TIP3    H147810   2.772   2.445   0.134  0.4031  0.8678  1.8890
 8773TIP3    H247811   2.912   2.396   0.105 -0.2640  0.3884 -0.7879
 8774TIP3   OH247812   3.782   5.658   2.696  0.3569  0.4533  0.5611
 8774TIP3    H147813   3.807   5.623   2.781  1.2179 -0.2205  0.0420
 8774TIP3    H247814   3.840   5.614   2.633  0.5798  1.8404 -0.2493
 8775TIP3   OH247815   1.755   6.592  12.053  0.0186 -0.2152 -0.0407
 8775TIP3    H147816   1.714   6.547  11.979 -0.4042 -1.1537  0.7378
 8775TIP3    H247817   1.840   6.549  12.063 -0.9687 -1.9640  1.6287
 8776TIP3   OH247818   1.608   5.906  12.533  0.4908  0.1618  0.3569
 8776TIP3    H147819   1.586   5.948  12.450  0.5086  0.0302  0.2834
 8776TIP3    H247820   1.693   5.863  12.516 -0.0108 -0.7632  0.1086
 8777TIP3   OH247821   3.859   0.239   0.947  0.1479  0.6412 -0.1805
 8777TIP3    H147822   3.880   0.332   0.960  0.6322  0.3969  0.8910
 8777TIP3    H247823   3.939   0.202   0.910  1.3521 -0.0608  2.8457
 8778TIP3   OH247824   4.911   0.090  12.045 -0.2908  0.0888  0.5139
 8778TIP3    H147825   4.830   0.121  12.087 -0.3720  0.1649  0.3008
 8778TIP3    H247826   4.977   0.095  12.114 -1.0068 -2.5240  1.5149
 8779TIP3   OH247827   1.159   3.420  15.286 -0.1660  0.0010 -0.0532
 8779TIP3    H147828   1.094   3.463  15.342  0.3307 -0.2901  0.7568
 8779TIP3    H247829   1.150   3.327  15.306  0.1609 -0.0876 -0.3090
 8780TIP3   OH247830   5.613   5.021  14.755  0.2097 -0.2970 -0.1839
 8780TIP3    H147831   5.522   5.048  14.767  0.8790  0.5606  4.8426
 8780TIP3    H247832   5.628   5.031  14.661 -4.2530  1.4332 -0.9563
 8781TIP3   OH247833   3.557   2.844  12.549 -0.3145  0.5838  0.0950
 8781TIP3    H147834   3.489   2.777  12.546 -0.2306  0.5023  0.0393
 8781TIP3    H247835   3.634   2.800  12.583  0.1491  0.2976 -1.2624
 8782TIP3   OH247836   1.466   2.118  15.952 -0.0560 -0.3297  0.4201
 8782TIP3    H147837   1.389   2.069  15.922  0.4415 -0.7905 -0.1095
 8782TIP3    H247838   1.520   2.130  15.874  0.8543 -0.8215  0.9560
 8783TIP3   OH247839   2.470   2.559  11.196 -0.0918  0.7776 -0.1371
 8783TIP3    H147840   2.533   2.606  11.142  0.4438 -0.2016 -0.3902
 8783TIP3    H247841   2.403   2.529  11.134 -0.2374  0.8967 -0.0369
 8784TIP3   OH247842   6.857   2.478  16.869 -0.5442  0.3158  0.6216
 8784TIP3    H147843   6.842   2.502  16.960 -0.0845 -0.5913  0.9462
 8784TIP3    H247844   6.936   2.423  16.871  0.7269  1.9748 -0.5767
 8785TIP3   OH247845   6.080   1.123   3.812 -0.1728  0.2557  0.1052
 8785TIP3    H147846   6.173   1.126   3.833 -0.3342  2.8559  0.8853
 8785TIP3    H247847   6.037   1.146   3.895 -1.3821  1.0082 -0.7045
 8786TIP3   OH247848   1.250   2.338  14.769 -0.0928 -0.0638 -0.4639
 8786TIP3    H147849   1.337   2.321  14.734  0.0919 -1.0237  0.3984
 8786TIP3    H247850   1.191   2.286  14.715  0.0704 -0.7376  0.0016
 8787TIP3   OH247851   4.600   6.837  10.146 -0.4725  0.1507 -0.6396
 8787TIP3    H147852   4.512   6.821  10.112 -0.9649  0.0176  0.6352
 8787TIP3    H247853   4.596   6.810  10.238  0.9848 -0.1285 -0.6264
 8788TIP3   OH247854   5.239   6.578   3.816 -0.0414 -0.2922  0.2411
 8788TIP3    H147855   5.156   6.625   3.810 -0.2733 -0.8482 -1.7595
 8788TIP3    H247856   5.305   6.644   3.791  0.1063  0.0766  1.5640
 8789TIP3   OH247857   0.261   3.606  13.957 -0.5234 -0.4733  0.1305
 8789TIP3    H147858   0.216   3.676  13.910 -2.6632 -2.1220 -0.4590
 8789TIP3    H247859   0.331   3.579  13.898 -1.6681 -0.9049 -1.0759
 8790TIP3   OH247860   3.568   3.790  16.810  0.2037  0.7002  0.1253
 8790TIP3    H147861   3.587   3.717  16.751  0.4014 -0.1249  1.1850
 8790TIP3    H247862   3.526   3.856  16.754 -1.6013 -0.9101 -0.5513
 8791TIP3   OH247863   4.984   4.270  14.044  0.0964 -0.4693 -0.2606
 8791TIP3    H147864   4.966   4.279  14.137  0.7102 -0.2442 -0.1577
 8791TIP3    H247865   5.075   4.299  14.034  0.4696 -1.7345 -0.7338
 8792TIP3   OH247866   4.960   0.068   2.483 -0.3306 -0.2805 -0.9807
 8792TIP3    H147867   5.032   0.118   2.521 -0.8031  0.6685 -1.2846
 8792TIP3    H247868   4.979  -0.023   2.505 -0.4055  0.1786  1.2397
 8793TIP3   OH247869   1.665   1.215   4.550  0.7685 -0.3725  0.1185
 8793TIP3    H147870   1.677   1.308   4.531  0.3642 -0.2700  0.3643
 8793TIP3    H247871   1.693   1.170   4.470  1.2630 -0.0584  0.1094
 8794TIP3   OH247872   0.562   5.271   1.737 -0.0856  0.5672 -0.6451
 8794TIP3    H147873   0.555   5.363   1.709  2.5707  0.8043 -0.7991
 8794TIP3    H247874   0.578   5.223   1.655  1.1140  0.3569 -0.3080
 8795TIP3   OH247875   2.403   3.027  16.797 -0.1435  0.1597 -0.5728
 8795TIP3    H147876   2.339   2.987  16.738 -0.4034 -1.5125  0.7606
 8795TIP3    H247877   2.404   3.120  16.772 -2.8562  0.1910 -0.8397
 8796TIP3   OH247878   2.585   6.077  11.042 -0.2280  0.8477  0.1951
 8796TIP3    H147879   2.526   6.040  10.976 -0.3511  0.0387  0.7358
 8796TIP3    H247880   2.552   6.041  11.125  0.6404  0.8940  0.5648
 8797TIP3   OH247881   6.620   5.488   2.939  0.1282  0.1782 -0.1217
 8797TIP3    H147882   6.555   5.418   2.943  0.4368 -0.0858  0.2660
 8797TIP3    H247883   6.643   5.494   2.846  1.4117 -1.4492  0.0468
 8798TIP3   OH247884   0.669   4.604  11.958  0.3196  1.0167  0.0389
 8798TIP3    H147885   0.690   4.679  12.013  0.2816  1.7769 -0.9622
 8798TIP3    H247886   0.724   4.615  11.880  0.8166 -0.3572  0.1704
 8799TIP3   OH247887   3.445   0.890   0.037 -0.0633  0.0385 -0.1203
 8799TIP3    H147888   3.374   0.939   0.077  0.8559  0.6499  0.8153
 8799TIP3    H247889   3.402   0.818  -0.009 -1.2607  0.2883  0.5742
 8800TIP3   OH247890   6.156   1.870  16.731 -0.5305  0.5195  0.4867
 8800TIP3    H147891   6.252   1.864  16.734 -0.6230 -1.5201  0.9030
 8800TIP3    H247892   6.135   1.941  16.792  0.7727  2.5042 -1.2412
 8801TIP3   OH247893   5.092   2.688   0.230 -0.2352 -0.9165  0.6619
 8801TIP3    H147894   5.145   2.613   0.256 -0.0954 -0.6896  1.0420
 8801TIP3    H247895   5.154   2.759   0.219 -0.3515 -0.8935  0.1563
 8802TIP3   OH247896   3.687   4.656   5.379 -0.0085  0.1440 -0.2733
 8802TIP3    H147897   3.759   4.599   5.405 -0.9678 -1.1361 -0.3446
 8802TIP3    H247898   3.726   4.719   5.318  1.2250  0.0689  0.4109
 8803TIP3   OH247899   5.426   5.380  13.468 -0.0505 -0.2162 -0.3290
 8803TIP3    H147900   5.457   5.438  13.398 -0.0493 -0.2405 -0.3486
 8803TIP3    H247901   5.343   5.346  13.436  0.7033 -1.4697 -1.0259
 8804TIP3   OH247902   2.571   0.457  13.178 -0.1464  0.1458 -0.5164
 8804TIP3    H147903   2.656   0.437  13.138  0.3996 -0.9696  1.1145
 8804TIP3    H247904   2.590   0.525  13.243 -0.7458  0.7738 -0.9754
 8805TIP3   OH247905   0.035   1.581  16.777  0.2112  0.5158 -0.0182
 8805TIP3    H147906  -0.047   1.544  16.742  0.6726 -0.1572 -0.4022
 8805TIP3    H247907   0.008   1.665  16.815 -0.7323  0.1239  0.2239
 8806TIP3   OH247908   2.763   4.568   5.583 -0.6376 -0.3304  0.0978
 8806TIP3    H147909   2.799   4.486   5.550  0.6458 -0.7462  2.3379
 8806TIP3    H247910   2.704   4.598   5.514 -0.5442 -2.7252 -1.1107
 8807TIP3   OH247911   2.695   0.643  15.775 -0.2637  0.4848  0.0420
 8807TIP3    H147912   2.748   0.601  15.707  0.2734  0.4370  0.4860
 8807TIP3    H247913   2.740   0.725  15.794 -0.9803  0.9905 -0.3843
 8808TIP3   OH247914   0.872   2.816  16.185  0.0431  0.3034 -0.2522
 8808TIP3    H147915   0.943   2.840  16.244  1.0384  1.2046 -1.7258
 8808TIP3    H247916   0.895   2.728  16.155  0.0750  0.2463 -0.0628
 8809TIP3   OH247917   1.493   0.905   0.496  0.8104  0.2314 -0.2625
 8809TIP3    H147918   1.446   0.985   0.474  2.0809  1.1447  0.2726
 8809TIP3    H247919   1.468   0.843   0.427  1.7556  1.8575 -2.1761
 8810TIP3   OH247920   1.288   6.613  12.276  0.6818 -0.1023  0.0082
 8810TIP3    H147921   1.376   6.643  12.251  0.0732  0.9704 -0.9511
 8810TIP3    H247922   1.232   6.642  12.204 -0.5818 -0.1104  0.9630
 8811TIP3   OH247923   0.059   6.744   0.585 -0.5646  0.1396  0.5224
 8811TIP3    H147924   0.105   6.682   0.529 -0.7731  0.4643 -0.0222
 8811TIP3    H247925  -0.015   6.774   0.531 -0.7095  0.5310  0.9355
 8812TIP3   OH247926   0.394   0.353  13.026  0.2969  0.2775 -0.0960
 8812TIP3    H147927   0.457   0.389  12.964 -0.1241 -1.6461 -1.7395
 8812TIP3    H247928   0.434   0.272  13.058 -0.6748 -0.1791  0.0105
 8813TIP3   OH247929   2.157   4.756  12.384 -0.2708 -0.4639 -0.6386
 8813TIP3    H147930   2.245   4.719  12.399 -0.2317  0.4089  1.5416
 8813TIP3    H247931   2.168   4.810  12.305  0.5192 -2.2184 -1.8217
 8814TIP3   OH247932   2.612   2.020  14.931  0.2147  1.2322  0.9501
 8814TIP3    H147933   2.605   1.931  14.897  0.3746  1.3069  0.7207
 8814TIP3    H247934   2.523   2.055  14.926  0.4387  1.6687 -0.5555
 8815TIP3   OH247935   5.605   2.246  11.464  0.1860 -0.6877  0.1437
 8815TIP3    H147936   5.572   2.269  11.377 -0.1827  0.2638  0.5207
 8815TIP3    H247937   5.684   2.299  11.474 -0.1269 -0.3075  0.6375
 8816TIP3   OH247938   2.166   3.499   4.746 -0.1292 -0.1149 -0.5950
 8816TIP3    H147939   2.100   3.494   4.815  0.2596  2.7438  0.0881
 8816TIP3    H247940   2.134   3.566   4.686  1.4888  0.3709 -0.9776
 8817TIP3   OH247941   6.199   2.930  11.209  1.4122 -0.1620  0.5808
 8817TIP3    H147942   6.198   2.973  11.295  2.1880  1.6169 -0.2559
 8817TIP3    H247943   6.291   2.932  11.183  0.9273  1.2526 -1.1918
 8818TIP3   OH247944   5.833   4.820   0.015  0.4158 -0.4954  0.3974
 8818TIP3    H147945   5.902   4.760   0.042  0.1843 -0.7989  0.3271
 8818TIP3    H247946   5.873   4.874  -0.053 -0.2029 -2.5853 -1.7793
 8819TIP3   OH247947   2.912   3.028   4.199  0.4463  0.4123 -0.2524
 8819TIP3    H147948   2.930   2.949   4.148  0.9650 -0.1108  0.7122
 8819TIP3    H247949   2.820   3.021   4.222  0.4027  0.2623 -0.4655
 8820TIP3   OH247950   5.161   2.586   4.046  0.1082  0.0622  0.1536
 8820TIP3    H147951   5.073   2.551   4.029 -0.3777  1.8652 -1.3133
 8820TIP3    H247952   5.206   2.581   3.962  1.2717 -0.3520  0.7690
 8821TIP3   OH247953   5.970   4.849   2.023  0.1101 -0.3786  0.0374
 8821TIP3    H147954   5.889   4.898   2.017  0.8745  1.0468  0.7510
 8821TIP3    H247955   6.026   4.886   1.955  1.0017  0.4047  1.1491
 8822TIP3   OH247956   4.405   5.561  11.382  0.4736  0.4831  1.1245
 8822TIP3    H147957   4.345   5.500  11.340  1.3564 -0.0318  0.5656
 8822TIP3    H247958   4.416   5.527  11.471  1.4164 -0.5517  0.6432
 8823TIP3   OH247959   4.442   2.358  15.550 -0.0219 -0.0275 -0.0392
 8823TIP3    H147960   4.364   2.359  15.606  0.0209 -0.7437  0.0461
 8823TIP3    H247961   4.510   2.318  15.604  0.7647  1.7349  0.3213
 8824TIP3   OH247962   5.979   3.238  15.247 -0.4277 -0.6342  0.4353
 8824TIP3    H147963   6.012   3.172  15.308 -1.8924 -0.6481  1.2641
 8824TIP3    H247964   5.919   3.190  15.190  0.9660 -0.6381 -1.1360
 8825TIP3   OH247965   5.311   4.813   2.936 -0.5644  0.1685 -0.0184
 8825TIP3    H147966   5.290   4.741   2.877 -0.2054  0.0642 -0.0201
 8825TIP3    H247967   5.289   4.892   2.887 -0.1427  0.0878 -0.3396
 8826TIP3   OH247968   4.699   3.642   4.992 -0.3710 -0.7023  0.0576
 8826TIP3    H147969   4.635   3.674   5.057  0.7174  0.8675  0.4066
 8826TIP3    H247970   4.783   3.649   5.037  0.4011  0.3912 -1.5046
 8827TIP3   OH247971   3.636   2.627  12.013 -0.2130 -0.5985 -0.1990
 8827TIP3    H147972   3.626   2.545  11.963 -0.8138  0.6144 -2.2144
 8827TIP3    H247973   3.731   2.642  12.015 -0.1910 -0.4807 -1.3674
 8828TIP3   OH247974   4.696   6.067  10.626  0.0602 -0.3285  0.0900
 8828TIP3    H147975   4.712   6.132  10.558  0.2621  0.7065  1.1010
 8828TIP3    H247976   4.774   6.011  10.625  1.2089  1.1824  1.0894
 8829TIP3   OH247977   6.171   3.297  14.063 -0.0515 -0.1710  0.5351
 8829TIP3    H147978   6.234   3.369  14.072  0.0970 -0.2707  0.3109
 8829TIP3    H247979   6.171   3.254  14.148  1.4206 -1.1688  0.0737
 8830TIP3   OH247980   3.848   6.449   2.162  0.0908  0.1163  0.0595
 8830TIP3    H147981   3.933   6.453   2.207 -0.6027  3.3020  1.4252
 8830TIP3    H247982   3.867   6.478   2.073  0.2649  3.0958  0.9478
 8831TIP3   OH247983   4.298   2.575   1.464 -0.0211  0.2340 -0.2722
 8831TIP3    H147984   4.282   2.641   1.397  2.0331  0.7323 -0.3419
 8831TIP3    H247985   4.229   2.590   1.529  0.7680  2.9322  0.0529
 8832TIP3   OH247986   2.761   6.743  12.517  0.0881 -0.4256 -0.3885
 8832TIP3    H147987   2.731   6.752  12.608 -0.6203  1.4769 -0.7646
 8832TIP3    H247988   2.680   6.736  12.466  0.4831 -2.3264 -0.8595
 8833TIP3   OH247989   0.300   1.572   0.991  0.0046 -0.7147  0.0308
 8833TIP3    H147990   0.303   1.523   0.909  0.1968 -0.4860 -0.1003
 8833TIP3    H247991   0.345   1.517   1.055  0.1265 -0.7555 -0.0910
 8834TIP3   OH247992   6.412   3.896  14.846  0.3136 -0.0909 -0.1402
 8834TIP3    H147993   6.410   3.808  14.884 -0.5996 -0.3056 -0.6610
 8834TIP3    H247994   6.416   3.955  14.921  1.0426 -0.5649  0.2132
 8835TIP3   OH247995   2.032   6.844   4.960  0.8355 -0.5182  0.3364
 8835TIP3    H147996   2.050   6.908   5.028  0.7373 -1.1546  0.9692
 8835TIP3    H247997   2.043   6.892   4.878  0.5967  0.3460  0.8029
 8836TIP3   OH247998   1.216   0.925   1.013  0.4066  0.5902 -0.1312
 8836TIP3    H147999   1.128   0.956   0.990  0.4883  0.9624  0.0530
 8836TIP3    H248000   1.230   0.956   1.102 -0.4256 -1.9544  0.9754
 8837TIP3   OH248001   4.104   0.556  16.838  0.0089 -0.2139 -0.0995
 8837TIP3    H148002   4.105   0.488  16.906  2.1602 -1.2729 -1.0930
 8837TIP3    H248003   4.142   0.514  16.761  0.0910  1.7163 -1.1806
 8838TIP3   OH248004   6.853   3.498   1.344  0.1557 -0.0031 -0.4052
 8838TIP3    H148005   6.916   3.436   1.306 -1.5367 -1.6948 -0.5995
 8838TIP3    H248006   6.907   3.559   1.394  1.9974 -1.0057 -1.0652
 8839TIP3   OH248007   5.451   0.274  13.544 -0.1989  0.8711  0.5763
 8839TIP3    H148008   5.510   0.200  13.553 -0.9756  0.2009  0.2077
 8839TIP3    H248009   5.463   0.304  13.454 -1.0399  0.1869  0.2234
 8840TIP3   OH248010   5.226   3.454  16.380  0.1874  0.1855 -0.0273
 8840TIP3    H148011   5.243   3.479  16.471  0.9318 -1.6822  0.3899
 8840TIP3    H248012   5.297   3.495  16.331 -0.8852  2.2080  0.0073
 8841TIP3   OH248013   0.081   6.258  12.269 -0.1908 -0.5286 -0.0623
 8841TIP3    H148014   0.149   6.316  12.301  0.2310 -0.1575 -1.5507
 8841TIP3    H248015   0.110   6.170  12.294 -1.5888 -0.1203  3.5996
 8842TIP3   OH248016   0.041   4.584  13.529 -0.1863 -0.2586 -0.4190
 8842TIP3    H148017  -0.047   4.612  13.505 -0.5526 -1.1533 -0.1239
 8842TIP3    H248018   0.093   4.665  13.525 -0.7296  0.0461 -1.8782
 8843TIP3   OH248019   6.627   0.437   4.096  0.8755 -0.1313  0.2469
 8843TIP3    H148020   6.612   0.413   4.005 -2.5706  0.7938  0.4102
 8843TIP3    H248021   6.706   0.491   4.095  0.7432  0.1076 -2.2569
 8844TIP3   OH248022   4.453   4.338  14.625 -0.0179  0.8256  0.0397
 8844TIP3    H148023   4.525   4.308  14.680  1.5923  3.3984 -0.5051
 8844TIP3    H248024   4.493   4.401  14.566 -2.7523  2.4245 -0.2448
 8845TIP3   OH248025   1.331   4.126  12.165 -0.3933 -0.0165 -0.2422
 8845TIP3    H148026   1.240   4.152  12.149 -0.4803  0.6504  1.1531
 8845TIP3    H248027   1.383   4.191  12.118 -0.6480  0.3571 -0.0214
 8846TIP3   OH248028   3.999   6.386  11.670  0.0317  0.0231  0.9841
 8846TIP3    H148029   3.990   6.468  11.719 -1.2221 -0.5502  1.7719
 8846TIP3    H248030   3.916   6.377  11.624  0.0205 -0.9750  1.1792
 8847TIP3   OH248031   6.648   2.451  16.665 -0.0306 -0.3518 -0.2596
 8847TIP3    H148032   6.696   2.447  16.748 -1.5853 -3.1664  0.6372
 8847TIP3    H248033   6.711   2.421  16.600  0.1931 -1.6184  0.5030
 8848TIP3   OH248034   3.419   0.335   1.087  0.6036 -0.4552 -0.3800
 8848TIP3    H148035   3.329   0.362   1.070  0.5655 -0.3925 -0.0825
 8848TIP3    H248036   3.437   0.269   1.020  0.8503  0.6160 -1.4124
 8849TIP3   OH248037   0.176   4.281   2.593 -0.4799  0.5869 -0.1864
 8849TIP3    H148038   0.106   4.325   2.546 -1.6085  0.1638  1.0424
 8849TIP3    H248039   0.173   4.318   2.681  0.3699  0.0539  0.0800
 8850TIP3   OH248040   3.328   5.276  16.867 -0.6449  0.2159 -0.1958
 8850TIP3    H148041   3.259   5.279  16.933 -0.3848 -0.3071  0.1100
 8850TIP3    H248042   3.398   5.224  16.908 -0.7328 -0.6776 -1.1293
 8851TIP3   OH248043   3.388   1.327  15.164  0.1175  0.6307 -0.1635
 8851TIP3    H148044   3.363   1.418  15.152 -0.6543  0.7127  1.7623
 8851TIP3    H248045   3.425   1.323  15.252 -0.0901 -0.9515 -0.1114
 8852TIP3   OH248046   4.355   0.014   0.042  0.4484  0.2359 -0.2038
 8852TIP3    H148047   4.378  -0.012   0.131 -1.2424  1.7669  0.7295
 8852TIP3    H248048   4.436   0.051   0.007  1.2245 -0.6703  0.5514
 8853TIP3   OH248049   0.986   3.763   3.057  0.1757  0.5524 -0.1676
 8853TIP3    H148050   1.080   3.756   3.072  0.1254  0.5944  0.1604
 8853TIP3    H248051   0.950   3.682   3.094  0.1389  0.2930 -0.7559
 8854TIP3   OH248052   5.563   2.781  11.326 -0.0120 -0.7321 -0.1218
 8854TIP3    H148053   5.657   2.790  11.310 -0.2900  0.7068 -1.1634
 8854TIP3    H248054   5.524   2.779  11.239 -1.1313  1.3950  0.2405
 8855TIP3   OH248055   1.195   3.353   0.807 -0.3967 -0.1359  0.2376
 8855TIP3    H148056   1.134   3.410   0.761 -0.9856 -0.1008  1.0518
 8855TIP3    H248057   1.151   3.330   0.888  0.7135 -0.0242  0.8915
 8856TIP3   OH248058   2.860   4.888  11.927  0.1088 -0.1181 -0.5271
 8856TIP3    H148059   2.866   4.794  11.908 -1.2928 -0.5752  1.0970
 8856TIP3    H248060   2.795   4.921  11.865  0.9869 -0.0733 -1.4607
 8857TIP3   OH248061   2.461   1.401  13.194 -0.0496  0.0466  0.4718
 8857TIP3    H148062   2.506   1.477  13.157 -1.0349 -0.4213 -1.8632
 8857TIP3    H248063   2.378   1.436  13.227  0.2445  0.2512  1.0018
 8858TIP3   OH248064   3.085   5.236   2.467  0.0996 -0.1821 -0.3747
 8858TIP3    H148065   3.088   5.241   2.372 -0.7418  1.9764 -0.3433
 8858TIP3    H248066   3.043   5.318   2.495 -2.3552 -1.9582  1.7115
 8859TIP3   OH248067   4.070   4.938  16.578 -0.8226  0.1918 -0.1366
 8859TIP3    H148068   4.154   4.984  16.573 -0.2078 -0.9190 -0.2102
 8859TIP3    H248069   4.029   4.973  16.657 -0.3980  0.9136 -0.2260
 8860TIP3   OH248070   6.082   1.140  13.734  0.5215  0.3439 -0.1023
 8860TIP3    H148071   6.160   1.171  13.780  0.2031  1.9655 -0.5762
 8860TIP3    H248072   6.009   1.182  13.780  0.0512  0.2047 -0.7083
 8861TIP3   OH248073   0.737   2.727  10.637  0.5377 -0.1999 -0.0672
 8861TIP3    H148074   0.730   2.717  10.542  0.7217  2.3970 -0.4092
 8861TIP3    H248075   0.825   2.694  10.658  2.2590  3.0507 -1.4920
 8862TIP3   OH248076   4.792   2.070  13.106  0.1657  0.1994  0.1199
 8862TIP3    H148077   4.726   2.011  13.068  0.5355 -0.8345  1.0293
 8862TIP3    H248078   4.826   2.022  13.182 -0.1803  1.9688  1.4655
 8863TIP3   OH248079   2.678   1.783  15.728  0.0003  0.0436 -0.3020
 8863TIP3    H148080   2.679   1.713  15.664  0.0941 -1.3737  1.1740
 8863TIP3    H248081   2.751   1.763  15.787 -1.1109  0.2955  1.2322
 8864TIP3   OH248082   3.248   4.263   2.349 -0.0631  0.6352  0.1603
 8864TIP3    H148083   3.223   4.341   2.398 -4.7631 -0.3316 -0.2213
 8864TIP3    H248084   3.230   4.190   2.409  0.8318 -0.2881 -0.6576
 8865TIP3   OH248085   6.618   1.692   2.033  0.1266 -0.5199  0.0931
 8865TIP3    H148086   6.650   1.778   2.006 -3.2622  1.2051  1.0819
 8865TIP3    H248087   6.586   1.651   1.953 -3.3790  1.6237  0.1989
 8866TIP3   OH248088   5.290   2.239   5.118  0.1004  0.3438 -0.1610
 8866TIP3    H148089   5.221   2.176   5.138  1.0399 -0.1037  1.9039
 8866TIP3    H248090   5.251   2.325   5.137 -0.5545  0.2647 -1.0974
 8867TIP3   OH248091   6.317   2.898  10.764 -0.0112  0.1030  0.0320
 8867TIP3    H148092   6.315   2.947  10.682 -2.3683 -2.0778 -1.3679
 8867TIP3    H248093   6.381   2.828  10.748 -1.6788 -1.3290 -0.6776
 8868TIP3   OH248094   0.082   4.912  16.819  0.2739  0.7011  0.1705
 8868TIP3    H148095   0.072   4.829  16.773  1.0287  0.3920  0.5551
 8868TIP3    H248096   0.106   4.888  16.908 -1.2223  1.2882  0.7707
 8869TIP3   OH248097   5.954   4.407  13.711 -0.6384 -1.0008 -0.2911
 8869TIP3    H148098   5.872   4.429  13.755 -0.8122 -0.3546 -0.9102
 8869TIP3    H248099   5.935   4.326  13.664 -0.7023 -1.2466  0.1578
 8870TIP3   OH248100   5.434   3.221  12.652  0.1783 -0.4333 -0.2292
 8870TIP3    H148101   5.437   3.220  12.748  0.8275 -1.5833 -0.2309
 8870TIP3    H248102   5.415   3.130  12.628 -0.0252 -0.1479 -1.1898
 8871TIP3   OH248103   2.188   0.814   2.063  0.0562 -0.1883 -0.6365
 8871TIP3    H148104   2.174   0.908   2.055  2.5279  0.2888  0.0049
 8871TIP3    H248105   2.199   0.784   1.973 -1.2133  0.0138 -0.8791
 8872TIP3   OH248106   5.436   4.269  16.398  0.5997 -0.1812 -0.1058
 8872TIP3    H148107   5.469   4.211  16.466  1.5174 -0.8111 -1.0546
 8872TIP3    H248108   5.342   4.256  16.398  0.7775 -1.6581 -0.2696
 8873TIP3   OH248109   3.296   2.291   5.003  0.3896 -0.5224  0.6778
 8873TIP3    H148110   3.261   2.309   5.090  0.0628  0.3311  0.3766
 8873TIP3    H248111   3.310   2.378   4.964 -0.5721 -0.8917 -0.5614
 8874TIP3   OH248112   0.654   1.415  13.135 -0.4418  0.0833  0.1877
 8874TIP3    H148113   0.674   1.402  13.227 -0.7544 -0.9605  0.1307
 8874TIP3    H248114   0.560   1.396  13.128 -0.6395  1.1255 -0.1870
 8875TIP3   OH248115   5.262   4.548  16.168 -0.1275  0.4596 -0.2715
 8875TIP3    H148116   5.268   4.534  16.073 -0.4896 -1.1095 -0.0963
 8875TIP3    H248117   5.352   4.538  16.199 -0.2632 -0.9806 -0.2520
 8876TIP3   OH248118   2.939   2.444  12.708  0.2126  0.4677  0.3362
 8876TIP3    H148119   2.853   2.424  12.746 -0.5949 -0.3077 -1.7673
 8876TIP3    H248120   3.000   2.393  12.761 -1.0256 -1.6917 -0.1921
 8877TIP3   OH248121   4.133   3.364   1.500  0.7562  0.3375  0.0739
 8877TIP3    H148122   4.223   3.374   1.532 -0.1502  1.9504  2.3993
 8877TIP3    H248123   4.104   3.280   1.537  1.7553 -1.0950 -2.1396
 8878TIP3   OH248124   4.876   6.836  12.572  0.1694  0.4109  0.0756
 8878TIP3    H148125   4.788   6.832  12.536 -0.1828  0.0521  0.9304
 8878TIP3    H248126   4.863   6.856  12.665  1.0556  1.5973 -0.0329
 8879TIP3   OH248127   1.783   2.687  11.060  0.5892  0.1484  0.1019
 8879TIP3    H148128   1.738   2.662  10.979  0.5041 -0.1351  0.2377
 8879TIP3    H248129   1.743   2.633  11.128  3.9594 -3.4636 -0.3545
 8880TIP3   OH248130   2.466   0.664  11.133 -0.2382 -0.1366 -0.3402
 8880TIP3    H148131   2.472   0.580  11.089 -0.6392 -0.4644  0.2197
 8880TIP3    H248132   2.490   0.646  11.224 -1.1214  0.1906 -0.0305
 8881TIP3   OH248133   1.493   6.744  13.691 -0.1981 -0.4240 -0.2514
 8881TIP3    H148134   1.432   6.787  13.751 -0.9562  0.1051 -1.3447
 8881TIP3    H248135   1.574   6.794  13.700 -0.6515  0.3824 -0.4854
 8882TIP3   OH248136   6.076   2.858  10.282 -0.5891  0.5537  0.0251
 8882TIP3    H148137   6.059   2.951  10.298 -0.8867  0.7225 -1.1900
 8882TIP3    H248138   5.990   2.817  10.288 -0.3479  0.2077  1.3875
 8883TIP3   OH248139   4.748   5.034   2.435 -0.4514  0.2131  0.2733
 8883TIP3    H148140   4.677   5.051   2.496 -1.7644 -0.4990 -1.0035
 8883TIP3    H248141   4.706   5.029   2.349  1.1573 -0.0982 -0.5436
 8884TIP3   OH248142   1.160   1.130   4.755  0.3517  0.5830 -0.2562
 8884TIP3    H148143   1.227   1.115   4.821  0.1956  0.9507 -0.0105
 8884TIP3    H248144   1.083   1.157   4.805 -1.2194 -3.4170 -0.1205
 8885TIP3   OH248145   0.774   2.749   2.602 -0.2454  0.0432  0.0758
 8885TIP3    H148146   0.741   2.698   2.676 -1.8313  0.6968 -0.1441
 8885TIP3    H248147   0.699   2.759   2.544  1.0219 -0.6111 -1.7402
 8886TIP3   OH248148   1.366   5.546  11.612 -0.1980  0.0412 -0.3046
 8886TIP3    H148149   1.435   5.610  11.628 -0.2547  0.0823 -0.2178
 8886TIP3    H248150   1.285   5.592  11.639 -0.1864 -0.2331  0.2150
 8887TIP3   OH248151   6.701   1.554   1.224 -0.6336 -0.1199 -0.1928
 8887TIP3    H148152   6.750   1.517   1.151  0.3643  1.3825 -0.3212
 8887TIP3    H248153   6.742   1.516   1.302 -0.8366 -0.6930 -0.3576
 8888TIP3   OH248154   0.336   1.817   0.853  0.1231 -0.7761 -0.1225
 8888TIP3    H148155   0.302   1.756   0.918  0.0083 -1.9526 -1.2265
 8888TIP3    H248156   0.412   1.772   0.816  0.1354 -0.1777 -0.8465
 8889TIP3   OH248157   1.414   2.029  13.037 -0.0321 -0.2772 -0.6829
 8889TIP3    H148158   1.456   2.114  13.049  1.2992 -1.1440  1.3707
 8889TIP3    H248159   1.382   2.005  13.124  2.2506 -3.1109 -0.4485
 8890TIP3   OH248160   4.844   3.399  15.846  0.2528 -0.3869 -0.0971
 8890TIP3    H148161   4.874   3.489  15.860  0.1078  0.0310 -2.1574
 8890TIP3    H248162   4.892   3.348  15.911  0.1329  1.2021  1.2972
 8891TIP3   OH248163   2.594   6.344   9.935 -0.0321  0.4854  0.6499
 8891TIP3    H148164   2.571   6.278   9.869 -0.5452 -1.1405  2.3797
 8891TIP3    H248165   2.612   6.294  10.014  4.2502  2.0096  0.9219
 8892TIP3   OH248166   2.743   1.263  11.576 -0.1091  0.4606 -0.0012
 8892TIP3    H148167   2.713   1.270  11.485  1.2427  1.3605 -0.4124
 8892TIP3    H248168   2.728   1.351  11.612 -0.4489  0.1621  0.5995
 8893TIP3   OH248169   4.894   6.032  11.525  0.1420  0.0591  0.0614
 8893TIP3    H148170   4.801   6.016  11.540  0.3016 -0.4412  0.5548
 8893TIP3    H248171   4.934   5.945  11.531  0.2777 -0.2105 -2.9230
 8894TIP3   OH248172   4.493   3.875   0.926  0.4284  0.3002 -0.0666
 8894TIP3    H148173   4.557   3.945   0.927  0.6549  0.0879  0.2602
 8894TIP3    H248174   4.509   3.825   1.006  0.5431 -0.3641 -0.4865
 8895TIP3   OH248175   3.050   1.771   4.326  0.2527  0.7182 -0.5277
 8895TIP3    H148176   3.144   1.761   4.309  0.1499  1.1294 -1.4092
 8895TIP3    H248177   3.013   1.686   4.302  0.1339  1.2388 -2.3198
 8896TIP3   OH248178   5.497   3.878  11.027  0.2173 -0.0679  0.7849
 8896TIP3    H148179   5.401   3.875  11.020  0.2637  1.0494 -1.1679
 8896TIP3    H248180   5.527   3.810  10.967  0.7020 -2.0350  3.1137
 8897TIP3   OH248181   1.869   3.755   1.005  0.4096  0.2415  0.8666
 8897TIP3    H148182   1.786   3.709   0.995  0.2170  0.7974 -0.3406
 8897TIP3    H248183   1.915   3.708   1.074 -0.1400 -1.2235  0.2807
 8898TIP3   OH248184   4.959   6.464  13.312 -0.1458 -0.5363 -0.8250
 8898TIP3    H148185   4.898   6.398  13.344 -0.2750 -0.0237  0.0150
 8898TIP3    H248186   4.996   6.504  13.391 -0.0056  0.3356 -1.3114
 8899TIP3   OH248187   6.656   1.355   4.765 -0.0698 -0.0411 -0.1149
 8899TIP3    H148188   6.654   1.260   4.772 -0.0779 -0.0826 -0.6449
 8899TIP3    H248189   6.746   1.380   4.785  0.4343 -0.3242 -1.8412
 8900TIP3   OH248190   1.691   6.510   1.921 -0.1791 -0.0670 -0.5804
 8900TIP3    H148191   1.760   6.572   1.897  0.9702 -1.0360  0.1355
 8900TIP3    H248192   1.688   6.514   2.016 -0.7177 -0.4655 -0.5789
 8901TIP3   OH248193   3.116   5.730   5.116  0.2991  0.4196  0.1706
 8901TIP3    H148194   3.105   5.742   5.021 -2.2569  2.0690  0.5821
 8901TIP3    H248195   3.047   5.669   5.141  1.4053 -0.5810  0.9353
 8902TIP3   OH248196   5.040   0.681  14.179  0.9834 -0.1138 -0.1567
 8902TIP3    H148197   5.122   0.648  14.215 -0.0571 -0.2950  2.2204
 8902TIP3    H248198   4.998   0.604  14.140  1.5119 -0.2046 -0.5543
 8903TIP3   OH248199   5.963   5.538  11.248 -0.6937  0.4863  0.1212
 8903TIP3    H148200   5.997   5.612  11.299  0.4354 -0.8379  1.3677
 8903TIP3    H248201   5.963   5.570  11.158 -0.9083  2.2458  0.7008
 8904TIP3   OH248202   5.352   3.113   1.783 -0.5664 -0.0534 -0.8480
 8904TIP3    H148203   5.386   3.167   1.855 -3.0638 -0.0145  0.4112
 8904TIP3    H248204   5.430   3.085   1.735  1.5080 -1.9167  3.1362
 8905TIP3   OH248205   6.318   2.608  10.070  0.1889  0.4190  0.3434
 8905TIP3    H148206   6.235   2.566  10.091  0.0782 -1.1356 -2.6990
 8905TIP3    H248207   6.384   2.542  10.091  0.4894  0.8036  0.6277
 8906TIP3   OH248208   1.285   0.948   5.597 -0.6367 -0.1722 -0.3491
 8906TIP3    H148209   1.332   0.905   5.525  0.3166  0.4147 -0.1017
 8906TIP3    H248210   1.340   0.934   5.674 -1.5156 -0.5678  0.2200
 8907TIP3   OH248211   1.249   2.463  12.634  0.0982 -0.0373 -0.2798
 8907TIP3    H148212   1.205   2.393  12.586  1.5141 -2.7383  2.0586
 8907TIP3    H248213   1.185   2.491  12.699  0.1126 -0.4171 -0.0998
 8908TIP3   OH248214   6.659   5.849   5.235  0.1184  0.1472 -0.0722
 8908TIP3    H148215   6.628   5.765   5.269 -1.1339  0.2139 -0.9683
 8908TIP3    H248216   6.701   5.892   5.310  0.8646 -1.3080  0.3716
 8909TIP3   OH248217   0.942   2.440   3.220 -0.3203  0.0433 -0.0796
 8909TIP3    H148218   0.848   2.424   3.228 -0.1377 -0.2801  2.2592
 8909TIP3    H248219   0.960   2.507   3.286  0.9652  0.7386 -1.1052
 8910TIP3   OH248220   2.097   5.692   0.134 -0.0890  0.0810  0.0932
 8910TIP3    H148221   2.089   5.645   0.051  0.2001 -0.0953  0.1664
 8910TIP3    H248222   2.077   5.627   0.201  0.4176  0.0381  0.2001
 8911TIP3   OH248223   6.153   5.510  13.384  0.1961 -0.5138  0.0338
 8911TIP3    H148224   6.070   5.527  13.430  0.4910 -0.5525  0.5935
 8911TIP3    H248225   6.169   5.590  13.334 -0.3997 -0.6750 -0.4239
 8912TIP3   OH248226   5.045   3.160  11.297  0.2976 -0.1233  0.3585
 8912TIP3    H148227   5.004   3.077  11.322  0.4995 -0.1294  0.6816
 8912TIP3    H248228   5.130   3.136  11.262 -0.1340 -0.1398 -0.6910
 8913TIP3   OH248229   1.363   6.589  12.559 -0.4626  0.2681  0.2431
 8913TIP3    H148230   1.320   6.613  12.477 -1.7506  1.5065  1.2339
 8913TIP3    H248231   1.313   6.513  12.591  0.1445 -0.3205 -0.1775
 8914TIP3   OH248232   4.563   6.063   0.110  0.3653 -0.2321 -0.3809
 8914TIP3    H148233   4.590   6.152   0.089 -3.1289  1.7569  2.5212
 8914TIP3    H248234   4.624   6.035   0.179  0.8500  0.3023 -0.5854
 8915TIP3   OH248235   1.329   0.098  16.337  0.1969 -0.7099 -0.5265
 8915TIP3    H148236   1.257   0.160  16.345  0.5590 -0.2339 -0.8832
 8915TIP3    H248237   1.329   0.050  16.420  0.6246  0.5497  0.2323
 8916TIP3   OH248238   2.506   6.059  12.965 -0.2431  0.6953  0.1491
 8916TIP3    H148239   2.589   6.046  13.011  0.1855 -0.1895 -0.8432
 8916TIP3    H248240   2.531   6.088  12.878 -1.0126  1.2248  0.0933
 8917TIP3   OH248241   0.194   5.397   4.393 -0.8059  1.0998  0.5280
 8917TIP3    H148242   0.226   5.402   4.303  0.5973  1.3937  1.0212
 8917TIP3    H248243   0.261   5.442   4.445 -1.0409 -0.0023  1.8547
 8918TIP3   OH248244   6.448   0.938  14.860  0.5376  0.0679 -0.1748
 8918TIP3    H148245   6.388   0.999  14.819  0.0124 -0.9327 -0.9512
 8918TIP3    H248246   6.392   0.871  14.898  1.1285 -0.4738 -0.2352
 8919TIP3   OH248247   4.768   3.472   5.415 -0.0350  0.0563  0.3271
 8919TIP3    H148248   4.690   3.522   5.439 -1.6603 -3.0152  2.0425
 8919TIP3    H248249   4.840   3.516   5.461 -0.4358  3.3698 -1.8372
 8920TIP3   OH248250   5.006   6.564   4.815 -0.1079 -0.3672 -0.0819
 8920TIP3    H148251   5.042   6.572   4.727  1.7285  0.3884  0.6912
 8920TIP3    H248252   4.976   6.474   4.821  0.8716 -0.7836 -1.0734
 8921TIP3   OH248253   2.657   5.650  14.173 -0.1202 -0.2372 -0.1166
 8921TIP3    H148254   2.588   5.717  14.168  0.3696  0.1847 -3.7816
 8921TIP3    H248255   2.737   5.697  14.147  0.7398 -1.6903 -0.1728
 8922TIP3   OH248256   1.281   4.769   2.394  0.0328 -0.1972 -0.1801
 8922TIP3    H148257   1.206   4.826   2.376  0.6086  1.0709  1.2483
 8922TIP3    H248258   1.275   4.700   2.328 -0.6874  1.5256 -2.0147
 8923TIP3   OH248259   3.715   2.468   3.744  0.0120 -0.5123  0.4717
 8923TIP3    H148260   3.657   2.427   3.680 -1.1445  0.2211  1.0183
 8923TIP3    H248261   3.677   2.444   3.829  0.7383 -0.3316  0.8532
 8924TIP3   OH248262   2.370   1.540   3.145  0.3677 -0.6889 -0.1918
 8924TIP3    H148263   2.465   1.528   3.143  0.6119  0.8612  0.4995
 8924TIP3    H248264   2.345   1.516   3.234  0.0827 -1.2632 -0.4262
 8925TIP3   OH248265   1.034   5.751  12.985  0.7311 -0.5942  0.2894
 8925TIP3    H148266   0.989   5.687  13.040  0.5078  0.5735  1.5252
 8925TIP3    H248267   1.121   5.759  13.023  2.0250 -2.6855 -1.9682
 8926TIP3   OH248268   5.405   4.945  13.912  0.2766  0.1200 -0.4797
 8926TIP3    H148269   5.329   4.929  13.969  0.4212 -0.5049 -0.4532
 8926TIP3    H248270   5.452   5.017  13.953  1.0504 -1.1191  0.8840
 8927TIP3   OH248271   3.240   5.342   5.860 -0.1213  0.0982 -0.4037
 8927TIP3    H148272   3.301   5.278   5.822  0.1184  0.2996 -0.3633
 8927TIP3    H248273   3.281   5.426   5.843  0.9082  0.1202  1.8940
 8928TIP3   OH248274   5.364   5.133  16.798  0.1621 -0.0626 -0.5722
 8928TIP3    H148275   5.381   5.124  16.892  1.7615  2.6663 -0.4821
 8928TIP3    H248276   5.272   5.108  16.788  0.1480 -1.1085  1.5863
 8929TIP3   OH248277   2.377   1.923   4.396  0.0390 -0.3443 -0.2053
 8929TIP3    H148278   2.438   1.969   4.340  1.0543 -2.3089 -0.8061
 8929TIP3    H248279   2.291   1.935   4.355  0.4964 -0.1813 -1.1146
 8930TIP3   OH248280   5.056   1.001  12.711  0.3299  0.1276  0.1461
 8930TIP3    H148281   5.045   0.907  12.719  2.3413 -0.1115  0.4741
 8930TIP3    H248282   4.982   1.029  12.656  0.2959 -1.7646 -0.8338
 8931TIP3   OH248283   6.145   1.437   4.689  0.0617 -0.1545  0.2039
 8931TIP3    H148284   6.201   1.431   4.767  0.3114 -1.0175 -0.0350
 8931TIP3    H248285   6.164   1.523   4.652  0.5146 -0.0540  0.6645
 8932TIP3   OH248286   2.214   2.097  16.111  0.2434 -0.0459  0.2901
 8932TIP3    H148287   2.208   2.035  16.184 -1.7356 -0.1963  0.0396
 8932TIP3    H248288   2.139   2.077  16.056  0.2136  1.8274 -0.4187
 8933TIP3   OH248289   3.587   0.512   1.182  0.0504  0.0464  0.0424
 8933TIP3    H148290   3.648   0.535   1.112 -1.8021  1.4708 -1.1778
 8933TIP3    H248291   3.517   0.465   1.138  0.2023 -1.5804  1.4260
 8934TIP3   OH248292   6.496   2.037  14.310  0.3267 -0.0079  0.3062
 8934TIP3    H148293   6.460   2.099  14.246 -0.4383 -0.7223  0.0387
 8934TIP3    H248294   6.554   1.981  14.258 -0.0436 -0.3820  0.2938
 8935TIP3   OH248295   0.173   0.035  12.208  0.5067 -0.2349  0.1689
 8935TIP3    H148296   0.228  -0.035  12.173  0.4855  0.0770 -0.4958
 8935TIP3    H248297   0.106   0.049  12.141 -0.2541 -0.4439  0.8569
 8936TIP3   OH248298   4.491   3.814   2.767  0.8540 -0.4266  1.2047
 8936TIP3    H148299   4.497   3.755   2.691  0.3926  2.0094 -0.8696
 8936TIP3    H248300   4.582   3.833   2.790  1.0789  0.7482 -0.4502
 8937TIP3   OH248301   3.676   3.030   2.953  0.2047 -0.0067  0.1148
 8937TIP3    H148302   3.701   3.109   3.000 -1.4972 -0.1676  1.4032
 8937TIP3    H248303   3.737   3.025   2.879  1.4873  1.5166  1.0083
 8938TIP3   OH248304   5.540   3.909  14.224  0.1684 -0.4766 -0.3448
 8938TIP3    H148305   5.480   3.836  14.211  0.4880 -0.4793 -2.0227
 8938TIP3    H248306   5.618   3.870  14.263 -0.1749 -0.7951  0.0294
 8939TIP3   OH248307   4.003   1.995  15.287  0.0775  0.1222  0.1367
 8939TIP3    H148308   4.094   1.985  15.260  0.4961  0.2458  1.4188
 8939TIP3    H248309   3.952   1.950  15.219  0.9998  0.9374 -1.1409
 8940TIP3   OH248310   3.779   5.895   2.583 -0.1445 -1.1952  0.2474
 8940TIP3    H148311   3.852   5.881   2.522  1.0020  0.9288  1.0234
 8940TIP3    H248312   3.768   5.812   2.627  1.4102 -1.7533 -0.3418
 8941TIP3   OH248313   1.115   2.822  16.781 -0.0846  0.1447 -0.1362
 8941TIP3    H148314   1.165   2.745  16.755 -1.1336 -0.6801  0.2431
 8941TIP3    H248315   1.031   2.812  16.738 -1.0090 -0.0460  1.6202
 8942TIP3   OH248316   4.018   3.099   0.301 -0.5803 -0.0820  0.0538
 8942TIP3    H148317   4.085   3.160   0.331 -1.4509  0.2912  1.3200
 8942TIP3    H248318   3.946   3.155   0.272 -0.9544 -0.4901  0.1853
 8943TIP3   OH248319   5.875   5.720  11.657 -0.3319 -0.0709 -0.0332
 8943TIP3    H148320   5.906   5.656  11.721  2.0385 -0.1507 -1.1701
 8943TIP3    H248321   5.805   5.675  11.610 -1.6987 -0.2307  2.0029
 8944TIP3   OH248322   1.099   4.790   4.516  0.5750  0.5523  0.1335
 8944TIP3    H148323   1.172   4.823   4.464  1.2263 -1.1045 -0.0931
 8944TIP3    H248324   1.039   4.753   4.452  0.5528  0.0530  0.4333
 8945TIP3   OH248325   6.855   0.467  10.396  0.0064  0.0889 -0.3285
 8945TIP3    H148326   6.857   0.477  10.301  1.2757  0.1616 -0.3161
 8945TIP3    H248327   6.931   0.412  10.416  1.5934  2.5219  0.8762
 8946TIP3   OH248328   2.241   1.020  16.135 -0.4376  0.1916  0.2619
 8946TIP3    H148329   2.288   1.078  16.194  3.2796 -1.3701 -0.8167
 8946TIP3    H248330   2.265   1.050  16.047 -0.9789 -1.0586 -0.3498
 8947TIP3   OH248331   0.965   3.215   4.911  0.1774  0.1634 -0.3970
 8947TIP3    H148332   1.002   3.224   4.823 -0.5065  3.4195 -0.4695
 8947TIP3    H248333   0.870   3.221   4.898  0.1111  1.8550  0.6083
 8948TIP3   OH248334   1.044   5.472   2.764  0.7732  0.7734  0.7628
 8948TIP3    H148335   0.984   5.536   2.727  0.8178  1.3772  1.6930
 8948TIP3    H248336   0.987   5.408   2.807  0.7624  0.8900  0.9249
 8949TIP3   OH248337   3.997   6.863   5.841  0.0747 -0.5629 -0.3684
 8949TIP3    H148338   4.085   6.891   5.865 -0.2013 -0.6305  0.7777
 8949TIP3    H248339   3.998   6.768   5.852 -0.5104 -0.4272  0.9334
 8950TIP3   OH248340   0.772   5.440  16.689  1.0353 -0.3649 -0.1249
 8950TIP3    H148341   0.712   5.440  16.615  0.3470  0.2456  0.4188
 8950TIP3    H248342   0.835   5.371  16.669  0.9250 -0.1320 -1.3291
 8951TIP3   OH248343   2.778   4.433   3.526  1.0479  0.2223 -0.5048
 8951TIP3    H148344   2.750   4.343   3.510  0.1384  0.7908 -2.3717
 8951TIP3    H248345   2.811   4.432   3.616 -0.1204 -1.6859 -0.0327
 8952TIP3   OH248346   5.323   5.048  14.385 -0.0052  0.3165  0.2122
 8952TIP3    H148347   5.310   4.974  14.445 -0.6354  0.9556  0.8780
 8952TIP3    H248348   5.298   5.013  14.299  0.2673 -0.4146  0.4182
 8953TIP3   OH248349   0.236   2.014   5.206 -0.2654 -0.0984  0.2687
 8953TIP3    H148350   0.287   2.090   5.234  0.7674 -0.1339 -1.3950
 8953TIP3    H248351   0.203   2.038   5.120 -2.2181 -0.5057  0.8685
 8954TIP3   OH248352   3.473   0.800   4.618  0.0775  0.6005  0.1683
 8954TIP3    H148353   3.557   0.760   4.641 -0.0031  0.2548 -0.1367
 8954TIP3    H248354   3.495   0.886   4.584  0.3233  0.4119 -0.1410
 8955TIP3   OH248355   5.662   0.922  15.542 -0.3971 -0.2924  0.0998
 8955TIP3    H148356   5.648   0.843  15.594  0.6865  0.2554  1.2771
 8955TIP3    H248357   5.581   0.972  15.552 -1.7185 -1.8825 -1.9089
 8956TIP3   OH248358   6.866   1.293  15.319  0.5117 -0.1320  0.1282
 8956TIP3    H148359   6.864   1.344  15.400  0.0754 -1.2763  0.8614
 8956TIP3    H248360   6.798   1.331  15.264  0.5923  0.4426  0.4240
 8957TIP3   OH248361   6.370   3.181  14.640  0.2142  0.3705  0.0812
 8957TIP3    H148362   6.437   3.209  14.578 -1.0441  2.1183 -0.5614
 8957TIP3    H248363   6.288   3.192  14.593 -0.6024 -1.1080  1.0797
 8958TIP3   OH248364   0.556   3.304   0.336  0.7929 -0.3793  0.2429
 8958TIP3    H148365   0.464   3.305   0.364  0.5229  1.7764 -0.4680
 8958TIP3    H248366   0.605   3.281   0.414 -0.2467  0.4594  1.1905
 8959TIP3   OH248367   6.722   5.102  12.602 -0.6188 -0.5211  0.0233
 8959TIP3    H148368   6.799   5.048  12.587 -0.1423  0.1526  0.0028
 8959TIP3    H248369   6.651   5.056  12.558 -0.2979 -1.3093  0.3100
 8960TIP3   OH248370   2.367   0.055  15.871  0.0000  0.7168 -0.0554
 8960TIP3    H148371   2.306   0.115  15.829 -1.1160  1.0037  1.8963
 8960TIP3    H248372   2.315   0.007  15.935  1.4400 -0.4012  0.3516
 8961TIP3   OH248373   6.589   0.874   3.499  0.0798 -0.8653  0.8808
 8961TIP3    H148374   6.622   0.900   3.413 -3.1555 -1.5666 -0.7599
 8961TIP3    H248375   6.548   0.788   3.484 -1.6556 -0.4559  2.7705
 8962TIP3   OH248376   0.441   3.640  15.993 -0.5299  0.6701 -0.6362
 8962TIP3    H148377   0.526   3.673  16.023 -0.3595  1.0250 -1.4820
 8962TIP3    H248378   0.430   3.557  16.039 -0.2269  1.1428  0.3163
 8963TIP3   OH248379   5.937   1.673  15.628  0.1097 -0.6502  0.1123
 8963TIP3    H148380   5.852   1.656  15.586 -0.1346  2.6965 -1.0474
 8963TIP3    H248381   5.997   1.611  15.587 -1.1209 -0.8460 -1.4902
 8964TIP3   OH248382   5.509   4.160  15.696 -0.0075 -0.2801  0.4670
 8964TIP3    H148383   5.538   4.131  15.610 -0.4833 -0.9983  0.5369
 8964TIP3    H248384   5.429   4.109  15.713 -1.3524  1.6337  0.2705
 8965TIP3   OH248385   0.907   2.187  11.625  0.0883  0.0812 -0.7903
 8965TIP3    H148386   0.980   2.128  11.646 -0.2851 -0.5757 -1.2653
 8965TIP3    H248387   0.947   2.273  11.618  0.4632  0.1039  1.1069
 8966TIP3   OH248388   6.288   6.636  11.181 -0.0524  0.3063 -0.2679
 8966TIP3    H148389   6.300   6.559  11.126  0.3603  0.2727 -0.1391
 8966TIP3    H248390   6.218   6.613  11.242 -0.4535  0.3140 -0.7222
 8967TIP3   OH248391   5.898   3.273  15.585 -0.5752  0.2052  0.5925
 8967TIP3    H148392   5.838   3.344  15.565 -3.0248 -1.7353  0.6347
 8967TIP3    H248393   5.890   3.260  15.680  0.1594  0.1019  0.6530
 8968TIP3   OH248394   0.694   5.879   2.726 -0.5140 -0.3809 -0.4263
 8968TIP3    H148395   0.758   5.948   2.709  1.1580 -0.8427  3.2310
 8968TIP3    H248396   0.732   5.801   2.687  1.4619 -0.7170  1.9702
 8969TIP3   OH248397   6.453   5.872   5.735  0.6102 -0.1344  0.3158
 8969TIP3    H148398   6.470   5.957   5.775 -1.2029  0.7664 -0.6583
 8969TIP3    H248399   6.357   5.866   5.732  0.5355 -0.0369 -3.8234
 8970TIP3   OH248400   3.275   3.521   4.987  0.0441  0.8675 -0.3931
 8970TIP3    H148401   3.311   3.550   4.903 -0.7668 -0.2675 -1.1620
 8970TIP3    H248402   3.184   3.499   4.967  0.4673 -1.6850  0.2147
 8971TIP3   OH248403   0.785   0.923  16.392 -0.2717  0.2304 -0.8553
 8971TIP3    H148404   0.875   0.951  16.414 -0.7255  0.4115  0.9282
 8971TIP3    H248405   0.743   1.003  16.360 -0.7135  1.0310  1.4791
 8972TIP3   OH248406   0.141   0.845  12.776 -0.3001 -0.0079  0.0246
 8972TIP3    H148407   0.088   0.924  12.789  0.1270  0.4891 -1.1426
 8972TIP3    H248408   0.105   0.805  12.697 -0.0792 -0.6299  0.2366
 8973TIP3   OH248409   3.925   2.773   4.198  0.4459 -0.3955 -0.2655
 8973TIP3    H148410   4.020   2.762   4.210  0.2298 -0.7814  1.2150
 8973TIP3    H248411   3.914   2.866   4.178  1.0501 -0.1447  0.5404
 8974TIP3   OH248412   6.739   4.545   4.760 -0.0686  0.1489 -0.1167
 8974TIP3    H148413   6.701   4.602   4.827  2.0512 -0.3481  1.6150
 8974TIP3    H248414   6.821   4.588   4.735 -0.9562  0.4959 -2.7453
 8975TIP3   OH248415   5.014   5.157   2.682  1.0090 -0.7498  0.0299
 8975TIP3    H148416   4.969   5.108   2.751 -2.0347  0.1993 -1.1133
 8975TIP3    H248417   4.990   5.248   2.698 -1.1435 -0.6155 -3.0293
 8976TIP3   OH248418   0.756   0.702  16.879  0.3808  0.0593 -0.4988
 8976TIP3    H148419   0.743   0.724  16.786 -2.3164  0.0195 -0.2205
 8976TIP3    H248420   0.815   0.627  16.877  1.3584  0.7999 -2.0836
 8977TIP3   OH248421   2.755   4.753   1.628 -1.0137  0.5789 -0.0385
 8977TIP3    H148422   2.664   4.725   1.618 -1.3619  2.1122 -1.7322
 8977TIP3    H248423   2.754   4.847   1.610  1.3391  0.1186 -3.8505
 8978TIP3   OH248424   6.085   5.155   1.918  0.1052  0.1401 -0.5619
 8978TIP3    H148425   6.077   5.247   1.942  1.3544  0.2199 -0.3836
 8978TIP3    H248426   6.177   5.143   1.897  0.0272 -1.1384 -0.2980
 8979TIP3   OH248427   6.848   6.405  11.203 -0.2126  0.6928 -0.1794
 8979TIP3    H148428   6.849   6.405  11.298  1.2856  1.4936 -0.1616
 8979TIP3    H248429   6.811   6.320  11.179  0.3706  0.0541  1.1128
 8980TIP3   OH248430   4.483   1.017   0.540 -0.8262  0.3002  0.7299
 8980TIP3    H148431   4.417   1.085   0.555  0.1133  0.8219  2.8186
 8980TIP3    H248432   4.441   0.957   0.478 -0.9530  3.8357 -3.1069
 8981TIP3   OH248433   2.200   0.506   3.483 -0.1882  0.4899 -0.2855
 8981TIP3    H148434   2.283   0.553   3.494  1.8595 -2.2819 -2.3716
 8981TIP3    H248435   2.165   0.538   3.400 -0.4768  0.5874 -0.1294
 8982TIP3   OH248436   0.619   2.338  11.057  0.0768  0.1255 -0.6155
 8982TIP3    H148437   0.533   2.380  11.055 -0.1206  0.0068  1.8113
 8982TIP3    H248438   0.608   2.266  11.120  2.2028  0.8094  0.6280
 8983TIP3   OH248439   4.120   4.293   5.887 -0.2650 -0.0466  0.5059
 8983TIP3    H148440   4.164   4.375   5.868 -1.3199  1.1172  2.7208
 8983TIP3    H248441   4.083   4.265   5.803  2.0636  0.4743 -0.7807
 8984TIP3   OH248442   6.900   3.252   3.560  0.0819 -0.2940  0.4764
 8984TIP3    H148443   6.836   3.182   3.552 -0.9167  0.7093 -0.7235
 8984TIP3    H248444   6.983   3.212   3.534 -0.0187 -1.6107  2.0774
 8985TIP3   OH248445   2.714   0.120   3.315 -0.2799  0.1945 -0.2995
 8985TIP3    H148446   2.706   0.033   3.353 -0.1935  0.5746  0.6232
 8985TIP3    H248447   2.630   0.137   3.274  0.2007 -0.9128 -1.8007
 8986TIP3   OH248448   2.074   0.965   0.361 -0.2102 -0.2898 -0.3965
 8986TIP3    H148449   2.074   0.931   0.451 -1.0589 -0.8452 -0.5868
 8986TIP3    H248450   2.155   1.014   0.353 -0.7022  0.8080  1.0669
 8987TIP3   OH248451   6.600   1.887  10.492 -0.5223  0.2162 -0.0179
 8987TIP3    H148452   6.682   1.912  10.450 -0.4759  0.6394  0.3219
 8987TIP3    H248453   6.580   1.801  10.455 -0.0590  0.2216 -0.2932
 8988TIP3   OH248454   4.168   0.538  14.582  0.2464 -0.7997  0.0008
 8988TIP3    H148455   4.229   0.602  14.545  1.1132 -0.7258  1.4582
 8988TIP3    H248456   4.163   0.469  14.516  0.6914 -0.0595 -0.8243
 8989TIP3   OH248457   4.773   6.097   2.241  0.0383  0.2065  0.4893
 8989TIP3    H148458   4.859   6.136   2.224  0.8620 -1.4891  0.5188
 8989TIP3    H248459   4.786   6.044   2.319 -0.8215 -0.6710  0.0583
 8990TIP3   OH248460   3.779   2.890   1.541  0.1180 -0.2988 -0.3268
 8990TIP3    H148461   3.723   2.902   1.618  1.6065  1.9074  0.5202
 8990TIP3    H248462   3.863   2.860   1.577  1.1075  1.5971 -0.9271
 8991TIP3   OH248463   5.555   3.675  11.247 -0.1568 -0.1275  0.2891
 8991TIP3    H148464   5.498   3.615  11.199  1.0161 -0.0057 -1.3300
 8991TIP3    H248465   5.545   3.759  11.202  0.3655  0.1874  0.7497
 8992TIP3   OH248466   0.114   0.713  15.940  0.1266 -0.1906 -0.1226
 8992TIP3    H148467   0.150   0.801  15.928 -0.4683  0.2424  1.0580
 8992TIP3    H248468   0.079   0.690  15.854  1.1052  0.3352 -0.6862
 8993TIP3   OH248469   3.386   4.230   3.328  0.2017  0.0099 -0.0777
 8993TIP3    H148470   3.329   4.164   3.288 -0.7252  0.0557  1.1145
 8993TIP3    H248471   3.369   4.223   3.422 -0.2379  2.2254  0.0653
 8994TIP3   OH248472   1.132   5.247  15.989  0.5109 -0.4469  0.0920
 8994TIP3    H148473   1.120   5.280  16.078 -2.2722 -0.8399 -0.0496
 8994TIP3    H248474   1.138   5.152  15.999 -0.0771 -0.5130 -0.1414
 8995TIP3   OH248475   4.143   2.753  13.340 -0.5414 -1.2386  0.1573
 8995TIP3    H148476   4.229   2.774  13.376 -0.5688 -1.3673  0.3005
 8995TIP3    H248477   4.161   2.700  13.262 -0.4805 -0.9090 -0.0551
 8996TIP3   OH248478   3.584   5.904  10.885  0.9013 -0.4993 -0.3456
 8996TIP3    H148479   3.497   5.873  10.912  0.7193  0.7857  0.6009
 8996TIP3    H248480   3.644   5.836  10.918  0.4684 -0.1532  1.2699
 8997TIP3   OH248481   2.401   1.224   6.001 -0.2150 -0.2058 -0.2294
 8997TIP3    H148482   2.479   1.175   6.025 -1.3765 -1.3725  1.4399
 8997TIP3    H248483   2.329   1.161   6.012 -1.3632  0.6709 -2.2020
 8998TIP3   OH248484   3.122   0.354  12.039  0.2469 -0.3335  0.1565
 8998TIP3    H148485   3.201   0.300  12.040  0.4916  0.0256  0.1295
 8998TIP3    H248486   3.119   0.391  11.951 -0.8795 -1.7098 -0.4181
 8999TIP3   OH248487   2.966   3.024  11.565  0.1914  0.7530 -0.1963
 8999TIP3    H148488   2.962   3.118  11.549 -2.1234  0.8932  0.7432
 8999TIP3    H248489   2.966   3.016  11.660  1.5723 -0.1959 -0.2607
 9000TIP3   OH248490   4.851   3.336   2.072  0.1444  0.3673  0.5766
 9000TIP3    H148491   4.791   3.410   2.080  0.0740  0.5844 -1.4798
 9000TIP3    H248492   4.938   3.375   2.065  0.0737  0.2942 -0.8728
 9001TIP3   OH248493   0.427   6.050   2.016 -0.2241  0.5901 -0.0949
 9001TIP3    H148494   0.465   5.975   1.972 -0.4139 -0.0957  0.8817
 9001TIP3    H248495   0.501   6.110   2.028  0.5754 -0.6523  1.6325
 9002TIP3   OH248496   4.421   1.429   5.277  0.3645 -0.4681  0.5032
 9002TIP3    H148497   4.389   1.507   5.230 -0.3277 -1.6073 -1.0082
 9002TIP3    H248498   4.501   1.405   5.230  0.3827 -0.8678  0.7434
 9003TIP3   OH248499   3.282   6.095  11.971  0.6509  0.2882 -0.0475
 9003TIP3    H148500   3.347   6.118  11.906  1.1497 -0.4124  0.1882
 9003TIP3    H248501   3.203   6.075  11.921  1.0814 -0.4172 -0.4516
 9004TIP3   OH248502   6.249   3.179   2.741 -0.0277  0.5263 -0.1286
 9004TIP3    H148503   6.204   3.099   2.770  1.5198  0.2536  1.7553
 9004TIP3    H248504   6.284   3.157   2.655  0.1932 -0.7889  0.2736
 9005TIP3   OH248505   2.370   0.011  16.761  0.1971  0.5232 -0.1051
 9005TIP3    H148506   2.363   0.029  16.667 -1.5297 -2.4987 -0.6688
 9005TIP3    H248507   2.282   0.026  16.794 -0.0494 -1.6634  0.3239
 9006TIP3   OH248508   5.261   0.688   6.175 -0.2905 -0.1604 -0.0813
 9006TIP3    H148509   5.355   0.690   6.194 -0.3776  1.4262  0.3127
 9006TIP3    H248510   5.230   0.607   6.216  1.2823 -2.0108 -2.2975
 9007TIP3   OH248511   2.143   6.391  15.701  0.5080  0.1314  0.2466
 9007TIP3    H148512   2.108   6.477  15.725 -1.0226 -0.2300 -0.5366
 9007TIP3    H248513   2.068   6.344  15.663  1.5975 -1.1113 -0.4823
 9008TIP3   OH248514   4.169   0.080  14.618 -0.2541  0.1238 -0.1209
 9008TIP3    H148515   4.139   0.020  14.550  0.1256  2.1792 -2.2539
 9008TIP3    H248516   4.089   0.107  14.663 -0.3547 -2.4818  1.4515
 9009TIP3   OH248517   5.377   3.064  10.920 -0.5338  0.4760  0.3911
 9009TIP3    H148518   5.365   2.973  10.944 -0.3382  0.4515  0.3927
 9009TIP3    H248519   5.309   3.080  10.853 -0.4143  0.2643  0.2189
 9010TIP3   OH248520   1.875   5.229  12.301  0.2197  0.2832  0.0674
 9010TIP3    H148521   1.951   5.279  12.330  1.2812 -1.0028 -0.4023
 9010TIP3    H248522   1.800   5.286  12.321  1.1815  1.0669  1.6809
 9011TIP3   OH248523   0.868   0.719  11.306  0.0474 -0.0304 -0.0240
 9011TIP3    H148524   0.844   0.636  11.347  2.8389 -0.5356  0.8608
 9011TIP3    H248525   0.859   0.784  11.376  0.1196 -0.0269 -0.0172
 9012TIP3   OH248526   4.648   1.268  11.213 -0.5948  0.7568  0.4291
 9012TIP3    H148527   4.629   1.180  11.247 -0.4624 -0.2979 -2.0381
 9012TIP3    H248528   4.567   1.293  11.167  0.1365  0.9372 -0.7930
 9013TIP3   OH248529   3.148   4.031  15.089  0.2271 -0.4331 -0.4666
 9013TIP3    H148530   3.096   4.023  15.010  1.4357 -1.9510 -1.1488
 9013TIP3    H248531   3.174   4.124  15.091 -0.7088 -0.1400 -1.2405
 9014TIP3   OH248532   2.040   1.264   3.308  0.1315 -0.0351 -0.1275
 9014TIP3    H148533   2.027   1.358   3.294 -0.4595 -0.1925 -0.6850
 9014TIP3    H248534   2.073   1.257   3.398  0.8694  0.7581 -0.3234
 9015TIP3   OH248535   4.676   3.860  16.536  0.3433 -0.1397  0.4373
 9015TIP3    H148536   4.581   3.866  16.538  0.3880  0.4832  1.2044
 9015TIP3    H248537   4.697   3.789  16.597  0.3634 -0.5077  0.0103
 9016TIP3   OH248538   1.593   6.187   4.943  0.2724 -0.2213  0.1300
 9016TIP3    H148539   1.541   6.112   4.974 -1.8725  1.6739  1.4948
 9016TIP3    H248540   1.644   6.214   5.019 -0.1387  0.6043  0.1212
 9017TIP3   OH248541   0.819   0.837   4.700  0.1772 -0.0756 -0.3747
 9017TIP3    H148542   0.835   0.926   4.668  0.7645 -0.1064 -0.1761
 9017TIP3    H248543   0.816   0.783   4.621 -0.7560  0.1948 -0.5427
 9018TIP3   OH248544   6.705   1.825  15.315  0.3649 -0.0250  0.2270
 9018TIP3    H148545   6.680   1.789  15.400 -1.1952  0.7735  0.1357
 9018TIP3    H248546   6.666   1.764  15.251 -0.5413  0.6811  0.0897
 9019TIP3   OH248547   2.160   6.888   5.372 -0.0375  0.2719  0.8361
 9019TIP3    H148548   2.205   6.854   5.449 -0.4403 -2.3567  0.0152
 9019TIP3    H248549   2.226   6.886   5.303 -0.2123  0.7712  0.6464
 9020TIP3   OH248550   3.895   0.121  16.377  0.0215  0.5884  0.8932
 9020TIP3    H148551   3.857   0.166  16.302  1.4682  1.9310  0.9018
 9020TIP3    H248552   3.985   0.102  16.350 -0.0565 -0.8228  1.5279
 9021TIP3   OH248553   6.279   6.395  16.267 -0.8356  0.3217  0.5224
 9021TIP3    H148554   6.362   6.429  16.301 -1.0136 -0.1901  1.4895
 9021TIP3    H248555   6.283   6.413  16.173  1.3955 -1.7929  0.1163
 9022TIP3   OH248556   3.493   5.662   0.602 -0.0362  0.1629  0.3886
 9022TIP3    H148557   3.535   5.577   0.612 -0.8528 -0.2318  0.5766
 9022TIP3    H248558   3.399   5.643   0.612 -0.1201  1.3849  2.5354
 9023TIP3   OH248559   0.836   6.252  10.135 -0.4416 -0.3785  0.1426
 9023TIP3    H148560   0.752   6.293  10.110 -0.1772  0.2748  0.2934
 9023TIP3    H248561   0.816   6.159  10.144 -0.9885 -0.3363 -0.5514
 9024TIP3   OH248562   4.956   2.944   5.440 -0.1611 -0.0913  0.2417
 9024TIP3    H148563   4.891   2.940   5.369 -0.3803  3.3944  0.0720
 9024TIP3    H248564   4.905   2.960   5.519  0.3469  0.5396  0.4494
 9025TIP3   OH248565   6.640   3.959   3.957 -0.1660 -0.0365 -0.5357
 9025TIP3    H148566   6.627   3.870   3.988 -1.1119 -0.5379 -2.2343
 9025TIP3    H248567   6.660   4.009   4.036 -2.0784 -1.2848  0.8378
 9026TIP3   OH248568   1.549   1.497  11.327 -0.5686 -0.0607  0.0746
 9026TIP3    H148569   1.558   1.527  11.418  0.1176  2.1572 -0.6613
 9026TIP3    H248570   1.461   1.525  11.301 -1.0432 -1.3304  0.2371
 9027TIP3   OH248571   4.545   1.377  16.061 -0.4702  0.0636 -0.2009
 9027TIP3    H148572   4.598   1.453  16.035  0.0469  0.2711  1.3399
 9027TIP3    H248573   4.606   1.304  16.057 -0.0418  0.2885  1.4888
 9028TIP3   OH248574   2.864   1.630   3.552 -0.2176 -0.1749 -0.4215
 9028TIP3    H148575   2.951   1.638   3.511  0.1838 -0.2842  0.3857
 9028TIP3    H248576   2.859   1.704   3.612 -1.0016  0.2636 -1.0052
 9029TIP3   OH248577   3.552   0.132   3.347  0.3320  0.3765 -0.5295
 9029TIP3    H148578   3.581   0.060   3.291 -2.1157 -1.3680  0.2582
 9029TIP3    H248579   3.483   0.175   3.296  1.0954  1.5735 -0.5806
 9030TIP3   OH248580   1.097   3.569  12.434 -0.3554  0.1779 -0.5435
 9030TIP3    H148581   1.103   3.585  12.340 -0.7711  2.6819 -0.1976
 9030TIP3    H248582   1.185   3.538  12.458 -0.3530 -0.8668 -1.7673
 9031TIP3   OH248583   2.714   3.034   4.977  0.0569  0.3206 -0.2763
 9031TIP3    H148584   2.699   3.049   4.884  1.7224 -1.0358 -0.8150
 9031TIP3    H248585   2.789   2.975   4.980  0.0137  0.2940  1.9376
 9032TIP3   OH248586   1.631   5.097   3.924 -0.2485 -0.5387 -0.8267
 9032TIP3    H148587   1.681   5.016   3.912 -1.0532 -1.0556 -0.7842
 9032TIP3    H248588   1.689   5.166   3.891 -0.7382 -1.4347 -3.9166
 9033TIP3   OH248589   0.595   1.571   4.245  0.0287  0.0104 -0.0695
 9033TIP3    H148590   0.668   1.593   4.303  1.1152 -1.2477 -0.9118
 9033TIP3    H248591   0.542   1.510   4.296 -3.2285  4.3494  2.4445
 9034TIP3   OH248592   2.534   4.953  16.855 -0.2963 -0.3445 -0.0017
 9034TIP3    H148593   2.624   4.984  16.863 -0.4083 -0.1582  0.6019
 9034TIP3    H248594   2.517   4.953  16.761  0.0607  0.4184 -0.0756
 9035TIP3   OH248595   2.893   0.793   3.101 -0.1767 -0.2285  0.4678
 9035TIP3    H148596   2.939   0.709   3.095 -2.5357 -1.5982  0.4897
 9035TIP3    H248597   2.851   0.803   3.015 -0.1513  0.8220  0.5656
 9036TIP3   OH248598   5.504   1.953  11.201  0.1276  0.1952  0.1861
 9036TIP3    H148599   5.523   1.862  11.177  2.3347  0.8600 -0.8051
 9036TIP3    H248600   5.569   1.973  11.269  0.0930  1.2234 -0.0734
 9037TIP3   OH248601   3.406   4.353   4.992 -0.1145 -0.2366  0.0500
 9037TIP3    H148602   3.398   4.393   5.079 -0.0355  1.5004 -0.6972
 9037TIP3    H248603   3.328   4.298   4.984 -0.3284 -0.1106  1.0588
 9038TIP3   OH248604   2.785   0.679   4.672  0.3157 -0.2611  0.5091
 9038TIP3    H148605   2.780   0.759   4.619  0.5281 -1.6418 -1.7191
 9038TIP3    H248606   2.695   0.659   4.694  0.2451  0.4824  0.9011
 9039TIP3   OH248607   0.626   3.075   2.473 -0.6420 -0.1372 -0.4436
 9039TIP3    H148608   0.625   3.038   2.385 -0.4149 -1.3864  0.0621
 9039TIP3    H248609   0.719   3.080   2.496 -0.7401 -3.0652  1.0113
 9040TIP3   OH248610   4.321   5.011   0.607 -0.5470 -0.2312  0.1400
 9040TIP3    H148611   4.349   5.086   0.554 -1.1981  0.3387  0.5887
 9040TIP3    H248612   4.227   5.006   0.592 -0.5127 -0.9558  0.1348
 9041TIP3   OH248613   2.256   4.860  16.773 -0.5597  0.3450 -0.4731
 9041TIP3    H148614   2.347   4.850  16.800 -0.2276  4.2055  0.5248
 9041TIP3    H248615   2.205   4.844  16.852 -0.6727 -0.6590 -0.7422
 9042TIP3   OH248616   4.117   1.560  16.418  0.2055 -0.0149 -0.2400
 9042TIP3    H148617   4.194   1.515  16.450 -0.2558 -1.4252 -1.0347
 9042TIP3    H248618   4.126   1.560  16.323 -0.4199  0.4417 -0.3111
 9043TIP3   OH248619   5.306   0.098   2.503  0.4926  0.5636 -0.3178
 9043TIP3    H148620   5.395   0.089   2.537  0.1500 -1.0976  0.2675
 9043TIP3    H248621   5.316   0.103   2.408  1.2383  1.1029 -0.2154
 9044TIP3   OH248622   4.946   2.879   6.130  0.1452  0.1274  0.1590
 9044TIP3    H148623   5.035   2.870   6.096 -0.2384 -1.5564 -0.4537
 9044TIP3    H248624   4.948   2.962   6.178  1.6772  0.7754 -0.9379
 9045TIP3   OH248625   2.796   5.820  10.608  0.4390 -0.4129  0.1815
 9045TIP3    H148626   2.741   5.764  10.662  0.9789 -1.3908 -0.2549
 9045TIP3    H248627   2.786   5.786  10.519 -1.2836  1.8408 -0.5790
 9046TIP3   OH248628   0.661   1.777   5.409  0.5006 -0.3235  0.4197
 9046TIP3    H148629   0.632   1.686   5.401  0.3990 -0.2353 -0.1921
 9046TIP3    H248630   0.581   1.828   5.410  0.5785 -0.2000  0.3055
 9047TIP3   OH248631   1.961   4.745   0.918 -0.0063 -0.2734  0.5072
 9047TIP3    H148632   1.995   4.772   1.003  0.8824  0.6823 -0.1301
 9047TIP3    H248633   1.938   4.828   0.874  2.0447 -0.5347 -1.1941
 9048TIP3   OH248634   6.626   4.367  11.000  0.0631 -0.3568  0.8528
 9048TIP3    H148635   6.574   4.291  10.974  0.4774 -0.9544  1.7358
 9048TIP3    H248636   6.607   4.433  10.933  1.4798 -1.9815 -1.3192
 9049TIP3   OH248637   5.678   3.970  15.098 -0.2813 -0.2750  0.1605
 9049TIP3    H148638   5.741   3.991  15.028 -1.4276  0.8428 -0.5742
 9049TIP3    H248639   5.730   3.972  15.178  1.5123 -3.4929 -0.7210
 9050TIP3   OH248640   4.474   1.795   4.961  0.0992 -0.5982  0.3911
 9050TIP3    H148641   4.456   1.778   5.054  1.1064  2.7713  1.3335
 9050TIP3    H248642   4.388   1.802   4.920 -0.5101  1.3901  1.8777
 9051TIP3   OH248643   3.472   6.776   5.099 -0.1099  0.7161 -0.1897
 9051TIP3    H148644   3.388   6.798   5.140  0.4946  0.0234  1.5413
 9051TIP3    H248645   3.453   6.772   5.006 -2.0277  0.5000  0.1620
 9052TIP3   OH248646   1.528   0.097  12.304  0.5129  0.1403  0.2043
 9052TIP3    H148647   1.530   0.058  12.217 -0.4479  0.3261  0.0894
 9052TIP3    H248648   1.482   0.180  12.292 -0.9139 -0.4827  1.1381
 9053TIP3   OH248649   3.387   0.830  11.974 -0.3450 -0.4210 -0.3875
 9053TIP3    H148650   3.378   0.806  11.882  1.0428  0.0913 -0.6795
 9053TIP3    H248651   3.397   0.925  11.973 -1.4347 -0.2846  0.3943
 9054TIP3   OH248652   1.253   5.659   3.048  0.2522 -0.1612  0.2257
 9054TIP3    H148653   1.291   5.743   3.071  1.3616 -0.6230  0.1807
 9054TIP3    H248654   1.252   5.610   3.131  1.5868 -0.8239 -0.1220
 9055TIP3   OH248655   5.176   6.041  11.740 -0.8253 -0.1536 -0.0636
 9055TIP3    H148656   5.265   6.072  11.725 -1.5958  1.8454 -0.7394
 9055TIP3    H248657   5.185   5.945  11.745  1.5120  0.0522  1.1829
 9056TIP3   OH248658   2.400   4.187   0.878 -0.4192  0.2882 -0.7300
 9056TIP3    H148659   2.314   4.229   0.886 -0.2725  1.0600 -2.5878
 9056TIP3    H248660   2.382   4.094   0.890 -1.1510  0.6015  0.9766
 9057TIP3   OH248661   6.629   2.673  16.484  0.2785  0.0832 -0.2061
 9057TIP3    H148662   6.543   2.636  16.463  0.1727 -0.7038  1.3980
 9057TIP3    H248663   6.654   2.629  16.566  2.3214  0.1086 -0.7629
 9058TIP3   OH248664   5.608   4.137   5.021 -0.7765 -0.3367 -0.4070
 9058TIP3    H148665   5.551   4.114   4.947 -0.4481 -0.7426 -0.5335
 9058TIP3    H248666   5.548   4.142   5.096 -0.8811 -1.5115 -0.3916
 9059TIP3   OH248667   1.753   5.832  16.334  0.4929  0.1026 -0.2062
 9059TIP3    H148668   1.744   5.871  16.421 -2.1234 -1.6782  0.4414
 9059TIP3    H248669   1.786   5.903  16.279  0.3673  1.8372  1.8392
 9060TIP3   OH248670   1.582   0.997   4.706  0.3628 -0.1686 -0.1696
 9060TIP3    H148671   1.609   1.055   4.634  1.0664 -0.3077 -0.0276
 9060TIP3    H248672   1.493   0.971   4.683 -0.1436  1.3107 -0.0156
 9061TIP3   OH248673   3.391   5.998  16.600  0.1567 -0.0222 -0.2118
 9061TIP3    H148674   3.348   6.057  16.538  0.7257  0.4935 -0.1296
 9061TIP3    H248675   3.483   5.999  16.574  0.5055  0.6564  0.9807
 9062TIP3   OH248676   0.016   2.057  16.260 -0.0006  0.7877  0.2823
 9062TIP3    H148677   0.097   2.086  16.302  1.9278 -0.7709 -2.0639
 9062TIP3    H248678   0.005   2.117  16.186 -1.1697  1.1255  0.7069
 9063TIP3   OH248679   5.214   4.212   2.364  0.0901  0.3885  0.1112
 9063TIP3    H148680   5.287   4.265   2.335  2.1958 -2.4702 -0.2603
 9063TIP3    H248681   5.245   4.171   2.445 -0.8971 -1.1990 -0.2704
 9064TIP3   OH248682   1.571   1.725  10.970  0.1327  0.1124  0.2752
 9064TIP3    H148683   1.661   1.695  10.969 -0.2480 -1.0854 -0.0352
 9064TIP3    H248684   1.519   1.645  10.977 -1.0313  0.4339 -2.8154
 9065TIP3   OH248685   3.730   4.989  10.431  0.1579 -0.2186 -0.1626
 9065TIP3    H148686   3.771   4.931  10.495 -4.9478 -2.1906  1.8965
 9065TIP3    H248687   3.695   4.930  10.365 -3.2244  0.4838  0.7809
 9066TIP3   OH248688   3.423   3.317  15.955  0.0823  0.2513  0.3288
 9066TIP3    H148689   3.424   3.228  15.989 -2.0260 -0.0860 -0.3417
 9066TIP3    H248690   3.387   3.370  16.027 -0.6380  0.1890  0.0273
 9067TIP3   OH248691   5.382   3.733   3.127  0.2231  0.2840  0.2220
 9067TIP3    H148692   5.290   3.708   3.137 -0.0019  1.3886  1.2826
 9067TIP3    H248693   5.422   3.662   3.078 -1.1035 -0.4368  0.1509
 9068TIP3   OH248694   2.237   1.112  13.766 -0.0097  0.7808 -0.3655
 9068TIP3    H148695   2.160   1.144  13.812 -0.0823 -0.1366  0.1782
 9068TIP3    H248696   2.289   1.067  13.833  0.0935 -0.1922 -1.0776
 9069TIP3   OH248697   6.741   0.576   2.619  0.0435  0.6165 -0.4585
 9069TIP3    H148698   6.827   0.615   2.603  0.2218  0.3303 -0.2395
 9069TIP3    H248699   6.714   0.611   2.704  1.4764 -1.8067  1.1442
 9070TIP3   OH248700   1.232   2.615  13.364  0.4697  0.7228 -0.2109
 9070TIP3    H148701   1.309   2.660  13.400  0.4393 -1.3712  2.8560
 9070TIP3    H248702   1.157   2.656  13.407  0.4824 -2.4337  3.2698
 9071TIP3   OH248703   0.537   1.125   1.300  0.0252  0.1176 -0.1190
 9071TIP3    H148704   0.529   1.030   1.308  0.2124  0.0944 -0.2176
 9071TIP3    H248705   0.488   1.147   1.221  2.0509 -0.1842 -1.5267
 9072TIP3   OH248706   4.628   5.913  11.301  0.4095  0.3608 -0.0423
 9072TIP3    H148707   4.672   5.993  11.272 -0.7233  1.3964  0.9677
 9072TIP3    H248708   4.570   5.942  11.371  1.4734 -1.6629  1.8048
 9073TIP3   OH248709   6.726   5.724   3.067 -0.0151 -0.0024 -0.3376
 9073TIP3    H148710   6.796   5.737   3.003 -0.1081 -1.1535 -0.6936
 9073TIP3    H248711   6.682   5.644   3.039  0.1506 -0.7421  1.3299
 9074TIP3   OH248712   4.886   5.607   4.283 -0.2286 -0.0108  0.4750
 9074TIP3    H148713   4.859   5.584   4.372 -2.2634 -0.7204 -0.2524
 9074TIP3    H248714   4.881   5.702   4.279 -2.1929 -0.0747  0.5710
 9075TIP3   OH248715   0.327   3.104  15.891 -0.1806 -0.2448 -0.5760
 9075TIP3    H148716   0.414   3.131  15.920 -0.2246 -0.3389 -0.3590
 9075TIP3    H248717   0.275   3.185  15.895 -0.1143 -0.1966 -0.6713
 9076TIP3   OH248718   6.734   2.467   1.709  0.2644 -0.2359  0.7120
 9076TIP3    H148719   6.676   2.392   1.699 -0.2892  0.1513  1.0131
 9076TIP3    H248720   6.801   2.437   1.772  1.9689 -1.6066 -1.5744
 9077TIP3   OH248721   2.774   0.830   2.862  0.2555  0.3463 -0.2880
 9077TIP3    H148722   2.744   0.742   2.882  1.2173  0.1841  0.5101
 9077TIP3    H248723   2.694   0.882   2.858 -0.2011 -0.2062  1.1326
 9078TIP3   OH248724   5.885   4.818  15.106  0.4191 -0.2003  0.9059
 9078TIP3    H148725   5.906   4.733  15.144  1.5168 -0.2894  0.1492
 9078TIP3    H248726   5.831   4.861  15.172 -2.3731 -2.4424  0.3108
 9079TIP3   OH248727   1.039   4.834  12.764  0.0077 -0.0778  0.1922
 9079TIP3    H148728   1.124   4.841  12.719 -0.3565  2.6094 -0.2503
 9079TIP3    H248729   1.059   4.856  12.855  0.0929 -1.5365  0.5435
 9080TIP3   OH248730   1.197   5.713  14.616  0.5085 -0.9187  0.0440
 9080TIP3    H148731   1.253   5.697  14.540  0.9522 -1.4919  0.4876
 9080TIP3    H248732   1.182   5.808  14.615  0.2114 -0.9657 -0.9633
 9081TIP3   OH248733   6.887   2.706  10.759 -0.2469 -0.1530  0.3394
 9081TIP3    H148734   6.892   2.802  10.757 -3.3148  0.1179 -0.0079
 9081TIP3    H248735   6.902   2.683  10.851  0.4921  0.6651  0.4301
 9082TIP3   OH248736   3.387   5.645   4.220  0.0892 -0.8656 -0.2641
 9082TIP3    H148737   3.391   5.596   4.138 -2.1509 -0.3539 -0.7669
 9082TIP3    H248738   3.300   5.686   4.219 -0.1612 -1.0939  2.5092
 9083TIP3   OH248739   3.367   3.721   4.794  0.4505 -0.2288 -0.0476
 9083TIP3    H148740   3.291   3.756   4.748  0.6855 -0.8704 -0.9426
 9083TIP3    H248741   3.376   3.777   4.871  0.0272  0.8441 -0.7555
 9084TIP3   OH248742   6.194   5.505   1.142  0.6825  0.2954 -0.0154
 9084TIP3    H148743   6.178   5.486   1.049 -0.3787 -1.0333  0.4085
 9084TIP3    H248744   6.273   5.559   1.142  1.1264 -0.2905 -1.6541
 9085TIP3   OH248745   3.197   6.249   0.763  0.0761  0.5116 -0.6591
 9085TIP3    H148746   3.238   6.335   0.750 -0.5488  0.8916 -0.2121
 9085TIP3    H248747   3.231   6.219   0.848  1.5747 -0.4529 -1.5531
 9086TIP3   OH248748   0.773   2.921  11.605 -0.4126  0.3132  0.4097
 9086TIP3    H148749   0.742   3.011  11.615  1.7264  1.3026 -0.9455
 9086TIP3    H248750   0.866   2.931  11.580  0.9040 -2.3399  3.5680
 9087TIP3   OH248751   4.363   3.256  15.792 -0.3423 -0.1155  0.1363
 9087TIP3    H148752   4.362   3.351  15.784  0.9731 -0.0917  0.0612
 9087TIP3    H248753   4.299   3.237  15.862 -2.5853  0.5919 -1.5832
 9088TIP3   OH248754   4.009   1.780   3.571  0.8944  0.3991  0.7048
 9088TIP3    H148755   4.037   1.734   3.492  3.1366  1.3907  0.8391
 9088TIP3    H248756   3.929   1.827   3.544  1.4693  0.5206 -0.9053
 9089TIP3   OH248757   2.700   3.161  16.748 -0.8559  0.0240 -0.2534
 9089TIP3    H148758   2.775   3.219  16.763 -0.9488  0.1293 -0.1936
 9089TIP3    H248759   2.627   3.204  16.793 -0.7258 -0.6042  0.5807
 9090TIP3   OH248760   5.548   2.272   1.203 -0.5686  0.2038  0.0298
 9090TIP3    H148761   5.492   2.267   1.280 -0.6241 -1.3226 -0.0693
 9090TIP3    H248762   5.555   2.181   1.173  1.1471  0.4849 -0.5316
 9091TIP3   OH248763   2.242   5.215  15.956  0.2523  0.2828  0.8864
 9091TIP3    H148764   2.159   5.188  15.997  0.4717 -4.1256 -1.0183
 9091TIP3    H248765   2.215   5.266  15.879 -0.8964 -1.9957 -0.3216
 9092TIP3   OH248766   4.549   0.642  11.414  0.0298  0.1722 -0.0867
 9092TIP3    H148767   4.490   0.571  11.438  1.0608 -0.9571 -0.7379
 9092TIP3    H248768   4.567   0.688  11.496  0.5510 -1.2947  0.6490
 9093TIP3   OH248769   4.322   6.042  14.955  0.3912  0.4107  0.2766
 9093TIP3    H148770   4.323   5.998  14.870 -0.7295  1.2476 -0.1865
 9093TIP3    H248771   4.279   6.126  14.938 -2.1363 -0.3866  2.1242
 9094TIP3   OH248772   2.716   5.319   0.198  0.6021 -0.1479  0.1658
 9094TIP3    H148773   2.721   5.338   0.104  2.3668  1.6743  0.5699
 9094TIP3    H248774   2.622   5.312   0.216  0.2489 -1.4317 -1.8596
 9095TIP3   OH248775   3.520   0.321   4.071 -0.3848 -0.3040 -0.2555
 9095TIP3    H148776   3.593   0.373   4.104  0.0610 -0.3445 -1.1432
 9095TIP3    H248777   3.442   0.373   4.089 -0.1639 -0.3112  0.8065
 9096TIP3   OH248778   5.111   3.033   5.097  0.4143  0.1115  0.4149
 9096TIP3    H148779   5.071   2.958   5.054  1.5189  0.4240 -1.3033
 9096TIP3    H248780   5.185   3.056   5.040 -0.3870  3.0293  0.3540
 9097TIP3   OH248781   2.840   4.496  10.454  0.0945 -0.0423 -0.2204
 9097TIP3    H148782   2.799   4.435  10.393  1.6382 -1.0717 -0.2747
 9097TIP3    H248783   2.803   4.472  10.539  0.7418 -1.1297 -0.2299
 9098TIP3   OH248784   6.621   3.502  15.585  0.0439  0.5188 -0.2834
 9098TIP3    H148785   6.539   3.544  15.611 -2.2163 -1.7474 -3.0364
 9098TIP3    H248786   6.686   3.572  15.586 -1.7122  2.3246  2.4790
 9099TIP3   OH248787   5.430   3.771   4.806  0.1849 -0.4320  0.5175
 9099TIP3    H148788   5.392   3.713   4.740  1.0313 -0.0268 -0.3586
 9099TIP3    H248789   5.375   3.849   4.803 -0.1432 -0.6491  0.7387
 9100TIP3   OH248790   3.657   5.646   3.807 -0.0353  0.3673 -0.0858
 9100TIP3    H148791   3.570   5.674   3.780 -0.4351  0.0531  0.8276
 9100TIP3    H248792   3.676   5.699   3.885 -0.1010 -0.6856  0.6735
 9101TIP3   OH248793   2.864   1.993  10.805 -0.0559  0.1038 -0.0289
 9101TIP3    H148794   2.866   2.018  10.897 -0.6974  2.0734 -0.5075
 9101TIP3    H248795   2.932   2.046  10.764  0.2177 -0.7457 -0.7177
 9102TIP3   OH248796   1.866   6.483  13.738  0.2572  0.2056  0.3341
 9102TIP3    H148797   1.875   6.546  13.809  0.9313  0.4067  0.0813
 9102TIP3    H248798   1.942   6.500  13.681  0.6192 -1.0133  0.4172
 9103TIP3   OH248799   5.011   1.859   2.066  0.6049  0.2002 -0.3936
 9103TIP3    H148800   4.920   1.847   2.037  0.4817 -0.5417  0.2696
 9103TIP3    H248801   5.063   1.835   1.989  0.2590 -0.9763 -0.2857
 9104TIP3   OH248802   1.827   1.697  10.942 -0.2317 -0.0769 -0.4057
 9104TIP3    H148803   1.837   1.651  11.025 -1.9038  0.2334  0.0196
 9104TIP3    H248804   1.891   1.657  10.883  2.0968  0.7441  1.4311
 9105TIP3   OH248805   0.738   0.733  16.599  0.1709  0.1701  0.4046
 9105TIP3    H148806   0.819   0.681  16.597  1.1145  1.5902 -0.2400
 9105TIP3    H248807   0.745   0.791  16.523 -0.5432  1.6534  1.4185
 9106TIP3   OH248808   3.348   2.390  11.747  0.4986  0.0366  0.4394
 9106TIP3    H148809   3.286   2.326  11.712  0.4620  0.6702 -0.7180
 9106TIP3    H248810   3.296   2.444  11.805 -0.0994  0.6687 -0.6527
 9107TIP3   OH248811   2.689   5.706  14.991 -0.0561  0.2425 -0.2968
 9107TIP3    H148812   2.734   5.778  15.036 -0.1527 -0.4460  0.9397
 9107TIP3    H248813   2.757   5.662  14.942  0.1391  0.7345 -0.4789
 9108TIP3   OH248814   1.449   0.280  11.686 -0.0820 -0.1682  0.0143
 9108TIP3    H148815   1.359   0.306  11.706 -0.4606  1.0023 -2.6689
 9108TIP3    H248816   1.470   0.328  11.606  2.4847 -1.4314 -0.1756
 9109TIP3   OH248817   0.295   1.089   4.085  0.3667 -0.6063  0.4145
 9109TIP3    H148818   0.325   1.000   4.104 -0.6044 -1.2982 -1.0523
 9109TIP3    H248819   0.329   1.107   3.997 -1.1649 -0.3431 -0.1436
 9110TIP3   OH248820   4.914   4.996  11.003  0.1912 -0.0106  0.4456
 9110TIP3    H148821   4.958   4.965  10.924  0.1308  0.4491  0.2267
 9110TIP3    H248822   4.950   5.083  11.017 -0.1947  0.1227  0.6181
 9111TIP3   OH248823   1.630   3.585  15.432 -0.5125  0.2203  0.0936
 9111TIP3    H148824   1.567   3.603  15.362 -2.7616 -1.0010  1.6818
 9111TIP3    H248825   1.663   3.497  15.413 -1.0565 -0.0751  0.4805
 9112TIP3   OH248826   1.797   2.953   4.596 -0.0166 -0.4305 -0.6585
 9112TIP3    H148827   1.849   2.907   4.661  1.7253  1.6352 -0.5108
 9112TIP3    H248828   1.857   2.970   4.524 -0.8607  0.7265 -1.1260
 9113TIP3   OH248829   3.094   0.709  11.537  0.1385  0.3648 -0.1559
 9113TIP3    H148830   3.009   0.743  11.508  0.1825  0.1039 -0.6065
 9113TIP3    H248831   3.125   0.772  11.602 -0.9154 -0.1068  0.8391
 9114TIP3   OH248832   3.838   0.393   0.274 -0.1207  0.2856  0.0476
 9114TIP3    H148833   3.788   0.474   0.280  1.3696  1.1758  0.9088
 9114TIP3    H248834   3.777   0.325   0.302 -1.3779  1.0888 -0.6584
 9115TIP3   OH248835   3.439   2.424  13.435 -0.0115 -0.0731 -0.0527
 9115TIP3    H148836   3.517   2.465  13.398  0.9178 -1.0929  0.7375
 9115TIP3    H248837   3.434   2.338  13.394 -0.0270 -0.4855  0.7888
 9116TIP3   OH248838   6.627   6.258  15.804 -0.5883  0.1215  0.6539
 9116TIP3    H148839   6.625   6.272  15.898  2.3392 -0.9224  0.9982
 9116TIP3    H248840   6.618   6.163  15.794 -1.3562  0.2676 -0.1809
 9117TIP3   OH248841   0.275   4.133   0.992 -0.3396 -0.1643  0.0674
 9117TIP3    H148842   0.332   4.125   1.068 -0.4460 -2.9443 -0.0161
 9117TIP3    H248843   0.333   4.126   0.917 -0.4865  0.0182 -0.0644
 9118TIP3   OH248844   6.901   1.706  15.656 -0.1964  0.3155  0.0193
 9118TIP3    H148845   6.937   1.789  15.623 -0.9385  0.5676 -0.1856
 9118TIP3    H248846   6.940   1.696  15.743  1.4176 -0.1144 -0.7090
 9119TIP3   OH248847   6.691   0.504   5.086 -0.3361 -0.5300  0.1723
 9119TIP3    H148848   6.612   0.454   5.104 -2.0442  2.3883  1.4461
 9119TIP3    H248849   6.742   0.500   5.167 -1.1366  0.8403  0.7684
 9120TIP3   OH248850   4.800   5.452  14.341 -0.4108  0.4742 -0.1628
 9120TIP3    H148851   4.758   5.507  14.276 -0.5170  0.1311 -0.3866
 9120TIP3    H248852   4.755   5.472  14.423 -0.7512  0.3901 -0.3292
 9121TIP3   OH248853   5.445   6.709  12.838 -0.0628 -0.0069  0.2729
 9121TIP3    H148854   5.376   6.646  12.858 -2.4664  2.5662  0.6607
 9121TIP3    H248855   5.489   6.673  12.761 -1.3178 -2.0846  0.4558
 9122TIP3   OH248856   5.583   1.361  12.985  0.7841 -0.1912  0.0615
 9122TIP3    H148857   5.608   1.406  12.904  1.8279 -0.4351  0.2328
 9122TIP3    H248858   5.645   1.289  12.993  1.6796  0.6954  1.8324
 9123TIP3   OH248859   4.358   6.080  11.432 -0.2274 -0.0313  0.3298
 9123TIP3    H148860   4.427   6.116  11.487  0.4893 -0.1667 -0.4483
 9123TIP3    H248861   4.329   6.001  11.477  0.3849 -0.1669  0.4956
 9124TIP3   OH248862   6.090   0.368   5.585  0.2131 -0.1415 -0.1204
 9124TIP3    H148863   6.071   0.304   5.654  0.0665 -0.1031 -0.1238
 9124TIP3    H248864   6.004   0.386   5.546  0.2793 -0.0726 -0.2323
 9125TIP3   OH248865   5.981   1.545  11.146 -0.2162 -0.7207 -0.3054
 9125TIP3    H148866   5.974   1.497  11.228 -2.6982  1.5527  0.9640
 9125TIP3    H248867   5.978   1.637  11.172  1.4778  0.1593 -2.8180
 9126TIP3   OH248868   0.762   2.519   3.486 -0.3945 -0.0147  0.1083
 9126TIP3    H148869   0.786   2.430   3.511 -2.9406 -1.4923 -2.1675
 9126TIP3    H248870   0.666   2.516   3.478 -0.3852  2.2986 -2.1526
 9127TIP3   OH248871   6.883   6.154   1.211  0.1841  0.2377  0.8385
 9127TIP3    H148872   6.846   6.134   1.126 -1.1315  1.1280  1.1671
 9127TIP3    H248873   6.870   6.074   1.263 -0.5568  0.2490  0.6896
 9128TIP3   OH248874   2.614   3.114  16.235 -0.2485  0.1353  0.1128
 9128TIP3    H148875   2.600   3.090  16.327  0.7959 -0.5209  0.1170
 9128TIP3    H248876   2.559   3.053  16.186  0.1946 -0.3932  0.2573
 9129TIP3   OH248877   5.651   2.554  14.661  0.4948 -0.0569  0.5014
 9129TIP3    H148878   5.676   2.643  14.636  1.4244  0.0583  1.7460
 9129TIP3    H248879   5.634   2.559  14.755  0.1811 -1.1150  0.5167
 9130TIP3   OH248880   5.074   2.774  12.734  0.2212  0.1627  0.1257
 9130TIP3    H148881   5.084   2.685  12.767 -0.0737 -0.2976 -0.9579
 9130TIP3    H248882   5.146   2.784  12.670 -0.4165  0.2769 -0.5932
 9131TIP3   OH248883   0.242   3.455   4.210 -0.0141 -0.1290 -0.7744
 9131TIP3    H148884   0.169   3.509   4.180 -0.2350  0.0876  0.1311
 9131TIP3    H248885   0.319   3.491   4.165 -0.1990  0.7473 -0.4051
 9132TIP3   OH248886   4.956   5.918  12.090  0.1179 -0.1598  0.0938
 9132TIP3    H148887   4.918   5.959  12.168  0.0726 -0.7831  0.4097
 9132TIP3    H248888   5.038   5.880  12.122  0.7227  0.6530 -0.4449
 9133TIP3   OH248889   3.969   1.009   5.606 -0.1231  0.3751  0.6894
 9133TIP3    H148890   3.976   0.916   5.630  0.2788  0.4854  1.0116
 9133TIP3    H248891   4.057   1.044   5.620  0.3017  0.3151 -1.5412
 9134TIP3   OH248892   5.176   0.263   1.942 -0.2981  0.2313  0.1406
 9134TIP3    H148893   5.132   0.243   2.025  0.6182 -1.3074  0.2872
 9134TIP3    H248894   5.190   0.178   1.900 -0.5545  0.9642 -1.5137
 9135TIP3   OH248895   0.644   5.182  15.635 -0.1920  0.4747 -0.1602
 9135TIP3    H148896   0.703   5.257  15.648  0.6117 -0.2181  0.2568
 9135TIP3    H248897   0.696   5.120  15.583 -0.8916  0.2495 -0.5971
 9136TIP3   OH248898   1.865   6.101   4.474 -0.0593 -0.1268 -0.0845
 9136TIP3    H148899   1.960   6.106   4.463  0.1981 -2.0471  0.8949
 9136TIP3    H248900   1.853   6.088   4.568 -1.2884 -0.0700 -0.2224
 9137TIP3   OH248901   4.099   5.489   3.702 -0.8434 -0.4443 -0.1626
 9137TIP3    H148902   4.157   5.413   3.714  0.3857  0.5331  0.2801
 9137TIP3    H248903   4.139   5.557   3.756 -1.8611  0.5612 -0.6657
 9138TIP3   OH248904   0.744   1.155  12.920 -0.8457 -0.0410  0.4265
 9138TIP3    H148905   0.835   1.165  12.948 -0.7838  0.8427 -0.0769
 9138TIP3    H248906   0.693   1.185  12.995 -0.7016  0.6978  0.2351
 9139TIP3   OH248907   1.148   2.716  16.180  0.1354  0.5166 -0.1200
 9139TIP3    H148908   1.152   2.745  16.271  1.5556 -0.3719  0.1234
 9139TIP3    H248909   1.233   2.738  16.143 -0.3149  0.5805 -1.1600
 9140TIP3   OH248910   3.545   4.179  11.154  0.3215  0.3610  0.2383
 9140TIP3    H148911   3.509   4.137  11.233  0.4963 -0.4188 -0.0911
 9140TIP3    H248912   3.581   4.262  11.186 -0.4115  0.4717  0.8280
 9141TIP3   OH248913   1.917   3.367   1.282 -0.3921 -0.3381 -0.0156
 9141TIP3    H148914   1.864   3.404   1.212 -0.6739  0.1358  0.4433
 9141TIP3    H248915   1.864   3.296   1.318 -2.5066  2.4758  2.9656
 9142TIP3   OH248916   2.516   3.535  16.212  0.2972 -0.3787  0.1915
 9142TIP3    H148917   2.485   3.464  16.156  0.0513  0.0042 -0.1620
 9142TIP3    H248918   2.486   3.614  16.169  1.4839 -0.0085  0.0214
 9143TIP3   OH248919   1.708   4.660  14.384 -0.2633 -0.5448  0.0232
 9143TIP3    H148920   1.659   4.597  14.332 -0.5722 -0.7796  0.5854
 9143TIP3    H248921   1.646   4.731  14.401  0.4365  0.5308 -1.6370
 9144TIP3   OH248922   3.724   3.356  14.992  0.4300 -0.4702  0.0817
 9144TIP3    H148923   3.697   3.403  14.913 -0.6475 -2.1152 -0.5831
 9144TIP3    H248924   3.755   3.425  15.051 -0.2168  0.9651 -1.1743
 9145TIP3   OH248925   0.129   1.979   4.913 -0.0952  0.0127 -0.2417
 9145TIP3    H148926   0.097   2.066   4.937 -1.3343 -0.3184 -0.5935
 9145TIP3    H248927   0.187   1.993   4.839 -3.4978  0.2750 -3.1650
 9146TIP3   OH248928   3.871   6.617   1.168  0.3412 -0.0733  0.9088
 9146TIP3    H148929   3.903   6.689   1.222 -0.4465 -0.8560  2.4828
 9146TIP3    H248930   3.941   6.602   1.105 -0.2445  3.2622 -0.7261
 9147TIP3   OH248931   6.234   6.518   1.262  0.4702 -0.1937  0.4916
 9147TIP3    H148932   6.232   6.431   1.224 -4.0809  0.0919 -0.5091
 9147TIP3    H248933   6.236   6.577   1.186  1.9895  0.6170  1.1186
 9148TIP3   OH248934   1.790   6.603   0.154  0.3220  0.1865 -0.0675
 9148TIP3    H148935   1.746   6.686   0.137 -1.3589 -0.2561  1.7212
 9148TIP3    H248936   1.846   6.620   0.230  0.3471 -0.1852  0.0012
 9149TIP3   OH248937   6.722   5.731   1.016  0.7358  0.3201 -0.6978
 9149TIP3    H148938   6.760   5.709   1.101 -0.8565  0.3314  0.0526
 9149TIP3    H248939   6.772   5.679   0.953  1.6919  0.0288  0.2890
 9150TIP3   OH248940   5.270   3.403  12.548 -1.1138  0.4360 -0.6070
 9150TIP3    H148941   5.202   3.382  12.612 -1.5434 -2.9509 -1.9365
 9150TIP3    H248942   5.350   3.366  12.584 -0.7363  1.0987 -0.7454
 9151TIP3   OH248943   0.470   0.790  15.872 -0.8841  0.2154 -0.5506
 9151TIP3    H148944   0.455   0.699  15.846 -0.4191 -0.0059 -0.0656
 9151TIP3    H248945   0.383   0.828  15.879 -1.1736 -0.6396  0.8119
 9152TIP3   OH248946   1.675   5.489  14.993  0.3054 -0.1044 -0.0508
 9152TIP3    H148947   1.625   5.553  15.045  0.2125  0.1306 -0.4282
 9152TIP3    H248948   1.677   5.411  15.048  1.9204  0.7585  1.2228
 9153TIP3   OH248949   6.453   2.003  11.495  0.5259 -0.6885 -0.2808
 9153TIP3    H148950   6.418   2.035  11.412 -2.2304 -0.9811  0.6652
 9153TIP3    H248951   6.422   1.913  11.501  0.1529 -0.4835  1.3051
 9154TIP3   OH248952   3.207   0.765  12.761 -0.1469  0.2794  0.3487
 9154TIP3    H148953   3.186   0.701  12.692 -3.1848  1.7458 -0.2588
 9154TIP3    H248954   3.221   0.711  12.839  0.9058 -1.2788 -0.8383
 9155TIP3   OH248955   4.295   0.449   0.712 -0.0667 -0.6912  0.0353
 9155TIP3    H148956   4.367   0.469   0.652 -0.7062 -0.6671 -0.7389
 9155TIP3    H248957   4.218   0.441   0.655 -0.7422 -0.3768  0.8825
 9156TIP3   OH248958   2.615   5.614  11.669  0.4786  0.8043  0.1039
 9156TIP3    H148959   2.674   5.566  11.611 -1.6400 -0.7507 -0.9318
 9156TIP3    H248960   2.593   5.550  11.737 -0.9938  0.8761 -0.2792
 9157TIP3   OH248961   2.200   4.496   2.604 -0.2286 -0.0517  0.5196
 9157TIP3    H148962   2.185   4.583   2.640 -1.1187 -0.2917  0.7364
 9157TIP3    H248963   2.119   4.475   2.557  0.1104 -0.6270  0.1816
 9158TIP3   OH248964   2.794   1.371  15.648  0.5561 -0.1060  0.4270
 9158TIP3    H148965   2.726   1.310  15.618 -0.8132  0.5473  2.0186
 9158TIP3    H248966   2.873   1.318  15.654 -0.0482 -1.1603 -0.4297
 9159TIP3   OH248967   0.633   1.055   5.256 -0.5305 -0.3011  0.1021
 9159TIP3    H148968   0.692   1.127   5.236  0.3047 -0.8995  0.3478
 9159TIP3    H248969   0.691   0.982   5.278 -1.3591 -0.5100  1.7415
 9160TIP3   OH248970   2.891   5.541  16.657  0.3924 -0.3301  0.4233
 9160TIP3    H148971   2.854   5.483  16.723  0.3297 -0.0468  0.6398
 9160TIP3    H248972   2.817   5.564  16.601  0.2489  0.1886  0.8204
 9161TIP3   OH248973   5.441   1.207  11.520 -0.1269 -0.2073 -0.6513
 9161TIP3    H148974   5.443   1.173  11.430  0.2801 -0.1962 -0.6462
 9161TIP3    H248975   5.461   1.131  11.575 -0.0464 -0.1403 -0.5890
 9162TIP3   OH248976   6.847   5.004  15.486  0.5378 -0.2385  0.5456
 9162TIP3    H148977   6.767   4.953  15.470 -0.2952  0.9504  0.7669
 9162TIP3    H248978   6.835   5.039  15.575  1.1217  0.2877  0.4192
 9163TIP3   OH248979   2.283   6.809   9.831  0.1945  0.0634 -0.3425
 9163TIP3    H148980   2.201   6.773   9.864  1.3664 -1.9872  0.6063
 9163TIP3    H248981   2.279   6.798   9.736 -0.3105 -0.7995 -0.2291
 9164TIP3   OH248982   3.932   4.630   3.652 -0.7898  0.4894 -0.2345
 9164TIP3    H148983   4.002   4.691   3.675  0.2797 -0.0620 -1.8352
 9164TIP3    H248984   3.936   4.563   3.721 -2.1262  2.2432  1.6670
 9165TIP3   OH248985   4.152   5.318   9.834 -0.2445 -0.2947  0.2381
 9165TIP3    H148986   4.203   5.383   9.785 -2.4639  1.2459 -0.1990
 9165TIP3    H248987   4.182   5.327   9.925 -1.0592  2.0193  0.3396
 9166TIP3   OH248988   3.175   1.954   3.040  0.9844 -0.5884 -0.1052
 9166TIP3    H148989   3.199   2.040   3.006 -0.8413  0.9207  2.1597
 9166TIP3    H248990   3.204   1.954   3.131  0.1957 -2.0418  0.1872
 9167TIP3   OH248991   5.485   4.138   0.656  0.2829 -0.3829  0.3732
 9167TIP3    H148992   5.576   4.117   0.677 -0.2500 -2.6707  0.6584
 9167TIP3    H248993   5.454   4.185   0.733  0.9082 -0.6186  0.7827
 9168TIP3   OH248994   6.500   2.441  14.852  0.3056 -0.1348 -0.1282
 9168TIP3    H148995   6.560   2.370  14.829  0.0714 -0.5835  0.6184
 9168TIP3    H248996   6.555   2.506  14.895  0.4098 -0.1358 -0.2576
 9169TIP3   OH248997   6.598   4.256   1.127  0.3228 -0.4720 -0.0671
 9169TIP3    H148998   6.581   4.220   1.040  1.6231 -1.2728 -0.0270
 9169TIP3    H248999   6.681   4.216   1.153  0.4401  0.4990  1.1421
 9170TIP3   OH249000   0.933   0.910  13.831  0.2739 -0.6593  0.1146
 9170TIP3    H149001   0.996   0.854  13.786 -0.3441 -1.2409 -0.0378
 9170TIP3    H249002   0.855   0.856  13.840 -0.6088  0.4417 -0.7279
 9171TIP3   OH249003   3.135   2.171   4.267  0.6487  0.4194 -1.0279
 9171TIP3    H149004   3.122   2.126   4.183  0.3527  1.1831 -1.3941
 9171TIP3    H249005   3.147   2.263   4.244 -1.9027  1.0544 -0.0870
 9172TIP3   OH249006   3.820   4.070   1.455 -0.4702 -0.4598 -0.0597
 9172TIP3    H149007   3.878   4.014   1.507 -1.6633  0.4575  2.4532
 9172TIP3    H249008   3.732   4.048   1.486 -1.1795  0.7777 -1.0976
 9173TIP3   OH249009   1.893   0.411  11.217  0.0073  0.0724 -0.2464
 9173TIP3    H149010   1.822   0.444  11.161 -1.3543 -0.3956  1.1199
 9173TIP3    H249011   1.965   0.392  11.156 -1.5162 -0.7480 -1.9001
 9174TIP3   OH249012   0.526   6.814   3.447 -0.1087  0.1063 -0.2917
 9174TIP3    H149013   0.535   6.862   3.364 -0.3109  1.4020  0.4197
 9174TIP3    H249014   0.604   6.837   3.496  0.0373 -0.7080 -0.1173
 9175TIP3   OH249015   5.236   4.356  14.118 -0.2636  0.3821 -0.3003
 9175TIP3    H149016   5.279   4.429  14.162  0.2770  0.2678 -0.6219
 9175TIP3    H249017   5.304   4.288  14.113 -0.1791  0.5459 -1.6604
 9176TIP3   OH249018   6.116   5.785  13.735 -0.3285  0.3086  0.4865
 9176TIP3    H149019   6.031   5.828  13.743 -0.0736  2.1406 -3.9446
 9176TIP3    H249020   6.179   5.847  13.772 -0.5548  0.7302  0.1603
 9177TIP3   OH249021   2.401   0.877  14.644 -0.6220 -0.6368 -0.2493
 9177TIP3    H149022   2.450   0.877  14.561 -0.1537 -0.3852  0.0210
 9177TIP3    H249023   2.336   0.808  14.633 -0.2532 -0.9317 -0.6512
 9178TIP3   OH249024   3.149   3.191   3.278 -0.4982 -0.7172  0.3170
 9178TIP3    H149025   3.108   3.115   3.237  0.6581 -1.0134 -0.3481
 9178TIP3    H249026   3.200   3.154   3.351  0.5890 -0.6956 -0.4012
 9179TIP3   OH249027   3.916   4.912  11.499 -0.9951  0.5850 -0.4901
 9179TIP3    H149028   3.886   5.002  11.505 -3.8602 -0.3392  1.0205
 9179TIP3    H249029   3.904   4.888  11.407 -2.3263  1.1174 -0.4756
 9180TIP3   OH249030   4.889   1.814   5.903  0.0673 -0.2365 -0.1275
 9180TIP3    H149031   4.893   1.848   5.993 -0.4369 -0.0413 -0.1743
 9180TIP3    H249032   4.860   1.724   5.913 -1.8053  0.3203 -0.1898
 9181TIP3   OH249033   0.180   0.407  15.520  0.0611  0.7373 -0.0731
 9181TIP3    H149034   0.261   0.394  15.470 -0.0197 -0.1963  0.0218
 9181TIP3    H249035   0.173   0.329  15.575 -0.1112  1.5196  1.0510
 9182TIP3   OH249036   3.783   1.608   3.458  0.5278  0.3033 -0.7068
 9182TIP3    H149037   3.770   1.698   3.488  2.1321  0.1618  0.5383
 9182TIP3    H249038   3.821   1.563   3.533  0.1166 -1.3324 -1.4365
 9183TIP3   OH249039   4.804   5.272   4.855 -0.0422 -0.4803 -0.0022
 9183TIP3    H149040   4.732   5.212   4.833 -3.1120  1.6907  3.0425
 9183TIP3    H249041   4.841   5.237   4.935  0.9228 -0.4335 -0.4154
 9184TIP3   OH249042   2.685   1.267  10.920 -0.1792  0.0205 -0.1560
 9184TIP3    H149043   2.637   1.281  10.838  1.6548 -0.3715 -1.3497
 9184TIP3    H249044   2.748   1.338  10.923 -0.6192  0.3857  1.2733
 9185TIP3   OH249045   4.265   1.641   5.186 -0.2574 -0.3769 -0.1391
 9185TIP3    H149046   4.221   1.726   5.182 -1.5994 -1.0610 -0.6423
 9185TIP3    H249047   4.241   1.604   5.271 -0.0214 -0.4316 -0.0942
 9186TIP3   OH249048   4.635   5.672   3.425  0.5270 -0.3058  0.4794
 9186TIP3    H149049   4.642   5.607   3.495  1.5115  0.5024  1.1563
 9186TIP3    H249050   4.586   5.744   3.464 -0.1616 -0.4239 -0.1287
 9187TIP3   OH249051   4.236   0.371   5.825  0.0498 -0.1960  0.3104
 9187TIP3    H149052   4.287   0.429   5.768  2.3115  0.1210  2.4980
 9187TIP3    H249053   4.288   0.364   5.905 -1.7461 -2.6564  1.3844
 9188TIP3   OH249054   6.150   3.933  11.602 -0.0925  0.5596  0.8638
 9188TIP3    H149055   6.067   3.969  11.635 -0.1198 -0.2627  1.7402
 9188TIP3    H249056   6.124   3.863  11.543 -0.0201  0.3656  1.0623
 9189TIP3   OH249057   5.585   4.760  14.005 -0.2446 -0.3389 -0.7923
 9189TIP3    H149058   5.528   4.825  13.964  0.0658  0.8716  0.6111
 9189TIP3    H249059   5.601   4.794  14.093  0.7095 -1.8572 -0.3353
 9190TIP3   OH249060   5.334   4.279  14.484 -0.0806  0.0787  0.4118
 9190TIP3    H149061   5.263   4.223  14.451 -0.1923  0.2829  0.3043
 9190TIP3    H249062   5.413   4.240  14.447 -0.1907  0.2042  0.0335
 9191TIP3   OH249063   2.605   2.933  11.824  0.5969  0.0203 -0.3006
 9191TIP3    H149064   2.641   2.862  11.771  1.2942 -0.2431  0.5138
 9191TIP3    H249065   2.678   2.994  11.834  0.8625 -0.5411  1.4063
 9192TIP3   OH249066   5.418   5.190   1.924 -0.3161  0.1646 -0.1935
 9192TIP3    H149067   5.373   5.106   1.913  0.6520 -0.3604 -0.2291
 9192TIP3    H249068   5.472   5.198   1.845  0.2720  0.3949  0.2275
 9193TIP3   OH249069   6.306   3.404  15.401 -0.5779 -0.2949 -0.6104
 9193TIP3    H149070   6.239   3.449  15.452  0.5479  1.1751 -0.3379
 9193TIP3    H249071   6.357   3.355  15.466 -2.1509 -2.5716 -0.9692
 9194TIP3   OH249072   2.947   5.959   0.962  0.2511 -0.0164  0.1045
 9194TIP3    H149073   3.039   5.959   0.938  0.0416 -1.4815 -0.7856
 9194TIP3    H249074   2.900   5.966   0.878 -0.4499  0.5821  0.5345
 9195TIP3   OH249075   4.152   2.975   2.754  0.3176  0.0606 -0.2707
 9195TIP3    H149076   4.233   2.924   2.765  0.0790  0.0365  1.8370
 9195TIP3    H249077   4.112   2.939   2.675  0.3561 -2.8286  0.8964
 9196TIP3   OH249078   5.670   4.789   1.131 -0.0515  0.0061  0.4319
 9196TIP3    H149079   5.756   4.816   1.099 -0.0705  0.0614  0.4277
 9196TIP3    H249080   5.655   4.843   1.208 -0.1016  0.0268  0.4076
 9197TIP3   OH249081   4.096   6.670   0.185  0.2010 -0.6470  0.1064
 9197TIP3    H149082   4.002   6.658   0.190  0.3534 -1.3302  2.1119
 9197TIP3    H249083   4.132   6.581   0.194  1.0667 -0.1203  2.7647
 9198TIP3   OH249084   3.567   1.389   6.217  0.4058  0.2761 -0.5676
 9198TIP3    H149085   3.650   1.361   6.256  0.2947  1.3147  0.4441
 9198TIP3    H249086   3.544   1.470   6.263 -0.8126  0.3889 -1.3262
 9199TIP3   OH249087   0.957   3.284  12.310 -0.3376  0.3192 -0.4968
 9199TIP3    H149088   1.053   3.278  12.304 -0.4108 -2.0273 -0.1502
 9199TIP3    H249089   0.928   3.291  12.219  0.1273  0.1427 -0.6642
 9200TIP3   OH249090   5.919   2.979  13.644 -0.5109  0.9684  0.1248
 9200TIP3    H149091   5.957   3.037  13.577 -0.0340  0.0828 -0.3942
 9200TIP3    H249092   5.959   3.007  13.726 -1.9247  2.7902  0.2396
 9201TIP3   OH249093   3.473   2.567  14.163 -0.1427 -0.7129 -0.1267
 9201TIP3    H149094   3.407   2.498  14.164 -1.0911  0.1840 -0.0552
 9201TIP3    H249095   3.544   2.532  14.217 -1.3329 -0.9517  1.3471
 9202TIP3   OH249096   2.853   1.104   0.434 -0.3524  0.0017 -0.5079
 9202TIP3    H149097   2.884   1.020   0.468  3.8595  0.7311 -1.9031
 9202TIP3    H249098   2.786   1.080   0.369 -0.0501 -2.1823 -0.1014
 9203TIP3   OH249099   6.681   0.865  14.085 -0.5878 -0.3848 -0.0724
 9203TIP3    H149100   6.681   0.939  14.025  0.0840  0.2603  0.7029
 9203TIP3    H249101   6.773   0.842  14.096 -0.5192  0.6336  2.0219
 9204TIP3   OH249102   0.342   2.018   1.034  0.2531 -0.8610 -0.1721
 9204TIP3    H149103   0.418   2.076   1.034 -0.5393  0.2273 -0.3853
 9204TIP3    H249104   0.342   1.979   0.946  0.3513 -0.5664 -0.3049
 9205TIP3   OH249105   3.501   3.218  11.164  0.1799 -0.0046 -0.3958
 9205TIP3    H149106   3.418   3.247  11.201 -0.1324  0.3473 -1.3544
 9205TIP3    H249107   3.563   3.287  11.186 -0.4460  1.2108 -2.2205
 9206TIP3   OH249108   6.454   1.875   5.162  0.0177  0.0340 -0.7810
 9206TIP3    H149109   6.386   1.933   5.198  1.7620  0.1075  2.7687
 9206TIP3    H249110   6.517   1.935   5.121  0.9622  0.6117  1.3925
 9207TIP3   OH249111   1.497   2.745  12.856  0.1446 -0.0422  0.1072
 9207TIP3    H149112   1.535   2.800  12.924  0.6278  3.4564 -2.7241
 9207TIP3    H249113   1.403   2.763  12.861  0.2252  0.5389 -0.3695
 9208TIP3   OH249114   6.328   4.054  12.547  0.4539  0.6061 -0.4614
 9208TIP3    H149115   6.352   4.142  12.577  0.2988  0.6581 -0.4879
 9208TIP3    H249116   6.287   4.013  12.623 -1.7282  1.4177 -1.1332
 9209TIP3   OH249117   0.500   0.407   3.004 -0.5477 -0.4218 -0.2357
 9209TIP3    H149118   0.443   0.396   2.927 -1.2257 -1.7975  0.4290
 9209TIP3    H249119   0.504   0.502   3.017  0.0445 -0.1123 -2.2861
 9210TIP3   OH249120   1.966   3.926   0.424 -0.2520 -0.1184 -0.0788
 9210TIP3    H149121   1.942   3.838   0.453 -0.1882 -0.4515 -0.9985
 9210TIP3    H249122   1.979   3.917   0.330  2.7698  0.1766  0.2118
 9211TIP3   OH249123   2.389   6.071   3.445  0.5164  0.0970  0.3581
 9211TIP3    H149124   2.299   6.049   3.467  0.0548 -0.4682 -1.8349
 9211TIP3    H249125   2.401   6.160   3.480 -1.2802  0.6431 -0.2897
 9212TIP3   OH249126   5.271   4.234  14.753 -0.2593 -0.2788  0.9314
 9212TIP3    H149127   5.301   4.263  14.667  0.9528 -1.1620  1.0293
 9212TIP3    H249128   5.176   4.247  14.751 -0.4227 -1.3967 -0.9805
 9213TIP3   OH249129   2.189   2.994  11.218 -0.1265  0.0182 -0.2617
 9213TIP3    H149130   2.199   2.907  11.257 -0.8992 -1.0089 -2.2464
 9213TIP3    H249131   2.196   3.054  11.293 -2.3673 -1.8643  1.6518
 9214TIP3   OH249132   1.189   2.086   3.324  0.1506  0.6602  0.0864
 9214TIP3    H149133   1.195   2.006   3.376  0.8000  0.2898 -0.5299
 9214TIP3    H249134   1.157   2.152   3.384 -0.4658 -0.0840  0.5896
 9215TIP3   OH249135   0.903   4.676  14.787 -0.5575 -0.6128  0.1493
 9215TIP3    H149136   0.953   4.713  14.714 -0.2395  0.1881  0.7579
 9215TIP3    H249137   0.864   4.596  14.752  0.2441 -0.6555 -0.6580
 9216TIP3   OH249138   5.821   5.121   1.951  0.0186  0.0360  0.2351
 9216TIP3    H149139   5.913   5.128   1.924  0.3419  1.0132  1.4832
 9216TIP3    H249140   5.772   5.149   1.874  0.7451 -0.6448 -0.5001
 9217TIP3   OH249141   5.998   3.631   4.654  0.2326  0.3613  1.0069
 9217TIP3    H149142   6.085   3.613   4.687  0.5314 -0.4309 -0.1503
 9217TIP3    H249143   5.976   3.556   4.599 -0.5516  1.2320  0.0640
 9218TIP3   OH249144   3.838   6.263   0.589 -0.3213  0.5809 -0.6730
 9218TIP3    H149145   3.848   6.180   0.543  0.1811  0.5580 -0.5281
 9218TIP3    H249146   3.868   6.244   0.678 -0.9010  0.7289 -0.4428
 9219TIP3   OH249147   2.854   5.330  13.953 -0.2747 -0.1346 -0.7155
 9219TIP3    H149148   2.772   5.315  13.906  0.0505 -1.6057 -0.8618
 9219TIP3    H249149   2.893   5.243  13.961  0.5599  0.3319  0.6745
 9220TIP3   OH249150   0.008   1.550  14.145 -0.3060 -0.9744 -0.1092
 9220TIP3    H149151   0.069   1.477  14.135  2.3216  0.9189  1.0097
 9220TIP3    H249152   0.039   1.597  14.222 -2.1487  1.1062 -0.5273
 9221TIP3   OH249153   3.423   3.270  12.690 -0.3697  0.1425  0.2987
 9221TIP3    H149154   3.474   3.331  12.745 -1.8352  1.2716  0.4878
 9221TIP3    H249155   3.428   3.187  12.736  0.8583  0.3510  0.5825
 9222TIP3   OH249156   5.183   0.266  11.521  0.6843 -0.4064 -0.2167
 9222TIP3    H149157   5.221   0.339  11.472  0.0112  0.1906  0.1395
 9222TIP3    H249158   5.101   0.247  11.475  0.1536  0.0194  0.5304
 9223TIP3   OH249159   2.893   0.314   3.319  0.1821  0.6249  0.4437
 9223TIP3    H149160   2.850   0.229   3.324  1.5033 -0.0373  1.0470
 9223TIP3    H249161   2.897   0.334   3.226  1.4888 -0.8777  0.1313
 9224TIP3   OH249162   5.380   5.292   3.639  0.0304 -0.1371  0.0185
 9224TIP3    H149163   5.426   5.288   3.556 -0.6747  0.7033 -0.4301
 9224TIP3    H249164   5.335   5.208   3.646  0.0204 -0.1732 -0.4886
 9225TIP3   OH249165   4.327   2.819  14.255 -0.2671 -0.7568 -0.2478
 9225TIP3    H149166   4.299   2.896  14.303 -0.7745 -1.9285  1.4482
 9225TIP3    H249167   4.254   2.799  14.196 -0.6429 -0.6303  0.1726
 9226TIP3   OH249168   4.168   1.412   1.135  0.0018 -0.3813 -0.1299
 9226TIP3    H149169   4.150   1.361   1.056  0.5487  0.5727 -0.8973
 9226TIP3    H249170   4.239   1.472   1.110 -0.4785  0.6165  0.7873
 9227TIP3   OH249171   3.358   6.309  15.916  0.3262  0.1836  0.2861
 9227TIP3    H149172   3.299   6.381  15.937  0.7877  0.4383  0.7304
 9227TIP3    H249173   3.422   6.308  15.986  0.2788 -0.7277  0.3385
 9228TIP3   OH249174   0.702   3.903   0.138  0.0367  0.2068 -0.4802
 9228TIP3    H149175   0.655   3.839   0.192  0.2672 -1.0662 -1.7160
 9228TIP3    H249176   0.712   3.980   0.194  0.9452 -1.3086  1.5424
 9229TIP3   OH249177   3.103   2.121  15.704  0.6086 -0.6615  0.2857
 9229TIP3    H149178   3.050   2.176  15.762  0.2186  0.4093 -1.0139
 9229TIP3    H249179   3.192   2.155  15.714  0.2390  0.9138 -1.1822
 9230TIP3   OH249180   2.466   6.677  13.385 -0.0886  0.0100 -0.2486
 9230TIP3    H149181   2.449   6.662  13.293  0.2689  1.5746 -0.5956
 9230TIP3    H249182   2.561   6.689  13.391 -0.1903  0.7016  0.1833
 9231TIP3   OH249183   6.218   4.460   1.653 -0.4455 -0.2979 -0.2564
 9231TIP3    H149184   6.124   4.471   1.639 -0.4319  2.5599  1.1470
 9231TIP3    H249185   6.258   4.530   1.601  0.9366 -1.4632 -0.8235
 9232TIP3   OH249186   2.361   3.798   1.801 -0.0528 -0.0175 -0.8384
 9232TIP3    H149187   2.376   3.816   1.708 -2.4514  0.9211 -1.1088
 9232TIP3    H249188   2.426   3.732   1.824  1.5915  0.8343 -2.7814
 9233TIP3   OH249189   4.081   5.191  12.163 -1.0622  0.7035  0.4856
 9233TIP3    H149190   4.135   5.119  12.131  3.1649  2.0379  3.6788
 9233TIP3    H249191   4.029   5.153  12.234 -2.4261 -0.0062 -0.8233
 9234TIP3   OH249192   3.105   5.009   1.428 -0.6014  0.0116 -0.7151
 9234TIP3    H149193   3.055   4.937   1.390  0.2822 -0.8895 -0.2009
 9234TIP3    H249194   3.196   4.986   1.411 -0.1881 -0.2329  1.5897
 9235TIP3   OH249195   2.156   4.230  11.533 -0.2237 -0.1142  1.0390
 9235TIP3    H149196   2.191   4.209  11.620  0.1148 -0.4004  0.8393
 9235TIP3    H249197   2.067   4.260  11.549  0.6673  2.3965  1.7442
 9236TIP3   OH249198   2.888   5.079  14.346  0.1938 -0.1702 -0.3445
 9236TIP3    H149199   2.851   5.161  14.378  2.3809  0.7928 -0.0704
 9236TIP3    H249200   2.975   5.103  14.313  0.6256 -2.2655 -0.9055
 9237TIP3   OH249201   2.957   0.404   6.502  0.3244  0.2912 -0.5122
 9237TIP3    H149202   3.006   0.468   6.449  0.4513  0.9877  0.4271
 9237TIP3    H249203   2.888   0.374   6.444  1.8983 -0.8169 -1.9300
 9238TIP3   OH249204   6.181   2.834  12.054 -0.2509 -0.3490 -0.2047
 9238TIP3    H149205   6.108   2.799  12.105  0.4805 -0.9903  0.4354
 9238TIP3    H249206   6.258   2.785  12.085  0.3943  0.0454 -1.1228
 9239TIP3   OH249207   1.115   6.477   5.186 -0.4004  1.1556  0.9997
 9239TIP3    H149208   1.205   6.511   5.184  0.1931 -0.3584 -0.4367
 9239TIP3    H249209   1.087   6.488   5.277  1.7645  0.3838  1.8282
 9240TIP3   OH249210   2.854   6.515   1.927  0.1024  0.5413 -0.6458
 9240TIP3    H149211   2.897   6.438   1.889 -2.6509 -2.4951  1.7747
 9240TIP3    H249212   2.903   6.533   2.007  1.0011  1.6609 -1.4229
 9241TIP3   OH249213   2.529   4.088   2.932 -0.6793  0.6914 -0.1918
 9241TIP3    H149214   2.529   4.180   2.959  0.9769  0.9918 -1.0884
 9241TIP3    H249215   2.437   4.063   2.932 -1.1808  2.4016 -0.1183
 9242TIP3   OH249216   5.123   1.087  13.716 -0.6673  0.4231  0.5516
 9242TIP3    H149217   5.042   1.133  13.740 -0.5608  0.4361  0.8979
 9242TIP3    H249218   5.114   1.001  13.756  0.0145  0.8335  1.6395
 9243TIP3   OH249219   6.046   4.360   0.228 -0.1088 -0.3068  0.1677
 9243TIP3    H149220   6.126   4.347   0.278 -0.3835  0.7453  0.9172
 9243TIP3    H249221   5.977   4.324   0.284 -0.1824 -1.1377 -0.4391
 9244TIP3   OH249222   0.868   4.195   2.318  0.5647  0.0820  0.1528
 9244TIP3    H149223   0.836   4.201   2.228 -1.0881  1.9147  0.8040
 9244TIP3    H249224   0.808   4.135   2.361  0.3885  0.4381  0.4096
 9245TIP3   OH249225   4.938   1.489   1.055 -0.3902 -0.6729  0.5807
 9245TIP3    H149226   4.979   1.573   1.031  1.6684 -2.0602 -1.1447
 9245TIP3    H249227   4.996   1.452   1.120 -0.3781 -1.4743  0.1212
 9246TIP3   OH249228   1.390   5.825   1.990  0.1802 -0.4285  0.3524
 9246TIP3    H149229   1.481   5.808   1.964  0.4910 -2.6641  2.4736
 9246TIP3    H249230   1.396   5.857   2.080 -1.1076 -0.4149  0.4560
 9247TIP3   OH249231   6.478   4.276  15.375 -0.5134 -0.1198 -0.3895
 9247TIP3    H149232   6.384   4.256  15.375 -0.5916  0.0774  1.4424
 9247TIP3    H249233   6.520   4.192  15.392 -0.5551  0.2676  1.8645
 9248TIP3   OH249234   1.275   0.245   3.802  0.4526 -0.2398 -0.5468
 9248TIP3    H149235   1.316   0.202   3.877  1.2229  1.1192 -0.1756
 9248TIP3    H249236   1.195   0.193   3.786  0.1745 -0.4441  1.3039
 9249TIP3   OH249237   2.280   6.879  13.378  0.5912  0.2112 -0.2682
 9249TIP3    H149238   2.207   6.881  13.440 -1.0676 -1.1581 -2.0610
 9249TIP3    H249239   2.337   6.810  13.410  0.5183  0.4982  0.5047
 9250TIP3   OH249240   0.969   3.333   1.776 -0.4131 -0.4416  0.3715
 9250TIP3    H149241   0.968   3.418   1.733 -1.3315  0.5599  2.2135
 9250TIP3    H249242   1.058   3.301   1.765 -0.8865 -0.8843 -3.2780
 9251TIP3   OH249243   5.894   5.980   3.720 -0.6963 -0.8188  0.0086
 9251TIP3    H149244   5.909   6.069   3.752 -0.8557 -0.7487 -0.1079
 9251TIP3    H249245   5.889   5.990   3.625 -0.5052 -0.9827 -0.0183
 9252TIP3   OH249246   3.358   1.158  16.328 -0.1630  0.4170  0.7887
 9252TIP3    H149247   3.398   1.132  16.245  2.9507  3.0434  1.2744
 9252TIP3    H249248   3.410   1.114  16.395  0.6279  2.1313  1.3831
 9253TIP3   OH249249   6.053   4.873  16.350  0.5167 -0.6297 -1.0203
 9253TIP3    H149250   6.109   4.940  16.389 -0.7240 -0.3537  0.3857
 9253TIP3    H249251   6.060   4.887  16.255 -0.8404  2.5169 -0.7874
 9254TIP3   OH249252   0.462   1.757  13.483  0.5431  0.3834 -0.8520
 9254TIP3    H149253   0.500   1.694  13.543  1.0844 -0.1741 -1.7546
 9254TIP3    H249254   0.388   1.712  13.443 -0.9849  1.3809  0.7156
 9255TIP3   OH249255   3.820   2.436   2.097  0.5153 -0.8757 -0.4008
 9255TIP3    H149256   3.792   2.360   2.147 -0.3549 -1.2691 -1.4438
 9255TIP3    H249257   3.767   2.508   2.131  2.1798 -0.4303  1.4214
 9256TIP3   OH249258   1.806   4.781  14.113 -0.4544  0.0505  0.0301
 9256TIP3    H149259   1.769   4.729  14.185 -1.0049  0.4395  0.0336
 9256TIP3    H249260   1.744   4.770  14.041  1.1454 -2.1007 -1.1563
 9257TIP3   OH249261   0.381   4.949   1.811  0.2205 -0.5023  1.2950
 9257TIP3    H149262   0.383   4.956   1.716  2.9729  1.6939  1.3837
 9257TIP3    H249263   0.375   5.039   1.842 -1.3110 -1.2067  3.2615
 9258TIP3   OH249264   0.242   3.201   4.069  0.0528 -0.2767 -0.4589
 9258TIP3    H149265   0.318   3.151   4.037  1.4226  1.1754  0.3636
 9258TIP3    H249266   0.279   3.263   4.133 -1.5835  1.5615 -1.1835
 9259TIP3   OH249267   2.302   1.976  16.396 -0.3438  0.0520  0.2447
 9259TIP3    H149268   2.385   1.970  16.349 -0.4474 -0.3092  0.1024
 9259TIP3    H249269   2.295   2.068  16.422  1.0546 -0.2895  1.9970
 9260TIP3   OH249270   3.514   3.343  12.445 -0.1819 -0.1528 -0.0306
 9260TIP3    H149271   3.451   3.334  12.517  0.3747  0.1496  0.4967
 9260TIP3    H249272   3.570   3.266  12.452 -0.4589 -0.4015 -0.4766
 9261TIP3   OH249273   4.357   5.325   1.536  0.2679  0.6680  0.0075
 9261TIP3    H149274   4.274   5.325   1.488 -0.7446 -1.6231  1.5426
 9261TIP3    H249275   4.423   5.302   1.470 -0.8474 -0.7743 -0.6695
 9262TIP3   OH249276   1.423   5.623   1.676 -0.2313  0.1652  0.0692
 9262TIP3    H149277   1.495   5.659   1.727 -1.1831  0.3816  1.3086
 9262TIP3    H249278   1.456   5.540   1.642 -0.7754 -2.1297  4.4517
 9263TIP3   OH249279   6.470   4.302  13.824  0.0545  0.2042 -0.0097
 9263TIP3    H149280   6.559   4.322  13.793 -0.2675  1.8480  0.0515
 9263TIP3    H249281   6.475   4.315  13.918 -0.1349 -0.1625  0.0484
 9264TIP3   OH249282   2.491   5.842   3.015  0.0859  0.2436 -0.2020
 9264TIP3    H149283   2.584   5.837   3.034  0.3154  0.8924 -1.0939
 9264TIP3    H249284   2.467   5.755   2.985  0.3068 -0.0373  0.4180
 9265TIP3   OH249285   2.473   3.313  16.035 -0.3950  0.2102 -0.4045
 9265TIP3    H149286   2.516   3.231  16.058 -1.3787  0.1530  1.4650
 9265TIP3    H249287   2.382   3.289  16.019 -0.4110  0.7614 -1.2029
 9266TIP3   OH249288   4.918   4.942   1.507 -0.5216  0.2123 -0.6710
 9266TIP3    H149289   4.972   4.981   1.438  1.8630 -0.5274  0.6527
 9266TIP3    H249290   4.858   4.884   1.460  0.2880  0.5475 -2.1954
 9267TIP3   OH249291   5.542   2.516   0.345  0.1783 -0.1658  0.3375
 9267TIP3    H149292   5.629   2.519   0.386  0.3498 -2.0351  0.2118
 9267TIP3    H249293   5.558   2.487   0.256 -0.4055  1.7758 -0.4516
 9268TIP3   OH249294   5.743   5.785   4.348 -0.4546  0.1347 -0.4269
 9268TIP3    H149295   5.801   5.773   4.424 -1.8223  1.1442  0.8218
 9268TIP3    H249296   5.789   5.741   4.276  1.2828 -0.1283  0.7807
 9269TIP3   OH249297   2.370   1.503  13.772 -0.4251  0.5293  0.0569
 9269TIP3    H149298   2.318   1.435  13.728  0.6256 -0.0057 -0.4124
 9269TIP3    H249299   2.404   1.459  13.850  0.1401  0.5518 -0.1738
 9270TIP3   OH249300   5.785   5.980   0.167  0.6395  0.6437  0.1054
 9270TIP3    H149301   5.694   6.001   0.146 -0.4177 -1.2768  2.3104
 9270TIP3    H249302   5.802   5.899   0.118 -0.9756 -2.3704  3.9910
 9271TIP3   OH249303   5.222   4.007  15.283  0.4088  0.3053 -0.2940
 9271TIP3    H149304   5.154   4.050  15.232 -0.1632  0.0772  0.2525
 9271TIP3    H249305   5.303   4.053  15.260 -0.2638  2.1233  0.7452
 9272TIP3   OH249306   1.626   1.347   6.336 -0.2908 -0.2562 -0.9693
 9272TIP3    H149307   1.590   1.436   6.337 -1.5443 -0.7371 -1.4334
 9272TIP3    H249308   1.565   1.297   6.281 -0.4923 -1.7683  0.5388
 9273TIP3   OH249309   4.561   1.619   2.737 -0.2395  0.0203  0.5010
 9273TIP3    H149310   4.644   1.608   2.690  0.0815  2.1738  0.4806
 9273TIP3    H249311   4.513   1.538   2.720  0.7683 -0.1845 -1.7061
 9274TIP3   OH249312   0.000   3.034   4.081 -0.0359  0.0828 -0.4032
 9274TIP3    H149313  -0.007   3.055   4.174  1.4930 -2.0013  0.2740
 9274TIP3    H249314   0.045   3.109   4.042 -1.2431  1.2531  0.3818
 9275TIP3   OH249315   4.949   1.110  15.394  0.4512 -0.2848  0.2001
 9275TIP3    H149316   4.904   1.164  15.329  0.5883 -1.7898 -1.1963
 9275TIP3    H249317   4.895   1.031  15.400  1.4388 -0.9415  0.5525
 9276TIP3   OH249318   2.443   1.379   5.487  0.5824 -0.2245  0.3659
 9276TIP3    H149319   2.391   1.343   5.558 -3.8170 -1.3550 -2.9571
 9276TIP3    H249320   2.402   1.463   5.467  3.0925  1.1021  0.4073
 9277TIP3   OH249321   4.920   4.006   4.167 -0.4026  0.0704  0.4651
 9277TIP3    H149322   4.925   3.986   4.074  1.6405 -0.7654  0.7195
 9277TIP3    H249323   4.833   3.974   4.193 -0.3368 -1.2177 -0.7991
 9278TIP3   OH249324   3.375   2.180   1.680  0.1133 -0.1638  0.2748
 9278TIP3    H149325   3.385   2.121   1.605  0.2721 -1.6169  1.4066
 9278TIP3    H249326   3.285   2.165   1.710  0.2359 -0.0197  0.7232
 9279TIP3   OH249327   6.679   4.194   0.119 -0.2550 -0.0167  0.1245
 9279TIP3    H149328   6.636   4.132   0.061 -1.0971  1.4498 -0.8731
 9279TIP3    H249329   6.718   4.139   0.188  1.2776 -1.8601 -2.0716
 9280TIP3   OH249330   2.723   0.261   4.535 -0.4409 -0.4774  0.3813
 9280TIP3    H149331   2.755   0.212   4.459  0.6952  0.9075 -0.0678
 9280TIP3    H249332   2.801   0.302   4.572 -1.4325  1.5577  0.3290
 9281TIP3   OH249333   4.222   5.843   3.237 -0.2637  0.2472  0.1915
 9281TIP3    H149334   4.160   5.838   3.309  0.5262 -1.5584  0.8123
 9281TIP3    H249335   4.193   5.918   3.185 -1.7652  0.6424  1.5242
 9282TIP3   OH249336   2.629   6.176   2.924  0.1381  0.1279 -0.4579
 9282TIP3    H149337   2.589   6.171   3.011 -0.5777 -0.9566 -0.8434
 9282TIP3    H249338   2.721   6.154   2.940  0.6558  2.5300  0.4099
 9283TIP3   OH249339   0.306   3.253  16.664 -0.2280 -0.1217 -0.3283
 9283TIP3    H149340   0.265   3.227  16.581  0.2141 -0.0671 -0.5659
 9283TIP3    H249341   0.306   3.348  16.661 -1.3573 -0.0849  0.3032
 9284TIP3   OH249342   3.918   0.158   6.001 -0.5774  0.4721 -0.4421
 9284TIP3    H149343   3.915   0.222   5.930  0.6740 -0.8612 -1.7778
 9284TIP3    H249344   3.939   0.075   5.958 -0.0565 -0.4424  1.4537
 9285TIP3   OH249345   3.554   1.018   6.240  0.2263  0.1396 -0.4670
 9285TIP3    H149346   3.558   1.010   6.335 -2.0396 -0.1055 -0.3226
 9285TIP3    H249347   3.537   0.930   6.209  2.3553 -0.0362 -1.2701
 9286TIP3   OH249348   4.754   6.714  14.490  0.2508 -0.0829  0.0733
 9286TIP3    H149349   4.735   6.778  14.558 -1.2208 -3.0589  2.7479
 9286TIP3    H249350   4.849   6.704  14.492  0.3845  1.1315  0.4346
 9287TIP3   OH249351   3.109   5.777   3.801 -0.3345  0.3940 -0.0436
 9287TIP3    H149352   3.098   5.686   3.828  0.2392  0.5540  0.7578
 9287TIP3    H249353   3.081   5.828   3.877 -2.3288  0.9512 -1.0809
 9288TIP3   OH249354   3.280   5.217  13.490  0.0376  1.2440 -0.3443
 9288TIP3    H149355   3.231   5.144  13.452 -0.6154  1.3835  0.2093
 9288TIP3    H249356   3.371   5.191  13.482 -0.2085  0.0590  0.4296
 9289TIP3   OH249357   6.134   5.431  11.437 -0.2797  0.2765  0.2447
 9289TIP3    H149358   6.079   5.462  11.365 -2.2166  1.9978  2.3115
 9289TIP3    H249359   6.209   5.491  11.436 -0.7866  0.9179  0.2718
 9290TIP3   OH249360   6.780   2.485   1.195  0.1337  0.0271 -0.0245
 9290TIP3    H149361   6.712   2.432   1.234 -1.5809 -0.0338 -2.8128
 9290TIP3    H249362   6.800   2.441   1.112  0.7501  2.1514 -1.0745
 9291TIP3   OH249363   1.594   1.037   6.198 -0.0294  0.0719  0.6123
 9291TIP3    H149364   1.516   1.090   6.218  0.1626  0.8829 -0.6881
 9291TIP3    H249365   1.615   1.058   6.107  0.3823 -1.8504  0.2102
 9292TIP3   OH249366   0.562   0.637  11.426  0.1476 -0.0883  0.4225
 9292TIP3    H149367   0.543   0.730  11.437  1.4959  0.1757  0.7166
 9292TIP3    H249368   0.480   0.599  11.394 -0.5425  1.1198  0.7068
 9293TIP3   OH249369   6.697   0.082   4.305  0.0957 -0.2367 -0.4254
 9293TIP3    H149370   6.653   0.167   4.314 -1.5458 -0.8760 -1.9714
 9293TIP3    H249371   6.775   0.102   4.253 -0.0344  0.3991 -0.3888
 9294TIP3   OH249372   1.252   6.149  12.487  0.3197  0.7245  0.1435
 9294TIP3    H149373   1.225   6.233  12.525  1.0606  0.4430  1.3475
 9294TIP3    H249374   1.348   6.152  12.487  0.3530  0.7930 -1.9652
 9295TIP3   OH249375   1.327   2.595  11.404  0.3983  0.1890 -0.4789
 9295TIP3    H149376   1.395   2.661  11.402  1.6254 -1.0017  0.3875
 9295TIP3    H249377   1.315   2.574  11.496 -1.0507  0.2550 -0.6192
 9296TIP3   OH249378   0.980   5.875  10.670  0.1904 -1.0265  0.6048
 9296TIP3    H149379   1.065   5.871  10.626  0.4652 -0.4538  1.0762
 9296TIP3    H249380   0.998   5.851  10.761  0.4546  2.2496  1.5204
 9297TIP3   OH249381   1.975   2.165  14.809  0.0928 -0.0815 -0.3859
 9297TIP3    H149382   1.891   2.121  14.800 -2.4764  3.3636  3.1901
 9297TIP3    H249383   2.029   2.105  14.861 -0.4531 -1.9143 -1.8572
 9298TIP3   OH249384   2.910   6.705   0.572  0.8377  0.0497 -0.0177
 9298TIP3    H149385   2.814   6.697   0.574  0.9139 -0.9126  0.4999
 9298TIP3    H249386   2.926   6.786   0.524 -0.2853  0.9906  1.0980
 9299TIP3   OH249387   0.354   4.888   2.969  0.3459 -0.7427  0.1915
 9299TIP3    H149388   0.351   4.833   2.891  1.5065 -0.5026 -0.0473
 9299TIP3    H249389   0.265   4.885   3.005 -0.3587 -0.4111 -1.4421
 9300TIP3   OH249390   4.114   3.679  11.753  0.0737  0.2334  0.0079
 9300TIP3    H149391   4.167   3.660  11.676  0.6121  0.3768  0.3390
 9300TIP3    H249392   4.115   3.774  11.760  2.0397  0.1542  1.5660
 9301TIP3   OH249393   5.608   2.608   4.990 -0.1998  0.1098 -0.4764
 9301TIP3    H149394   5.519   2.640   4.976  0.3809  1.9721 -0.1640
 9301TIP3    H249395   5.620   2.540   4.923 -2.6774 -2.0276  1.0489
 9302TIP3   OH249396   5.983   6.389  14.532 -0.0205  0.0407  0.4547
 9302TIP3    H149397   6.019   6.461  14.584 -0.6676  0.5187  0.2653
 9302TIP3    H249398   5.888   6.405  14.532 -0.0257  0.1859 -1.0244
 9303TIP3   OH249399   5.526   1.011  11.683 -0.1442  0.0707 -0.5421
 9303TIP3    H149400   5.613   1.002  11.723 -0.1965  0.6989 -0.2660
 9303TIP3    H249401   5.486   0.925  11.692 -0.0889  0.1491  0.6369
 9304TIP3   OH249402   5.942   1.751  16.612 -0.1809 -0.7326  0.2037
 9304TIP3    H149403   6.017   1.797  16.650 -1.4493 -0.6562  2.8532
 9304TIP3    H249404   5.973   1.662  16.596  1.1739 -0.0463 -1.2595
 9305TIP3   OH249405   6.120   2.672   2.017  0.5706  0.0007 -0.8567
 9305TIP3    H149406   6.128   2.766   2.034  1.3341 -0.2328  0.2462
 9305TIP3    H249407   6.094   2.666   1.926 -0.2106  1.3012 -0.7409
 9306TIP3   OH249408   5.024   0.700   4.914  0.3108 -0.2021 -0.1512
 9306TIP3    H149409   4.946   0.647   4.930  0.2076 -0.1070 -0.3286
 9306TIP3    H249410   5.007   0.742   4.830  1.0152 -1.0107 -0.7208
 9307TIP3   OH249411   1.551   1.062   1.970  0.1038  0.1048 -0.3856
 9307TIP3    H149412   1.573   1.024   2.054  0.2530  0.5872 -0.2026
 9307TIP3    H249413   1.635   1.075   1.926  0.0612  0.2965 -0.4129
 9308TIP3   OH249414   4.342   2.813  13.129 -0.1594  0.4632 -0.5717
 9308TIP3    H149415   4.405   2.821  13.057  1.3212 -1.2445  0.4503
 9308TIP3    H249416   4.376   2.742  13.184 -3.1104 -0.7312 -0.0645
 9309TIP3   OH249417   4.855   2.213   4.651  0.0965 -0.4461 -0.1671
 9309TIP3    H149418   4.840   2.253   4.565 -0.0570  0.9588  0.4897
 9309TIP3    H249419   4.949   2.225   4.667  0.1531 -0.8372 -0.1988
 9310TIP3   OH249420   6.492   3.024   4.955 -0.0644 -0.0874 -0.1885
 9310TIP3    H149421   6.533   2.986   4.877 -0.9638  0.9823 -1.2153
 9310TIP3    H249422   6.523   2.968   5.027  1.3982 -0.6443 -1.1844
 9311TIP3   OH249423   0.716   5.462   0.601 -0.1137  0.4760  0.1627
 9311TIP3    H149424   0.734   5.385   0.656 -1.4633  0.1852  0.2301
 9311TIP3    H249425   0.639   5.502   0.640 -0.9736  0.3970 -1.3887
 9312TIP3   OH249426   1.913   4.314   3.980 -0.3538 -0.5656  0.0684
 9312TIP3    H149427   1.997   4.355   3.959 -0.7741  0.7290  0.7728
 9312TIP3    H249428   1.912   4.233   3.928  1.9311 -1.3570  1.1154
 9313TIP3   OH249429   1.109   4.045  14.679 -0.7349  0.0017  0.1917
 9313TIP3    H149430   1.060   4.116  14.721 -1.2770 -0.6537  0.6818
 9313TIP3    H249431   1.138   4.083  14.596 -0.2457  1.0845  0.8339
 9314TIP3   OH249432   5.767   1.395  11.543  0.1204  0.5052  0.1622
 9314TIP3    H149433   5.696   1.456  11.525 -1.1232 -0.6529  1.0248
 9314TIP3    H249434   5.743   1.352  11.625  2.1747  0.5850  0.8771
 9315TIP3   OH249435   3.880   1.348  11.764 -0.0030 -0.1995  0.4533
 9315TIP3    H149436   3.898   1.404  11.688  0.5976 -0.1373  0.6327
 9315TIP3    H249437   3.806   1.294  11.737  0.4319 -0.4342 -0.3142
 9316TIP3   OH249438   0.413   0.358   0.241 -0.5164  0.0747  0.3227
 9316TIP3    H149439   0.324   0.355   0.205  0.6629 -1.6790 -2.8607
 9316TIP3    H249440   0.460   0.418   0.184  0.7955 -0.5471  0.7057
 9317TIP3   OH249441   4.361   4.698   2.218 -0.0869  0.0534 -0.1127
 9317TIP3    H149442   4.281   4.648   2.201  0.7035 -0.9629 -1.0903
 9317TIP3    H249443   4.404   4.650   2.289 -0.4655  0.7470  0.5876
 9318TIP3   OH249444   5.300   6.787  15.496 -0.2501 -0.1404  0.1894
 9318TIP3    H149445   5.377   6.835  15.465 -0.2227 -0.4266 -0.2022
 9318TIP3    H249446   5.324   6.758  15.584  0.3810 -0.8192 -0.1819
 9319TIP3   OH249447   0.918   1.729  11.833  0.0827  0.6412  0.7834
 9319TIP3    H149448   0.987   1.746  11.769 -0.8211 -0.5615 -0.5751
 9319TIP3    H249449   0.962   1.680  11.903  0.2194 -2.6157 -1.3496
 9320TIP3   OH249450   1.257   6.661   4.151 -0.0643 -0.9705 -0.5792
 9320TIP3    H149451   1.334   6.674   4.205  0.9365 -1.5961 -1.8136
 9320TIP3    H249452   1.184   6.660   4.213  0.8461  0.1667  0.5504
 9321TIP3   OH249453   5.837   2.902  13.047  0.3467 -0.4348 -0.1417
 9321TIP3    H149454   5.882   2.870  12.969 -0.6293  1.9489 -1.8352
 9321TIP3    H249455   5.747   2.871  13.037 -0.0330  0.7493 -0.5689
 9322TIP3   OH249456   4.064   3.954  11.756 -0.0103  0.1671  0.2980
 9322TIP3    H149457   4.071   3.936  11.850 -1.3075 -1.0835  0.1857
 9322TIP3    H249458   4.154   3.974  11.729  0.5376 -0.4027  1.6203
 9323TIP3   OH249459   5.349   6.352   1.841 -0.3371  0.5097 -0.1542
 9323TIP3    H149460   5.399   6.429   1.813 -0.3815  0.3530 -0.6616
 9323TIP3    H249461   5.339   6.364   1.936 -0.3971  1.1616 -0.2372
 9324TIP3   OH249462   6.724   1.856  11.892  0.3176 -0.0789  0.0098
 9324TIP3    H149463   6.794   1.802  11.856  0.3874 -0.5223  0.7948
 9324TIP3    H249464   6.654   1.795  11.912  0.3496  0.1250  0.7976
 9325TIP3   OH249465   5.636   6.211   0.027  0.1166  0.1371  0.7681
 9325TIP3    H149466   5.580   6.213   0.104  1.2352  0.5068  1.5937
 9325TIP3    H249467   5.719   6.250   0.056  0.7108 -0.1292 -0.4951
 9326TIP3   OH249468   4.544   3.428   1.314  0.0303 -0.0002 -0.3549
 9326TIP3    H149469   4.450   3.427   1.296  0.0886 -0.8034 -0.6497
 9326TIP3    H249470   4.559   3.353   1.371  0.7277 -0.8833 -1.6322
 9327TIP3   OH249471   2.920   0.716  12.350 -0.3026  0.4612 -0.1342
 9327TIP3    H149472   2.892   0.806  12.370 -1.1262 -0.1260  1.5316
 9327TIP3    H249473   2.846   0.678  12.302 -0.0470  0.5790 -0.6362
 9328TIP3   OH249474   4.155   3.819  12.713 -0.6465  0.2817  0.0073
 9328TIP3    H149475   4.231   3.866  12.682  0.7373  0.1608  2.8621
 9328TIP3    H249476   4.080   3.865  12.675  0.7743  1.9389 -0.9039
 9329TIP3   OH249477   4.014   4.858  14.124 -0.2842  0.1485  0.3116
 9329TIP3    H149478   3.948   4.927  14.114  0.2673  0.5834 -0.5087
 9329TIP3    H249479   4.021   4.845  14.218 -0.4117  1.2222  0.4890
 9330TIP3   OH249480   4.992   0.481  16.520  0.2043  0.1981  0.1474
 9330TIP3    H149481   5.084   0.479  16.495 -0.4116 -0.2078 -2.4073
 9330TIP3    H249482   4.965   0.389  16.520  0.1999  0.0944  2.9480
 9331TIP3   OH249483   5.252   3.004   1.179  0.0741 -0.1150  0.1997
 9331TIP3    H149484   5.183   3.024   1.242 -1.9006 -0.2530 -1.8135
 9331TIP3    H249485   5.242   2.910   1.163 -0.4951  0.2107 -1.4632
 9332TIP3   OH249486   6.109   5.559  10.546 -0.1761 -0.1113 -0.6385
 9332TIP3    H149487   6.032   5.503  10.559 -0.4059  0.0489 -1.2589
 9332TIP3    H249488   6.180   5.513  10.590 -0.1749 -1.3543 -1.8540
 9333TIP3   OH249489   3.522   5.874   3.591 -0.0737  0.3157 -0.2834
 9333TIP3    H149490   3.505   5.877   3.685  0.4475  0.4134 -0.1868
 9333TIP3    H249491   3.470   5.945   3.554  0.0511  0.5455 -0.0137
 9334TIP3   OH249492   4.644   5.331  14.946  0.4227  0.1346 -0.0826
 9334TIP3    H149493   4.671   5.243  14.972  2.4889  0.1112 -2.0503
 9334TIP3    H249494   4.583   5.317  14.874 -0.6564  0.3304  0.7592
 9335TIP3   OH249495   4.079   5.885   5.379  0.0065 -0.2275  0.3117
 9335TIP3    H149496   4.143   5.924   5.440 -0.8290  2.7002 -0.4926
 9335TIP3    H249497   4.004   5.865   5.434  0.1454  0.1083  0.6349
 9336TIP3   OH249498   5.456   0.828   2.929  0.4597 -0.3925  0.2177
 9336TIP3    H149499   5.493   0.885   2.862  1.0989 -0.6073  0.3799
 9336TIP3    H249500   5.497   0.743   2.913  0.1144 -0.6092  0.4676
 9337TIP3   OH249501   6.222   2.852  14.686 -0.0826  0.1077 -0.5698
 9337TIP3    H149502   6.158   2.910  14.728 -0.1591  0.9601 -1.8113
 9337TIP3    H249503   6.284   2.912  14.644  2.0704 -0.6572  1.2684
 9338TIP3   OH249504   5.493   5.541  11.795 -0.3750 -0.4096 -0.3430
 9338TIP3    H149505   5.409   5.512  11.759 -1.1626  2.6094 -1.2036
 9338TIP3    H249506   5.539   5.580  11.721  2.2134 -2.6488 -0.0625
 9339TIP3   OH249507   0.654   0.672   2.944 -0.1269 -0.1031 -0.1219
 9339TIP3    H149508   0.690   0.736   3.006  0.3718 -1.1625  0.7035
 9339TIP3    H249509   0.613   0.726   2.876  1.4231  1.1162 -0.1354
 9340TIP3   OH249510   0.610   1.843  11.507  0.2794  0.1447 -0.5348
 9340TIP3    H149511   0.580   1.928  11.538 -0.0353  0.1041 -0.7169
 9340TIP3    H249512   0.530   1.798  11.479  0.2564 -0.8050  0.9786
 9341TIP3   OH249513   6.324   2.320   0.711  0.5358 -0.3031  0.7539
 9341TIP3    H149514   6.418   2.337   0.707  0.3256  1.3352  1.5892
 9341TIP3    H249515   6.293   2.376   0.783 -0.6193 -3.2212  2.7030
 9342TIP3   OH249516   3.476   4.145   2.706 -0.7273 -0.4853 -0.4184
 9342TIP3    H149517   3.507   4.059   2.736 -0.4070  0.1189  1.0768
 9342TIP3    H249518   3.495   4.146   2.612  1.2905 -1.2163 -0.0752
 9343TIP3   OH249519   5.488   3.043   2.951  0.1016  0.1585  0.1151
 9343TIP3    H149520   5.558   3.084   3.002 -0.6419  0.8668  0.5965
 9343TIP3    H249521   5.450   2.978   3.010 -0.4149  0.6074  0.2844
 9344TIP3   OH249522   4.974   2.047   0.422 -0.2152 -0.3089  0.2174
 9344TIP3    H149523   4.895   2.100   0.413  0.3222  0.5836  0.6262
 9344TIP3    H249524   5.001   2.059   0.513 -0.2976 -1.6148  0.4317
 9345TIP3   OH249525   6.004   6.427  10.868  0.1137 -0.6851  0.4266
 9345TIP3    H149526   6.040   6.403  10.782 -1.1832 -0.5524 -0.1779
 9345TIP3    H249527   6.016   6.349  10.922  0.6579 -0.8799  0.0366
 9346TIP3   OH249528   1.198   4.690  10.223 -0.2659 -0.8367 -0.4516
 9346TIP3    H149529   1.196   4.606  10.177 -0.0361 -0.3046 -1.4563
 9346TIP3    H249530   1.106   4.717  10.228 -0.1676  0.0009 -2.3324
 9347TIP3   OH249531   4.544   2.583   1.792 -0.2133 -0.2457 -0.0869
 9347TIP3    H149532   4.562   2.646   1.722  1.4041 -0.7043 -0.1262
 9347TIP3    H249533   4.587   2.502   1.763 -2.3079 -1.4303 -0.0735
 9348TIP3   OH249534   6.381   3.784  15.918  0.4181 -0.4962  0.6088
 9348TIP3    H149535   6.328   3.864  15.918 -0.2512 -0.8331  3.4704
 9348TIP3    H249536   6.471   3.815  15.907  0.2321  0.7511  2.3200
 9349TIP3   OH249537   0.229   2.424   2.961 -0.0840 -0.3590 -0.2669
 9349TIP3    H149538   0.203   2.411   3.052  0.2970 -0.0837 -0.1141
 9349TIP3    H249539   0.147   2.426   2.913 -0.2464 -1.3558 -0.0445
 9350TIP3   OH249540   4.703   1.894   0.253 -0.4355 -0.5451 -0.3234
 9350TIP3    H149541   4.770   1.842   0.298  0.5682  1.2623  0.4009
 9350TIP3    H249542   4.620   1.858   0.284  0.1779  0.5029  3.0343
 9351TIP3   OH249543   1.644   4.090   2.050 -0.3034 -0.1785  0.1941
 9351TIP3    H149544   1.608   4.168   2.009  0.7543  1.0400  1.4695
 9351TIP3    H249545   1.573   4.057   2.105 -0.7019 -0.0233 -0.2201
 9352TIP3   OH249546   5.366   6.745  11.582 -0.7556 -0.1938  0.3130
 9352TIP3    H149547   5.304   6.737  11.510 -1.5391  0.7076  0.8736
 9352TIP3    H249548   5.373   6.839  11.599  2.8084  0.0286 -1.4699
 9353TIP3   OH249549   0.480   3.128   3.386  0.2637 -0.5100  0.0791
 9353TIP3    H149550   0.429   3.077   3.323  0.2338 -0.1996 -0.1538
 9353TIP3    H249551   0.486   3.215   3.346 -2.9688  0.8611  2.1074
 9354TIP3   OH249552   5.736   3.630  13.421 -0.0457 -0.3842 -0.5255
 9354TIP3    H149553   5.785   3.705  13.388 -0.2442 -0.0496 -0.0777
 9354TIP3    H249554   5.803   3.570  13.455  0.0379  0.6231  1.2443
 9355TIP3   OH249555   6.706   4.916   4.510  0.0531 -0.0629 -0.2013
 9355TIP3    H149556   6.683   5.000   4.551 -3.4294 -0.5247 -0.8985
 9355TIP3    H249557   6.666   4.851   4.567  2.3041 -1.3376  0.0603
 9356TIP3   OH249558   1.787   5.876  15.033 -0.2712  0.2689  0.5029
 9356TIP3    H149559   1.826   5.962  15.048  1.4161 -0.3215 -0.2513
 9356TIP3    H249560   1.741   5.885  14.949 -0.4437  0.5307  0.6233
 9357TIP3   OH249561   3.304   6.087   1.545  0.2222 -0.0533 -0.1190
 9357TIP3    H149562   3.251   6.160   1.578  1.3114 -0.0492  1.7758
 9357TIP3    H249563   3.273   6.073   1.456 -0.4290  2.3377 -0.3376
 9358TIP3   OH249564   0.763   2.994  14.703 -0.1721  0.0563 -0.2276
 9358TIP3    H149565   0.840   2.947  14.670 -0.3428 -3.3367  3.4043
 9358TIP3    H249566   0.789   3.022  14.791 -2.1929  1.3581  0.0030
 9359TIP3   OH249567   0.419   1.298  12.327 -0.5043 -0.4217 -0.5848
 9359TIP3    H149568   0.339   1.289  12.378  0.1933  0.3762  0.7045
 9359TIP3    H249569   0.478   1.348  12.383  0.9927 -1.1926 -1.4010
 9360TIP3   OH249570   0.607   3.035  11.895  0.1749  0.4401  0.2583
 9360TIP3    H149571   0.600   2.942  11.875  2.4081  0.4690 -0.9721
 9360TIP3    H249572   0.675   3.040  11.963 -1.0203  1.0929  1.4745
 9361TIP3   OH249573   0.865   5.603   3.781 -0.2631  0.2466  0.6213
 9361TIP3    H149574   0.887   5.514   3.753  1.1014  1.0220 -0.9322
 9361TIP3    H249575   0.946   5.636   3.820 -0.6835  0.9225  0.9456
 9362TIP3   OH249576   2.000   5.602   3.735  0.0839  0.0640 -0.3164
 9362TIP3    H149577   2.021   5.508   3.738 -0.6946 -0.1629 -1.3452
 9362TIP3    H249578   2.078   5.642   3.697  1.0652  0.0848  1.5618
 9363TIP3   OH249579   3.118   2.075   1.472 -0.2433 -0.1770 -0.2757
 9363TIP3    H149580   3.199   2.027   1.489  0.3226  0.9658  0.3856
 9363TIP3    H249581   3.132   2.116   1.387  0.0465  0.3307  0.0090
 9364TIP3   OH249582   0.749   5.156  10.468  0.8981  0.0981  0.1269
 9364TIP3    H149583   0.795   5.112  10.397  1.2396 -2.1109  1.6161
 9364TIP3    H249584   0.675   5.199  10.425  0.7760 -1.6105 -1.5415
 9365TIP3   OH249585   4.609   0.785   0.860  0.1665  0.0369 -0.0618
 9365TIP3    H149586   4.526   0.791   0.813 -0.2603  1.7492  0.8167
 9365TIP3    H249587   4.583   0.774   0.952  0.9295 -0.3036  0.1160
 9366TIP3   OH249588   3.887   5.621   5.303  0.9100 -0.4933 -0.0119
 9366TIP3    H149589   3.932   5.614   5.387  0.6965  1.3631  0.3136
 9366TIP3    H249590   3.933   5.691   5.257 -0.7566  0.5057 -0.2285
 9367TIP3   OH249591   1.606   4.315  14.043 -0.1265 -0.3163  0.1361
 9367TIP3    H149592   1.514   4.305  14.017 -0.2848  0.6854  0.2741
 9367TIP3    H249593   1.650   4.238  14.006 -1.1573 -1.2402  0.7657
 9368TIP3   OH249594   3.235   6.300  16.531 -0.3424 -0.2119  0.6644
 9368TIP3    H149595   3.289   6.279  16.454 -1.3790 -2.4105  0.4495
 9368TIP3    H249596   3.203   6.388  16.514  0.7864 -0.0029 -0.6216
 9369TIP3   OH249597   2.696   5.248   5.274 -0.7362  0.7137 -0.3460
 9369TIP3    H149598   2.607   5.219   5.296 -0.3995  0.3968  0.6222
 9369TIP3    H249599   2.753   5.182   5.312 -0.0811  0.6428 -1.4036
 9370TIP3   OH249600   5.948   6.533   4.328  0.0565  0.4755 -0.4007
 9370TIP3    H149601   5.930   6.625   4.345  0.4728  0.2907  1.1918
 9370TIP3    H249602   6.012   6.508   4.395  0.7972 -0.6945 -1.4833
 9371TIP3   OH249603   2.143   0.273   4.067  0.5449 -0.1297 -0.1679
 9371TIP3    H149604   2.238   0.261   4.069  0.7333  1.2431  1.1546
 9371TIP3    H249605   2.131   0.368   4.064 -0.7709 -0.2478  0.5327
 9372TIP3   OH249606   2.346   4.975   2.004  0.3677 -0.2509 -0.6149
 9372TIP3    H149607   2.302   5.014   1.929  1.9404  1.0128 -0.9323
 9372TIP3    H249608   2.367   4.886   1.976 -0.1169 -0.1787 -1.2302
 9373TIP3   OH249609   5.785   5.518   1.440 -0.0963 -0.4185  0.3571
 9373TIP3    H149610   5.867   5.477   1.470 -0.3544 -1.0949  0.1632
 9373TIP3    H249611   5.716   5.471   1.487 -0.3215  1.1981  1.7041
 9374TIP3   OH249612   3.989   0.787  10.916 -0.0888  0.0383 -0.3395
 9374TIP3    H149613   3.950   0.800  10.830 -1.0454  1.7296  0.3123
 9374TIP3    H249614   4.070   0.837  10.913  0.5924 -1.0435 -0.6891
 9375TIP3   OH249615   3.043   5.236  16.327 -0.1119  0.0739 -0.2575
 9375TIP3    H149616   3.052   5.264  16.418  0.4885  0.2917 -0.3729
 9375TIP3    H249617   3.038   5.141  16.332  0.3844  0.0521 -0.0178
 9376TIP3   OH249618   0.576   3.902  13.932 -0.7410  0.5282 -0.0232
 9376TIP3    H149619   0.536   3.890  14.018  0.0010  1.5146  0.4859
 9376TIP3    H249620   0.509   3.875  13.869 -0.1515 -3.5427  0.8686
 9377TIP3   OH249621   0.340   6.625   5.842  0.1678 -0.6635 -0.0436
 9377TIP3    H149622   0.378   6.543   5.875  0.4641 -0.2073  0.7747
 9377TIP3    H249623   0.364   6.690   5.908  2.4215  0.7072 -2.0795
 9378TIP3   OH249624   3.992   3.359  13.176 -0.1338  0.6416 -0.1116
 9378TIP3    H149625   3.920   3.343  13.115 -0.1925  2.1605 -0.4838
 9378TIP3    H249626   4.008   3.275  13.218 -1.3981  0.0315 -0.8199
 9379TIP3   OH249627   0.158   0.441  12.356 -0.0961 -0.1698 -0.0739
 9379TIP3    H149628   0.113   0.497  12.293 -0.4152  1.3303  1.4088
 9379TIP3    H249629   0.248   0.473  12.356 -0.6374  1.5158  1.9538
 9380TIP3   OH249630   0.713   5.291   1.127 -0.4954 -0.0849  0.1428
 9380TIP3    H149631   0.713   5.252   1.214  0.4986 -0.7948 -0.1599
 9380TIP3    H249632   0.623   5.280   1.096 -0.8328  0.0891  1.0368
 9381TIP3   OH249633   0.041   1.259  15.651  0.0801 -0.0594 -0.1313
 9381TIP3    H149634  -0.038   1.220  15.690 -1.2299  1.2273 -1.4064
 9381TIP3    H249635   0.085   1.301  15.725 -0.3932 -0.8147  0.6089
 9382TIP3   OH249636   4.258   3.300  16.258  0.5156 -0.0353 -0.1063
 9382TIP3    H149637   4.219   3.253  16.184  0.6413  0.6537 -0.6236
 9382TIP3    H249638   4.327   3.353  16.218  0.8336  0.0569  0.5619
 9383TIP3   OH249639   2.867   0.351   3.047  0.2597 -0.2557 -0.1307
 9383TIP3    H149640   2.919   0.342   2.967  1.1466 -2.6607  0.6250
 9383TIP3    H249641   2.789   0.298   3.031  0.4836 -0.8293  0.6099
 9384TIP3   OH249642   6.624   5.761   5.532 -0.3628  0.7107  0.8600
 9384TIP3    H149643   6.681   5.732   5.604  0.9362  1.5175  0.1889
 9384TIP3    H249644   6.551   5.806   5.576  0.3413  1.0710  1.6907
 9385TIP3   OH249645   1.158   4.955   2.697  0.2521 -0.1992  0.2296
 9385TIP3    H149646   1.196   4.913   2.775  0.2771  0.4716  0.5892
 9385TIP3    H249647   1.233   4.998   2.654  0.6620 -2.4024 -1.4127
 9386TIP3   OH249648   4.745   5.256  15.811 -0.2139  0.0717 -0.0351
 9386TIP3    H149649   4.699   5.173  15.813  0.1538 -0.2255  3.8215
 9386TIP3    H249650   4.687   5.317  15.857 -0.2964  1.9329 -2.4167
 9387TIP3   OH249651   1.039   6.887  10.593  0.2618  0.0059 -0.0985
 9387TIP3    H149652   0.993   6.952  10.646  0.3952  0.4411 -0.5153
 9387TIP3    H249653   0.973   6.853  10.533  0.7706  1.6855 -1.7101
 9388TIP3   OH249654   0.088   3.987   3.875  0.0777  0.5254  0.6114
 9388TIP3    H149655   0.001   3.984   3.914  0.4054 -0.5987  1.2954
 9388TIP3    H249656   0.075   3.958   3.785 -0.1240 -0.6580  1.0023
 9389TIP3   OH249657   6.307   0.443   3.674  0.8509  0.1879  0.3118
 9389TIP3    H149658   6.331   0.535   3.667 -0.4840  0.6191  1.0952
 9389TIP3    H249659   6.219   0.438   3.636  1.7509 -1.1909 -1.7877
 9390TIP3   OH249660   3.565   0.408   5.297  0.1496 -0.1927  0.2595
 9390TIP3    H149661   3.628   0.371   5.359 -0.6893 -1.5094  0.3737
 9390TIP3    H249662   3.575   0.355   5.218  0.5849  0.9015 -0.4398
 9391TIP3   OH249663   2.596   6.373  10.636 -0.2406  0.2316  0.2904
 9391TIP3    H149664   2.661   6.413  10.694 -0.1079  0.2086  0.1580
 9391TIP3    H249665   2.591   6.282  10.663  1.7422 -0.4509 -1.4161
 9392TIP3   OH249666   5.355   5.579  16.328 -0.1464  0.3580 -0.4624
 9392TIP3    H149667   5.406   5.572  16.408  0.2488 -0.6613 -0.7866
 9392TIP3    H249668   5.401   5.523  16.265 -1.1914  0.0927 -1.0096
 9393TIP3   OH249669   5.865   5.513  14.747  0.6357  0.1594  0.0617
 9393TIP3    H149670   5.879   5.586  14.687 -2.6051  0.1227 -0.9530
 9393TIP3    H249671   5.879   5.435  14.694 -1.5043  0.1265 -0.5302
 9394TIP3   OH249672   6.089   4.965   4.589 -0.6253  0.2860 -0.0407
 9394TIP3    H149673   6.107   4.907   4.663 -1.9696 -1.7287 -1.1986
 9394TIP3    H249674   6.017   4.923   4.543  0.9826  0.7488 -3.2372
 9395TIP3   OH249675   0.667   5.881  16.031  0.1789  0.0023  0.2612
 9395TIP3    H149676   0.743   5.823  16.029 -0.9645 -1.5574 -0.8138
 9395TIP3    H249677   0.668   5.925  15.946  0.7849  1.2512  0.8960
 9396TIP3   OH249678   4.822   3.410  14.141  0.2492 -0.7234  0.4130
 9396TIP3    H149679   4.858   3.479  14.196 -0.4934 -1.0998  1.3957
 9396TIP3    H249680   4.829   3.444  14.052 -0.5661  0.8619  0.9140
 9397TIP3   OH249681   4.283   4.076   5.908 -0.1236  0.0238 -0.1569
 9397TIP3    H149682   4.336   4.099   5.832  1.2139 -0.5865  0.5526
 9397TIP3    H249683   4.231   4.154   5.926  1.5181  1.1428 -0.0930
 9398TIP3   OH249684   0.383   4.010  14.605  0.2188 -0.6670 -0.1909
 9398TIP3    H149685   0.458   4.046  14.558  0.5310 -2.0199 -0.7876
 9398TIP3    H249686   0.308   4.060  14.571  0.6846 -0.2342 -0.6036
 9399TIP3   OH249687   1.292   3.834  11.839  0.1087 -0.1488 -0.0097
 9399TIP3    H149688   1.348   3.781  11.782  1.2314  0.9771 -0.0269
 9399TIP3    H249689   1.306   3.924  11.808  1.5754  0.6450  2.6235
 9400TIP3   OH249690   1.332   4.629  15.856 -0.3309  0.3021  0.5171
 9400TIP3    H149691   1.411   4.580  15.834  0.1619 -0.2027  3.0600
 9400TIP3    H249692   1.268   4.561  15.878 -0.4583  0.7514  1.5673
 9401TIP3   OH249693   4.434   1.209  13.907  0.0093  0.5151 -0.2304
 9401TIP3    H149694   4.419   1.229  13.815 -0.8527 -0.3648 -0.2987
 9401TIP3    H249695   4.384   1.275  13.955  1.2526  1.5837 -0.3578
 9402TIP3   OH249696   1.491   3.260   3.628  0.1123 -0.2246 -0.4314
 9402TIP3    H149697   1.440   3.191   3.585 -0.3594 -0.3904  0.3644
 9402TIP3    H249698   1.582   3.233   3.615 -0.0182 -0.2860 -1.2807
 9403TIP3   OH249699   4.428   2.533  16.439 -0.1651 -0.0033  0.2072
 9403TIP3    H149700   4.473   2.537  16.523  0.0705 -3.4990  0.3786
 9403TIP3    H249701   4.341   2.497  16.460 -1.2643  1.9024 -0.7452
 9404TIP3   OH249702   2.946   5.462   2.531  0.2657  0.1233 -0.2887
 9404TIP3    H149703   2.978   5.551   2.543  1.1713 -0.3829  1.3548
 9404TIP3    H249704   2.855   5.472   2.505  0.3702  1.5274 -0.1805
 9405TIP3   OH249705   3.115   1.384  15.887 -0.3807  0.3803  0.4249
 9405TIP3    H149706   3.194   1.392  15.940 -1.0042 -0.4965  1.5338
 9405TIP3    H249707   3.053   1.337  15.943 -1.2559 -0.0938 -0.8901
 9406TIP3   OH249708   6.570   1.351   0.028  0.7207  0.0938  0.7638
 9406TIP3    H149709   6.629   1.356  -0.047  0.5791  1.1460  0.7029
 9406TIP3    H249710   6.485   1.329  -0.010  0.5061  1.2705  0.5116
 9407TIP3   OH249711   2.403   1.113   0.693 -0.0837  0.1849 -0.2614
 9407TIP3    H149712   2.416   1.197   0.737 -1.2087 -0.5046  1.4733
 9407TIP3    H249713   2.327   1.126   0.637 -0.2550  0.3223  0.0038
 9408TIP3   OH249714   3.248   0.756   0.690  0.5539  0.1921  0.1515
 9408TIP3    H149715   3.283   0.667   0.688 -0.3821 -0.1790  0.0971
 9408TIP3    H249716   3.310   0.807   0.638  1.7662 -0.1717  1.1990
 9409TIP3   OH249717   0.617   2.926  16.212 -0.0383  0.4609 -0.1800
 9409TIP3    H149718   0.610   2.996  16.277 -0.3967  1.2108 -0.9979
 9409TIP3    H249719   0.710   2.905  16.209 -0.1680 -0.6070  1.5919
 9410TIP3   OH249720   2.285   5.187   3.841 -0.2431 -0.1530 -0.4979
 9410TIP3    H149721   2.246   5.270   3.815  0.5783  0.4608  0.1809
 9410TIP3    H249722   2.366   5.182   3.791  0.4378  0.1661  0.5543
 9411TIP3   OH249723   2.913   1.859   1.028  0.5193 -0.3819  0.3033
 9411TIP3    H149724   2.992   1.905   1.054  0.0880  0.3379  0.3786
 9411TIP3    H249725   2.939   1.803   0.956  0.3802  2.6026 -2.2701
 9412TIP3   OH249726   4.023   3.412   4.728  0.1076 -0.2013 -0.7285
 9412TIP3    H149727   4.002   3.427   4.636  0.7954  0.4767 -0.7839
 9412TIP3    H249728   4.086   3.481   4.750  0.1888 -0.5479  0.1616
 9413TIP3   OH249729   6.832   0.702   9.824 -0.5794 -0.2159 -0.2129
 9413TIP3    H149730   6.909   0.713   9.880 -0.4431  0.2851 -0.4923
 9413TIP3    H249731   6.847   0.761   9.750 -0.8168 -0.7745 -0.7147
 9414TIP3   OH249732   4.629   1.047  12.764 -0.2098  0.1064  0.2910
 9414TIP3    H149733   4.611   0.976  12.826 -2.2940  0.7647  0.5273
 9414TIP3    H249734   4.543   1.084  12.745  0.7171  1.9167 -0.6285
 9415TIP3   OH249735   0.924   4.636   5.105  0.0753  1.0201  0.3805
 9415TIP3    H149736   0.835   4.656   5.075  0.1074 -0.5755 -0.9447
 9415TIP3    H249737   0.937   4.691   5.182 -2.0789  1.2261  0.6442
 9416TIP3   OH249738   6.864   6.169  16.007 -0.1769 -0.2305 -0.0878
 9416TIP3    H149739   6.839   6.138  16.094 -0.8138  0.8005  0.1201
 9416TIP3    H249740   6.856   6.092  15.951  1.6111 -1.2722  0.9885
 9417TIP3   OH249741   2.379   4.149  16.856 -0.0926 -0.3266 -0.2186
 9417TIP3    H149742   2.346   4.232  16.821  2.1392 -0.5153 -3.1178
 9417TIP3    H249743   2.337   4.082  16.803 -0.7234 -1.0248  1.1097
 9418TIP3   OH249744   1.487   6.307   1.686  0.0857 -0.0004  0.0632
 9418TIP3    H149745   1.416   6.257   1.645 -1.1217  1.6194  0.0775
 9418TIP3    H249746   1.443   6.372   1.740  1.5634  1.4134 -0.3492
 9419TIP3   OH249747   4.330   1.113  16.529  0.4613  0.8800  0.6261
 9419TIP3    H149748   4.398   1.047  16.534  0.5587  0.9659  0.4296
 9419TIP3    H249749   4.258   1.070  16.483 -0.3080  0.1967  2.3672
 9420TIP3   OH249750   6.471   2.740  14.058  0.0941 -0.1413 -0.1526
 9420TIP3    H149751   6.503   2.653  14.036  1.1050  0.9910 -3.8906
 9420TIP3    H249752   6.548   2.786  14.090  0.4456  0.2977 -1.5378
 9421TIP3   OH249753   5.243   6.775  13.335  0.4491  0.1330 -0.6150
 9421TIP3    H149754   5.204   6.747  13.253  1.5804 -2.5631 -0.3218
 9421TIP3    H249755   5.202   6.721  13.402  1.8253 -0.0154  0.1593
 9422TIP3   OH249756   6.133   4.337  14.826 -0.0546  0.5638  0.0624
 9422TIP3    H149757   6.162   4.385  14.903  1.6389  0.5894 -0.5676
 9422TIP3    H249758   6.128   4.404  14.757  1.5596  0.0207 -0.6222
 9423TIP3   OH249759   4.703   3.454  14.919  0.0544  0.5221 -0.4093
 9423TIP3    H149760   4.790   3.482  14.890  0.4911 -0.3933 -0.0278
 9423TIP3    H249761   4.644   3.481  14.848  0.5560  1.6588 -0.4160
 9424TIP3   OH249762   1.153   6.872  14.890  0.2143  0.8695 -0.4927
 9424TIP3    H149763   1.125   6.955  14.928  1.3950  0.2155  2.0251
 9424TIP3    H249764   1.085   6.850  14.827 -1.2258  2.6915  0.3416
 9425TIP3   OH249765   4.834   2.182  12.728  0.1482  0.4286 -0.0381
 9425TIP3    H149766   4.748   2.149  12.753  0.7705 -0.6650  0.8028
 9425TIP3    H249767   4.839   2.167  12.634 -0.9175  1.3641 -0.2586
 9426TIP3   OH249768   1.657   3.521  11.852 -0.0160 -0.1739 -0.6750
 9426TIP3    H149769   1.618   3.554  11.933  0.1762 -1.3257 -0.0859
 9426TIP3    H249770   1.740   3.482  11.880  0.2938 -0.1322 -1.5117
 9427TIP3   OH249771   3.338   4.762   1.806 -0.3101  0.4578 -0.0779
 9427TIP3    H149772   3.300   4.692   1.752 -2.0604  0.5152  0.9883
 9427TIP3    H249773   3.427   4.733   1.823 -0.3948 -0.5894 -1.2142
 9428TIP3   OH249774   1.487   1.560  13.501 -0.1241  0.4715  0.9105
 9428TIP3    H149775   1.469   1.507  13.579  0.7288 -0.9468  0.1979
 9428TIP3    H249776   1.411   1.617  13.492  0.7215  2.3387  4.0592
 9429TIP3   OH249777   5.210   5.887  15.475  0.4440 -0.7613 -0.4226
 9429TIP3    H149778   5.239   5.975  15.453  2.0396 -1.3064 -0.6530
 9429TIP3    H249779   5.123   5.879  15.436  0.3236  0.6623 -0.4785
 9430TIP3   OH249780   2.347   6.580   5.294 -0.6053 -0.1033 -0.8088
 9430TIP3    H149781   2.279   6.585   5.361  0.6602 -1.3090  0.6564
 9430TIP3    H249782   2.411   6.518   5.329  1.6153  1.4865 -1.7504
 9431TIP3   OH249783   2.941   1.702  12.447 -0.5402  0.2777 -0.0963
 9431TIP3    H149784   2.916   1.613  12.470  0.3771 -0.0853 -0.4297
 9431TIP3    H249785   2.982   1.693  12.360  3.3231  0.3159  1.5366
 9432TIP3   OH249786   6.130   5.172  10.958 -0.2537 -0.0839  0.3096
 9432TIP3    H149787   6.152   5.183  10.866 -0.6435 -3.0366 -0.2485
 9432TIP3    H249788   6.038   5.143  10.957 -0.2906 -0.0643  1.6109
 9433TIP3   OH249789   0.337   5.120   4.898  0.0827 -0.1498  0.0173
 9433TIP3    H149790   0.397   5.061   4.944 -0.3714  0.6977  1.7984
 9433TIP3    H249791   0.370   5.123   4.809  1.4248 -1.3540  0.4377
 9434TIP3   OH249792   5.315   1.917  14.046 -0.0406 -0.1048 -0.0537
 9434TIP3    H149793   5.249   1.849  14.062 -0.4478  0.6190  1.6158
 9434TIP3    H249794   5.289   1.956  13.963 -1.6276  0.0100  0.4477
 9435TIP3   OH249795   6.714   2.738   4.484 -0.0414  0.1883 -0.1877
 9435TIP3    H149796   6.654   2.717   4.414 -0.5580  1.1733 -0.0581
 9435TIP3    H249797   6.800   2.742   4.442  0.0904 -1.9315 -0.2426
 9436TIP3   OH249798   4.447   0.456   0.470  0.4117  0.2244  0.3854
 9436TIP3    H149799   4.516   0.391   0.470  1.1505  0.9944  0.0225
 9436TIP3    H249800   4.403   0.445   0.386  0.8186  0.4927  0.1385
 9437TIP3   OH249801   2.192   5.376  15.744  0.2468 -0.1514  0.2572
 9437TIP3    H149802   2.228   5.460  15.772 -1.4412  0.4248  0.7972
 9437TIP3    H249803   2.101   5.394  15.723  0.4718 -1.3167 -2.1563
 9438TIP3   OH249804   5.241   4.988   4.007 -0.1926  0.2263 -0.0829
 9438TIP3    H149805   5.197   5.001   4.091 -1.3011 -0.4241 -0.5406
 9438TIP3    H249806   5.217   4.899   3.981  2.0908 -0.4688  0.0154
 9439TIP3   OH249807   2.649   1.948   3.175 -0.2814  0.4400 -0.1147
 9439TIP3    H149808   2.703   1.900   3.112 -1.0453  0.0694 -0.5010
 9439TIP3    H249809   2.559   1.919   3.156 -0.3944 -1.2914  2.4793
 9440TIP3   OH249810   1.365   6.255  14.922 -0.2442 -0.1438 -0.1387
 9440TIP3    H149811   1.448   6.250  14.875 -0.9684 -0.9330 -1.3849
 9440TIP3    H249812   1.360   6.346  14.952  0.4466  0.2684 -1.2096
 9441TIP3   OH249813   0.490   3.327  10.575 -0.3386 -0.7672  0.1357
 9441TIP3    H149814   0.460   3.337  10.485 -1.1839 -0.9771  0.3793
 9441TIP3    H249815   0.462   3.408  10.618  0.1057 -0.6468  0.1950
 9442TIP3   OH249816   6.554   2.855  10.360  0.4200  0.1807 -0.9581
 9442TIP3    H149817   6.501   2.884  10.286 -1.5500 -0.0236  0.2926
 9442TIP3    H249818   6.583   2.767  10.336 -1.5364 -0.5285 -0.8721
 9443TIP3   OH249819   0.576   1.945   5.123 -0.4516  0.1962 -0.5734
 9443TIP3    H149820   0.625   2.013   5.168 -0.8570 -0.0684  0.2866
 9443TIP3    H249821   0.542   1.889   5.193 -1.7844  0.2359 -1.1475
 9444TIP3   OH249822   6.673   1.673  14.116 -0.1647 -0.7408 -0.2528
 9444TIP3    H149823   6.657   1.681  14.210 -1.5892  0.8300 -0.5829
 9444TIP3    H249824   6.766   1.651  14.109  1.4793  4.1750  1.4490
 9445TIP3   OH249825   3.139   6.599   3.225  0.5157  0.0547  0.4945
 9445TIP3    H149826   3.140   6.694   3.227  0.0780  0.0767 -0.0057
 9445TIP3    H249827   3.138   6.572   3.317 -0.6239  0.5570  0.6426
 9446TIP3   OH249828   4.695   0.281  10.613  0.6398 -0.7354 -0.1709
 9446TIP3    H149829   4.686   0.270  10.519  0.7515 -1.2802 -0.1239
 9446TIP3    H249830   4.610   0.316  10.641  0.2774 -1.4403 -0.3558
 9447TIP3   OH249831   6.460   5.643   0.847  0.3346 -0.0275 -0.2384
 9447TIP3    H149832   6.432   5.628   0.757  0.7738 -1.3758 -0.1726
 9447TIP3    H249833   6.536   5.586   0.859  0.2744  0.1115  0.9975
 9448TIP3   OH249834   5.116   3.644  14.986  0.3094 -0.2581 -0.2675
 9448TIP3    H149835   5.202   3.681  14.967  0.7996 -0.4184  1.4033
 9448TIP3    H249836   5.085   3.694  15.061 -1.4620  0.3633 -1.3660
 9449TIP3   OH249837   5.950   5.364  10.828 -0.0242 -0.5014  0.1251
 9449TIP3    H149838   5.960   5.276  10.865 -1.1379 -0.3816  0.7463
 9449TIP3    H249839   5.916   5.348  10.740  0.6895 -0.7177 -0.1193
 9450TIP3   OH249840   3.676   3.111  11.828  0.6092  0.1160 -0.7332
 9450TIP3    H149841   3.676   3.206  11.837  0.2540  0.0438  0.0601
 9450TIP3    H249842   3.652   3.096  11.736 -0.7972  0.7688 -0.4919
 9451TIP3   OH249843   2.244   2.388  14.328 -0.3367 -0.3478  0.0863
 9451TIP3    H149844   2.332   2.378  14.365 -0.1230  1.3029  0.0885
 9451TIP3    H249845   2.185   2.379  14.403  0.0750  2.5932  0.8760
 9452TIP3   OH249846   6.489   0.424  10.876  0.7067 -0.6648 -0.4368
 9452TIP3    H149847   6.423   0.354  10.872  0.0623 -0.0203 -2.7232
 9452TIP3    H249848   6.441   0.500  10.908  0.7972 -0.6767 -0.2765
 9453TIP3   OH249849   5.891   6.290   2.256 -0.0489 -0.0884  0.4354
 9453TIP3    H149850   5.954   6.330   2.195 -1.7100  2.3288  0.1843
 9453TIP3    H249851   5.858   6.214   2.209  1.0124 -0.0870 -0.3557
 9454TIP3   OH249852   4.743   2.229  12.316 -0.2321 -0.2210  0.2919
 9454TIP3    H149853   4.751   2.143  12.276 -1.8902  0.7217 -2.3134
 9454TIP3    H249854   4.814   2.280  12.278 -0.1644 -0.0196  0.6810
 9455TIP3   OH249855   1.725   1.362  13.408 -0.0744 -0.1389  0.3898
 9455TIP3    H149856   1.681   1.432  13.458 -0.9856 -1.5896  1.7002
 9455TIP3    H249857   1.817   1.371  13.431  0.0483  1.4535 -0.5255
 9456TIP3   OH249858   3.484   5.155  14.740 -0.2784 -0.0400  0.3338
 9456TIP3    H149859   3.444   5.193  14.661 -0.2972 -2.1090 -0.7094
 9456TIP3    H249860   3.499   5.231  14.797 -1.7935  1.3216 -0.9524
 9457TIP3   OH249861   0.141   6.129  13.226 -0.8972 -0.3952  0.4992
 9457TIP3    H149862   0.053   6.130  13.262 -0.9396 -1.1495  0.4289
 9457TIP3    H249863   0.157   6.038  13.203  0.4143 -0.5367  1.7900
 9458TIP3   OH249864   2.055   0.299  11.408 -0.2270  0.1274  0.7156
 9458TIP3    H149865   2.003   0.336  11.336 -0.1805 -1.3559 -0.1374
 9458TIP3    H249866   2.140   0.342  11.400 -0.4851  0.5913  0.3967
 9459TIP3   OH249867   0.777   6.564   1.588  0.3645  0.0981  0.5723
 9459TIP3    H149868   0.835   6.490   1.602 -0.3501 -0.4476  0.7299
 9459TIP3    H249869   0.815   6.612   1.514 -0.3759 -1.6921 -1.0450
 9460TIP3   OH249870   5.818   0.905   2.872 -0.0767 -1.1802 -0.4763
 9460TIP3    H149871   5.744   0.917   2.813 -0.7642  1.2390  0.7504
 9460TIP3    H249872   5.788   0.839   2.935 -0.8996 -0.8117 -0.4656
 9461TIP3   OH249873   3.607   5.625  11.539 -0.0052 -0.1115  0.3813
 9461TIP3    H149874   3.566   5.684  11.602  1.0248  2.1200 -0.9153
 9461TIP3    H249875   3.683   5.674  11.507  2.3107 -3.0731  0.9078
 9462TIP3   OH249876   1.221   0.660   1.113  0.2342 -0.7156 -0.1843
 9462TIP3    H149877   1.229   0.728   1.047  1.2775  0.0274  0.6656
 9462TIP3    H249878   1.255   0.700   1.193  0.2315 -2.0126  0.4943
 9463TIP3   OH249879   2.949   2.757   3.345 -0.1431 -0.1088  0.3197
 9463TIP3    H149880   2.936   2.710   3.427  1.1445  0.2254  0.7458
 9463TIP3    H249881   3.019   2.710   3.301  1.4033  1.5004  0.9003
 9464TIP3   OH249882   2.894   2.400   3.481 -0.1709 -0.4013  0.0187
 9464TIP3    H149883   2.925   2.392   3.391 -1.2980  0.3862 -0.4676
 9464TIP3    H249884   2.938   2.477   3.516  0.0414 -0.5353  0.0504
 9465TIP3   OH249885   2.313   1.393  10.874  0.1762  0.1300 -0.0775
 9465TIP3    H149886   2.388   1.443  10.843  0.9064 -1.0882 -0.3690
 9465TIP3    H249887   2.348   1.340  10.946 -0.4284 -0.3818 -0.1481
 9466TIP3   OH249888   3.005   3.008  15.749  0.6763  0.1222 -0.1995
 9466TIP3    H149889   3.045   2.957  15.679 -0.3194  1.2585 -1.6475
 9466TIP3    H249890   3.046   3.095  15.742 -0.0147  0.4781  0.0925
 9467TIP3   OH249891   0.973   0.185   5.207 -1.1145  0.2013  0.4420
 9467TIP3    H149892   0.885   0.163   5.177 -0.7889 -1.1652  0.4005
 9467TIP3    H249893   1.022   0.206   5.128 -1.1534 -0.0130  0.3602
 9468TIP3   OH249894   4.342   3.998   0.282 -0.0194 -0.2270 -0.2365
 9468TIP3    H149895   4.318   3.978   0.372 -0.4423 -2.2012 -0.7440
 9468TIP3    H249896   4.272   4.056   0.250 -0.8336 -0.9748  0.1678
 9469TIP3   OH249897   3.823   5.899  15.459 -0.3010  0.1626  0.1571
 9469TIP3    H149898   3.899   5.944  15.423 -0.8875  0.7931 -0.3252
 9469TIP3    H249899   3.849   5.875  15.548  0.0599  1.3878  0.4036
 9470TIP3   OH249900   1.547   6.268  11.060  0.1067  0.1324 -0.3181
 9470TIP3    H149901   1.615   6.336  11.053  1.1447 -0.7151  1.0831
 9470TIP3    H249902   1.595   6.186  11.062 -0.9240 -0.4827  0.8377
 9471TIP3   OH249903   0.735   1.253  13.857  0.0506 -0.1697 -0.0810
 9471TIP3    H149904   0.669   1.307  13.900  1.1814  0.6705  0.6716
 9471TIP3    H249905   0.776   1.312  13.793  1.3043 -0.1003  0.7545
 9472TIP3   OH249906   1.199   3.467  11.907  0.3007 -0.0984  0.0918
 9472TIP3    H149907   1.231   3.513  11.830  2.0106  1.3624  1.5882
 9472TIP3    H249908   1.259   3.393  11.917  1.9274  1.3351  1.5770
 9473TIP3   OH249909   0.655   4.120  11.268  0.0888  0.2039 -0.7497
 9473TIP3    H149910   0.571   4.087  11.235  0.2504  1.0972 -2.1176
 9473TIP3    H249911   0.661   4.209  11.234  2.4467 -0.4649 -2.2929
 9474TIP3   OH249912   0.247   2.239   1.716 -0.1670  0.0175  0.0115
 9474TIP3    H149913   0.206   2.319   1.751  0.0073 -0.2057  0.7371
 9474TIP3    H249914   0.208   2.229   1.629 -0.3406  0.7824 -0.0086
 9475TIP3   OH249915   4.031   4.463  13.123 -0.1046 -0.9570 -0.0806
 9475TIP3    H149916   3.975   4.469  13.046  0.7673 -2.2551 -0.8608
 9475TIP3    H249917   4.118   4.486  13.092  0.0588 -0.3740  0.7861
 9476TIP3   OH249918   0.973   4.667  12.140  0.0115  0.2097 -0.3929
 9476TIP3    H149919   1.050   4.620  12.174 -0.2191 -0.9097 -1.3767
 9476TIP3    H249920   0.902   4.643  12.200  0.0191 -0.2487 -0.5665
 9477TIP3   OH249921   1.441   4.781  16.073  0.8457  0.0406  0.1156
 9477TIP3    H149922   1.405   4.751  15.990 -1.4841 -1.3496  1.5196
 9477TIP3    H249923   1.366   4.814  16.122  1.8502 -0.6563  2.2758
 9478TIP3   OH249924   5.682   3.145  15.435 -0.0352 -0.0275 -0.4434
 9478TIP3    H149925   5.686   3.161  15.341 -2.2518  1.8473 -0.3146
 9478TIP3    H249926   5.732   3.217  15.474 -0.9286  0.4415 -0.1448
 9479TIP3   OH249927   0.209   1.084   6.189 -0.2289  0.4027  0.3801
 9479TIP3    H149928   0.288   1.033   6.171 -1.1665 -0.6139 -1.1172
 9479TIP3    H249929   0.198   1.139   6.111 -1.6978 -0.4535 -0.0617
 9480TIP3   OH249930   3.378   5.051  11.620 -0.3594  0.9275  0.0559
 9480TIP3    H149931   3.344   5.037  11.708  1.6879  0.5173  0.8382
 9480TIP3    H249932   3.419   5.137  11.624 -0.1991  0.8809 -0.4828
 9481TIP3   OH249933   3.660   0.417  13.651 -0.1975 -0.0578  0.4124
 9481TIP3    H149934   3.706   0.341  13.616 -0.2059  0.1030  0.0567
 9481TIP3    H249935   3.604   0.381  13.720 -0.1462 -0.3625  0.2952
 9482TIP3   OH249936   1.374   3.630  16.826 -0.9175  0.0383  0.2484
 9482TIP3    H149937   1.312   3.568  16.865 -2.5904  0.7497 -1.1105
 9482TIP3    H249938   1.323   3.710  16.815  0.5420  0.9556 -0.0847
 9483TIP3   OH249939   0.400   1.044   2.020 -0.4989 -0.2518 -0.3193
 9483TIP3    H149940   0.476   1.094   2.049 -0.3432 -0.0115 -1.1264
 9483TIP3    H249941   0.377   0.990   2.096 -0.7559  1.1297  0.6248
 9484TIP3   OH249942   5.766   1.032  14.419  0.1959  0.0054  0.1058
 9484TIP3    H149943   5.795   1.041  14.328  1.6233  0.6072  0.5886
 9484TIP3    H249944   5.671   1.022  14.413  0.4618 -2.2904 -1.5683
 9485TIP3   OH249945   5.730   4.360  11.287  0.1515  0.1593  0.0478
 9485TIP3    H149946   5.741   4.442  11.334  1.1557 -0.2524  0.5659
 9485TIP3    H249947   5.704   4.297  11.355 -1.6029  0.2412 -0.5017
 9486TIP3   OH249948   5.325   5.841  13.360 -0.4100  0.4714  0.0671
 9486TIP3    H149949   5.370   5.821  13.442  0.9143 -0.6415 -0.8995
 9486TIP3    H249950   5.274   5.920  13.380  0.7393  0.8667  1.6463
 9487TIP3   OH249951   6.084   0.901  13.112 -0.2771 -0.1197  0.0095
 9487TIP3    H149952   6.109   0.941  13.029  0.4949  0.9430  0.7143
 9487TIP3    H249953   6.100   0.808  13.101 -1.0263 -0.1181 -1.3118
 9488TIP3   OH249954   3.421   4.212  10.918 -0.5965  0.3729 -0.2688
 9488TIP3    H149955   3.398   4.124  10.887 -2.4950  0.3404  1.0654
 9488TIP3    H249956   3.461   4.196  11.004  0.1253  0.7558 -0.5317
 9489TIP3   OH249957   4.806   4.598  15.822  0.2401 -0.6331 -0.0877
 9489TIP3    H149958   4.869   4.665  15.851 -0.3308 -0.8743  1.8585
 9489TIP3    H249959   4.751   4.643  15.757  0.8831  0.2966 -0.0185
 9490TIP3   OH249960   3.328   5.247  16.565 -0.0914  0.5704  0.2999
 9490TIP3    H149961   3.365   5.273  16.649 -0.0536  1.5916 -0.0243
 9490TIP3    H249962   3.245   5.293  16.560  0.5972  1.7455 -0.8845
 9491TIP3   OH249963   0.412   0.511   2.528 -0.7325  0.6909  0.3379
 9491TIP3    H149964   0.437   0.599   2.502 -0.1341  0.8726  1.4761
 9491TIP3    H249965   0.493   0.471   2.561 -1.1434 -0.0368  0.5053
 9492TIP3   OH249966   4.786   2.839  12.173 -0.4517 -0.3750  0.5846
 9492TIP3    H149967   4.832   2.825  12.256 -0.8551  0.0607  0.8875
 9492TIP3    H249968   4.855   2.845  12.108 -0.1560 -1.4402  0.7755
 9493TIP3   OH249969   1.205   4.155   5.784 -0.1435  0.0679  0.4652
 9493TIP3    H149970   1.233   4.127   5.696  0.6445 -1.2248  1.1038
 9493TIP3    H249971   1.124   4.204   5.768 -0.4572 -0.8276 -0.9223
 9494TIP3   OH249972   5.217   6.892  16.338  0.3470 -0.1281 -0.3843
 9494TIP3    H149973   5.259   6.825  16.284  0.2473  2.1061 -3.5251
 9494TIP3    H249974   5.278   6.965  16.338 -1.6502  1.6670 -1.5529
 9495TIP3   OH249975   3.154   2.168   3.471  0.6766 -0.4416 -0.0218
 9495TIP3    H149976   3.227   2.223   3.500 -1.0418  1.2102  1.4651
 9495TIP3    H249977   3.138   2.109   3.545 -0.5985  0.4222  0.4121
 9496TIP3   OH249978   5.340   4.177   2.890  0.0063 -0.0583 -0.6309
 9496TIP3    H149979   5.293   4.257   2.914 -2.0181 -1.7403  1.4244
 9496TIP3    H249980   5.428   4.189   2.928 -0.1511  1.2602 -0.6108
 9497TIP3   OH249981   5.560   3.016   4.116  0.0938  0.3382  0.4696
 9497TIP3    H149982   5.537   3.096   4.164 -1.4473 -0.6030  1.4204
 9497TIP3    H249983   5.584   2.954   4.185 -1.3788 -0.8061 -0.0022
 9498TIP3   OH249984   5.149   2.566  10.899 -0.2216 -0.3412  0.3550
 9498TIP3    H149985   5.093   2.534  10.829  0.3633  0.3865 -0.4778
 9498TIP3    H249986   5.227   2.509  10.895  0.2584  0.3365 -0.2837
 9499TIP3   OH249987   2.609   1.063  11.730 -0.3946  0.2147  0.4139
 9499TIP3    H149988   2.668   0.992  11.707  2.3233  1.7851  2.0408
 9499TIP3    H249989   2.634   1.136  11.673 -0.7246  0.9284  1.1528
 9500TIP3   OH249990   1.853   2.704   3.842  0.4843 -0.6470  0.0022
 9500TIP3    H149991   1.762   2.689   3.868  0.0949  1.3892 -0.0175
 9500TIP3    H249992   1.850   2.715   3.747  0.0690  2.9713  0.2774
 9501TIP3   OH249993   4.761   2.161   5.971 -0.1509  0.1610  0.3700
 9501TIP3    H149994   4.721   2.112   6.043  1.8835  0.2878  1.6683
 9501TIP3    H249995   4.811   2.230   6.013  0.2435  0.9208 -1.2458
 9502TIP3   OH249996   4.826   0.066   4.785 -0.4244 -0.1677 -0.1706
 9502TIP3    H149997   4.807  -0.015   4.832  0.0282  0.1131  0.5009
 9502TIP3    H249998   4.805   0.046   4.693  3.2000 -2.2795 -0.7341
 9503TIP3   OH249999   2.987   6.229   3.840 -0.2971  0.5991  0.0741
 9503TIP3    H150000   2.909   6.189   3.802 -0.3734  1.0338 -0.2374
 9503TIP3    H250001   2.978   6.213   3.934  0.9073 -2.2638 -0.2014
 9504TIP3   OH250002   5.095   2.738   5.582  0.1398  0.0814 -0.1370
 9504TIP3    H150003   5.116   2.646   5.565 -0.1310  0.0111 -0.0899
 9504TIP3    H250004   5.066   2.772   5.497 -1.6039 -0.3738  0.2507
 9505TIP3   OH250005   0.337   3.628  11.391  0.2834  0.1802  0.2767
 9505TIP3    H150006   0.338   3.540  11.355 -0.7637  0.9538 -1.8333
 9505TIP3    H250007   0.276   3.623  11.465  0.2374 -0.8518  0.1835
 9506TIP3   OH250008   5.004   3.248  14.878  0.0100 -0.0907 -0.2067
 9506TIP3    H150009   4.963   3.165  14.856 -0.4100  0.4073 -1.3782
 9506TIP3    H250010   4.976   3.266  14.968  0.9496 -1.6912  0.4481
 9507TIP3   OH250011   2.115   0.221   1.831  0.6342 -0.3272  0.3510
 9507TIP3    H150012   2.084   0.248   1.917 -1.1836  3.3629 -1.2459
 9507TIP3    H250013   2.043   0.171   1.794  0.2291  0.5183 -0.0281
 9508TIP3   OH250014   6.359   2.978   0.537 -0.4232  0.0883 -0.9466
 9508TIP3    H150015   6.299   3.015   0.472 -0.2287  1.5925 -0.3181
 9508TIP3    H250016   6.445   2.981   0.495 -0.5777 -0.9260 -1.3834
 9509TIP3   OH250017   1.031   4.054   3.473  0.2840  0.2500  0.4049
 9509TIP3    H150018   1.091   4.043   3.399  0.1997 -0.2134  0.3988
 9509TIP3    H250019   0.996   3.966   3.488 -1.4451  0.7671 -0.4566
 9510TIP3   OH250020   3.320   0.479  13.959  0.2018 -0.0065  0.6734
 9510TIP3    H150021   3.271   0.451  14.036  0.0598  2.6041  1.6288
 9510TIP3    H250022   3.287   0.566  13.940  1.2390 -0.0194 -1.5195
 9511TIP3   OH250023   0.513   5.817  12.215  0.3975  0.0257  0.4543
 9511TIP3    H150024   0.421   5.818  12.190  0.8724 -1.4843 -1.6230
 9511TIP3    H250025   0.552   5.890  12.166  0.6493 -0.6048 -0.3061
 9512TIP3   OH250026   3.325   3.629  14.065 -0.1988  0.6503 -0.1659
 9512TIP3    H150027   3.413   3.662  14.084 -0.4310  1.6600 -0.7418
 9512TIP3    H250028   3.269   3.706  14.072 -1.1813 -0.1292  1.0053
 9513TIP3   OH250029   1.440   3.333   0.138  0.1590  0.1895  0.0675
 9513TIP3    H150030   1.516   3.280   0.163 -1.2136 -1.3823  1.1425
 9513TIP3    H250031   1.434   3.322   0.043  1.2390  0.3115 -0.0256
 9514TIP3   OH250032   2.970   4.992  13.051  0.1246 -0.2460 -0.5676
 9514TIP3    H150033   2.932   4.914  13.092 -1.0452  0.7110  0.2395
 9514TIP3    H250034   2.962   5.060  13.118  0.6857  0.6892 -1.4312
 9515TIP3   OH250035   6.551   1.368   6.213 -0.3987 -0.2468  0.4874
 9515TIP3    H150036   6.540   1.457   6.180 -0.2394 -1.2952 -2.7754
 9515TIP3    H250037   6.486   1.317   6.166  2.0072 -2.4574 -0.7022
 9516TIP3   OH250038   0.796   3.956  15.356  0.1312 -0.0122  0.3092
 9516TIP3    H150039   0.702   3.960  15.341  0.0117  2.1036  1.1990
 9516TIP3    H250040   0.835   3.980  15.272 -0.1012 -1.1164 -0.1250
 9517TIP3   OH250041   1.164   0.619   4.651  0.3792 -0.5509 -0.6082
 9517TIP3    H150042   1.185   0.643   4.561 -2.3704  1.2154 -0.9092
 9517TIP3    H250043   1.140   0.702   4.693 -2.3040 -1.7766  0.5289
 9518TIP3   OH250044   4.287   5.281  13.560  0.0915  0.1710  0.2634
 9518TIP3    H150045   4.239   5.209  13.518 -1.8995  1.8292 -0.4710
 9518TIP3    H250046   4.310   5.248  13.646 -2.2607 -0.7973  0.5839
 9519TIP3   OH250047   2.207   6.435  11.078  0.5847  0.2943  0.0592
 9519TIP3    H150048   2.281   6.380  11.049  0.3093  0.1972 -0.4650
 9519TIP3    H250049   2.215   6.436  11.174  1.7142  0.9066 -0.0144
 9520TIP3   OH250050   4.150   2.684   2.701  0.2910 -0.4137  0.7437
 9520TIP3    H150051   4.233   2.663   2.657 -0.2491 -2.6423  0.6631
 9520TIP3    H250052   4.083   2.668   2.635 -0.2760  0.4059  1.1126
 9521TIP3   OH250053   4.091   1.635   4.185 -0.0472  0.1236  0.3473
 9521TIP3    H150054   4.128   1.578   4.252  1.2032  0.9321  0.3729
 9521TIP3    H250055   4.013   1.588   4.153 -0.0465 -0.7555  1.5947
 9522TIP3   OH250056   2.809   2.302  10.668  0.7208  0.7443 -0.0388
 9522TIP3    H150057   2.753   2.313  10.591  0.3903 -0.6328 -0.0160
 9522TIP3    H250058   2.893   2.274  10.633  1.4347  2.7943 -0.0697
 9523TIP3   OH250059   2.985   2.687  12.546 -0.1026 -0.1291 -0.3616
 9523TIP3    H150060   3.068   2.732  12.563  1.3384 -2.2119 -1.3913
 9523TIP3    H250061   2.989   2.608  12.600 -0.6282 -1.0789 -1.6602
 9524TIP3   OH250062   3.413   0.220   2.873  0.4096  0.0937  0.5451
 9524TIP3    H150063   3.450   0.132   2.880  0.4719  0.0909  0.2050
 9524TIP3    H250064   3.408   0.236   2.779  0.8773  0.6501  0.6099
 9525TIP3   OH250065   3.529   0.652  15.698  0.9489 -0.8193  0.4991
 9525TIP3    H150066   3.593   0.586  15.671  3.0418  1.5473 -0.7116
 9525TIP3    H250067   3.462   0.650  15.629  0.1158 -2.6851  1.2963
 9526TIP3   OH250068   4.912   1.842   4.068  0.1574  0.7639  0.3307
 9526TIP3    H150069   4.862   1.891   4.134 -1.3030  1.6667 -1.3798
 9526TIP3    H250070   4.845   1.800   4.014  1.3525 -2.0868  0.9078
 9527TIP3   OH250071   0.934   4.594  12.609 -0.0019 -0.6978 -0.3865
 9527TIP3    H150072   0.972   4.663  12.555 -2.3843  1.2267  0.1888
 9527TIP3    H250073   0.935   4.630  12.698  1.7387 -2.8520  0.5562
 9528TIP3   OH250074   5.661   4.727  11.910 -0.2178 -0.3501  0.7459
 9528TIP3    H150075   5.632   4.692  11.994  0.7388 -1.7755  0.5093
 9528TIP3    H250076   5.757   4.727  11.915 -0.1527 -0.2555 -0.2577
 9529TIP3   OH250077   1.341   6.792  13.919 -0.1134  0.1825 -0.1605
 9529TIP3    H150078   1.247   6.781  13.933 -0.1429  1.6941  1.2150
 9529TIP3    H250079   1.382   6.730  13.979 -0.2959  2.6657  2.8039
 9530TIP3   OH250080   6.726   0.325   4.839 -0.0989  0.2123  0.2681
 9530TIP3    H150081   6.784   0.336   4.763 -2.9302  0.6526 -2.0192
 9530TIP3    H250082   6.756   0.391   4.901  2.1226  0.0731 -0.5727
 9531TIP3   OH250083   0.583   4.437   1.856 -0.0920  0.1795  0.4692
 9531TIP3    H150084   0.497   4.467   1.885 -0.4188 -2.4269  2.5783
 9531TIP3    H250085   0.564   4.373   1.788  0.1920 -0.0343  0.5903
 9532TIP3   OH250086   5.065   4.369   1.969  0.7290  0.4956 -0.1170
 9532TIP3    H150087   4.990   4.418   1.935  0.0568 -1.9112 -2.5829
 9532TIP3    H250088   5.137   4.390   1.909  0.3235 -1.6278 -1.4633
 9533TIP3   OH250089   0.630   6.540  16.846 -0.4672 -0.2500 -0.4691
 9533TIP3    H150090   0.666   6.601  16.911 -0.3553 -0.4573 -0.3361
 9533TIP3    H250091   0.576   6.480  16.898 -0.4006 -0.3983 -0.5733
 9534TIP3   OH250092   4.421   4.854  11.044 -0.0148  0.3133  0.0859
 9534TIP3    H150093   4.435   4.835  11.137  1.6344 -0.1631 -0.2258
 9534TIP3    H250094   4.490   4.916  11.022  1.2946 -1.5300 -1.3857
 9535TIP3   OH250095   5.530   5.955  15.292 -0.1301 -0.3648  0.1114
 9535TIP3    H150096   5.558   5.870  15.328 -0.4520 -0.0675  1.1120
 9535TIP3    H250097   5.441   5.966  15.326 -0.2279  0.2056 -0.3264
 9536TIP3   OH250098   5.981   2.953   2.483  0.8841  0.0388 -0.2226
 9536TIP3    H150099   5.892   2.988   2.481  2.0918  3.4800 -0.8932
 9536TIP3    H250100   6.009   2.962   2.574  0.9516  0.1669 -0.2553
 9537TIP3   OH250101   0.557   2.339   4.097  0.4063 -0.0243  0.2270
 9537TIP3    H150102   0.537   2.277   4.167  0.0696 -0.5729 -0.3542
 9537TIP3    H250103   0.485   2.329   4.035  0.7749  0.3696 -0.2647
 9538TIP3   OH250104   3.296   4.952   4.743 -0.0478  0.1315  0.0949
 9538TIP3    H150105   3.342   5.018   4.794  0.3521  0.9384 -1.2571
 9538TIP3    H250106   3.365   4.899   4.703 -0.3271  0.1086 -0.3685
 9539TIP3   OH250107   2.680   3.548  11.043 -0.0171  0.1356  0.5774
 9539TIP3    H150108   2.724   3.463  11.043  0.3524  0.3225  0.2860
 9539TIP3    H250109   2.701   3.587  11.127  0.6663  0.3659  0.3106
 9540TIP3   OH250110   6.174   4.757  14.623  0.6327 -0.6560 -0.0671
 9540TIP3    H150111   6.115   4.830  14.607  0.8479 -0.3883  0.3453
 9540TIP3    H250112   6.261   4.797  14.629  0.9157 -1.0885 -1.0672
 9541TIP3   OH250113   2.468   2.727  14.807 -0.1165 -0.5607 -0.0735
 9541TIP3    H150114   2.552   2.720  14.761 -0.2394  1.1451 -0.6376
 9541TIP3    H250115   2.488   2.778  14.885 -1.1325  2.7879 -1.8484
 9542TIP3   OH250116   0.759   4.405  13.596  0.0502  0.0869  0.9379
 9542TIP3    H150117   0.777   4.499  13.596  2.9508 -0.3905  0.1304
 9542TIP3    H250118   0.698   4.393  13.669  0.4776  2.4373  1.7816
 9543TIP3   OH250119   0.973   3.489  10.752 -0.0062  0.4395  0.3236
 9543TIP3    H150120   0.923   3.568  10.731  1.1045  1.0484 -0.1904
 9543TIP3    H250121   0.926   3.449  10.825 -1.5984  0.5994 -0.5684
 9544TIP3   OH250122   2.883   4.616  12.896  0.5992 -0.2067  0.0658
 9544TIP3    H150123   2.852   4.531  12.863  1.8692 -0.8574  0.4640
 9544TIP3    H250124   2.890   4.671  12.817 -1.4074 -0.0418 -0.0499
 9545TIP3   OH250125   2.610   4.480  12.566 -0.6110  0.6718 -0.0972
 9545TIP3    H150126   2.544   4.414  12.587 -1.5927  1.3377 -0.9804
 9545TIP3    H250127   2.634   4.463  12.475  0.4678  0.4309  0.2172
 9546TIP3   OH250128   1.346   0.244  11.132  0.8087 -0.3058 -0.1085
 9546TIP3    H150129   1.257   0.233  11.099  0.6799 -0.5143  0.3037
 9546TIP3    H250130   1.393   0.166  11.103  0.4384 -0.9654  1.0331
 9547TIP3   OH250131   2.231   3.001  15.946  0.3944  0.2902  0.0833
 9547TIP3    H150132   2.154   2.950  15.973  1.2002 -1.0517 -0.0667
 9547TIP3    H250133   2.270   2.950  15.875  2.3489  0.0405  1.2447
 9548TIP3   OH250134   1.208   0.104  16.750 -0.4412  0.1405  0.1906
 9548TIP3    H150135   1.261   0.183  16.756  0.1567 -0.3721  2.3472
 9548TIP3    H250136   1.266   0.034  16.781 -1.1787 -1.0662 -1.0135
 9549TIP3   OH250137   2.003   5.839  14.333 -0.5670 -0.0055  0.0904
 9549TIP3    H150138   1.935   5.773  14.319 -1.6599  1.1930 -0.5127
 9549TIP3    H250139   1.995   5.863  14.426 -0.8513 -0.0109  0.0687
 9550TIP3   OH250140   6.330   2.806   4.023 -0.0834 -0.0806  0.0001
 9550TIP3    H150141   6.341   2.890   4.067  0.4605  0.2104 -0.6772
 9550TIP3    H250142   6.247   2.772   4.057 -1.3710  1.6845 -1.2486
 9551TIP3   OH250143   2.692   5.730   4.352 -0.0940 -0.4100 -0.3266
 9551TIP3    H150144   2.783   5.757   4.339  0.1075 -0.6361  0.5212
 9551TIP3    H250145   2.653   5.801   4.402 -0.4208 -0.2582 -0.7932
 9552TIP3   OH250146   0.737   1.316   3.776 -0.1950 -0.1377  0.0090
 9552TIP3    H150147   0.718   1.347   3.865 -2.1176 -0.1896 -0.3428
 9552TIP3    H250148   0.711   1.389   3.720 -0.1558 -0.5635 -0.5697
 9553TIP3   OH250149   0.183   2.337   4.482 -0.1974 -0.2067  0.6619
 9553TIP3    H150150   0.213   2.404   4.420  0.5985  0.9252  2.2001
 9553TIP3    H250151   0.090   2.356   4.495 -0.2522 -0.1474  0.2095
 9554TIP3   OH250152   1.159   5.893   9.966  0.0635  0.6092  0.0195
 9554TIP3    H150153   1.128   5.926   9.882  1.0298  2.2295  0.2572
 9554TIP3    H250154   1.176   5.800   9.951 -0.5099  0.7102 -1.3551
 9555TIP3   OH250155   4.864   1.990   3.441 -0.3018  0.0865  0.5247
 9555TIP3    H150156   4.874   2.079   3.406 -0.1010  0.2670  1.0174
 9555TIP3    H250157   4.864   2.002   3.536 -3.3098 -0.1169  0.6366
 9556TIP3   OH250158   4.732   6.245  15.881  0.0591  0.2413 -0.2718
 9556TIP3    H150159   4.779   6.323  15.850  0.6637 -0.3049 -0.7444
 9556TIP3    H250160   4.673   6.279  15.949  1.2379  0.9181  0.4480
 9557TIP3   OH250161   6.590   0.360   0.139 -0.3528 -0.1217  0.5478
 9557TIP3    H150162   6.572   0.439   0.190  1.6640  0.0628  1.0610
 9557TIP3    H250163   6.660   0.316   0.187 -0.0567 -1.1855 -0.7972
 9558TIP3   OH250164   0.004   6.173   5.351  0.7746  0.4201 -0.3641
 9558TIP3    H150165   0.082   6.153   5.403 -0.3614 -1.6871  0.6799
 9558TIP3    H250166  -0.039   6.244   5.399  0.6617 -0.2839  0.6116
 9559TIP3   OH250167   6.752   2.180   3.743  0.4054  0.4821  0.3843
 9559TIP3    H150168   6.803   2.118   3.690 -1.2803  0.2109 -1.0062
 9559TIP3    H250169   6.662   2.170   3.711 -0.1325  2.6541  1.1020
 9560TIP3   OH250170   3.538   1.452   3.788  0.2837 -0.2467  0.2709
 9560TIP3    H150171   3.588   1.377   3.820 -2.2032 -2.0837  0.1097
 9560TIP3    H250172   3.545   1.517   3.858  1.8031 -0.9166  0.7791
 9561TIP3   OH250173   5.169   1.707   6.302  0.2108  0.4961 -0.2968
 9561TIP3    H150174   5.208   1.684   6.386  1.0651  1.1025 -0.5183
 9561TIP3    H250175   5.237   1.689   6.237 -0.8383 -1.0798 -1.0088
 9562TIP3   OH250176   6.326   0.142  14.928 -0.1321 -0.0324 -0.0076
 9562TIP3    H150177   6.325   0.227  14.884 -1.0440  0.1465  0.3322
 9562TIP3    H250178   6.409   0.142  14.977 -0.8640  1.3900  1.3376
 9563TIP3   OH250179   2.109   1.744  15.721  0.3757 -0.2369  0.4000
 9563TIP3    H150180   2.039   1.709  15.775 -0.6052  0.7497 -0.1932
 9563TIP3    H250181   2.084   1.722  15.631  2.4062 -2.6229  0.3134
 9564TIP3   OH250182   2.289   1.058   3.792 -0.2984 -0.1179  0.3324
 9564TIP3    H150183   2.343   1.003   3.848 -0.7088  0.7995  1.6664
 9564TIP3    H250184   2.207   1.068   3.840 -0.7120  0.5874 -0.4863
 9565TIP3   OH250185   5.788   2.522   2.878  0.6513 -0.2070  0.0065
 9565TIP3    H150186   5.771   2.438   2.837 -0.7572 -0.0248  0.1415
 9565TIP3    H250187   5.875   2.514   2.916  1.5133 -0.7757 -1.9827
 9566TIP3   OH250188   4.363   1.914   4.399  0.1954 -0.4683 -0.1175
 9566TIP3    H150189   4.328   1.825   4.388  0.4349 -0.6885  0.7542
 9566TIP3    H250190   4.288   1.967   4.424  0.5123 -1.0634  2.3566
 9567TIP3   OH250191   5.726   5.684  14.047  0.2176  0.0687 -0.0112
 9567TIP3    H150192   5.760   5.656  14.131  1.2453 -0.9636 -0.7413
 9567TIP3    H250193   5.785   5.753  14.018 -0.3103  0.6349  0.2341
 9568TIP3   OH250194   0.854   5.538  14.267  0.0124 -0.0795  0.3535
 9568TIP3    H150195   0.824   5.529  14.177  1.1958  1.5598 -0.2432
 9568TIP3    H250196   0.773   5.550  14.318 -0.7353 -2.0078 -0.3081
 9569TIP3   OH250197   6.457   1.295   3.328  0.6465  0.0120 -0.0887
 9569TIP3    H150198   6.398   1.368   3.310 -0.0448 -0.4672  0.1533
 9569TIP3    H250199   6.499   1.276   3.244 -0.5763 -0.5114 -0.6087
 9570TIP3   OH250200   0.453   2.506  15.145 -0.4354 -0.4323 -0.2499
 9570TIP3    H150201   0.509   2.509  15.223  0.3043  1.7286 -0.7875
 9570TIP3    H250202   0.464   2.418  15.111 -2.0376 -2.0304  2.9194
 9571TIP3   OH250203   5.728   3.996  12.833 -0.8635  0.2101 -0.0425
 9571TIP3    H150204   5.783   4.040  12.768 -0.9123 -1.1194 -1.0312
 9571TIP3    H250205   5.654   3.963  12.783 -2.0746  1.1025  1.0993
 9572TIP3   OH250206   0.213   3.953   0.232 -0.3666 -0.1055  0.4130
 9572TIP3    H150207   0.252   4.040   0.230 -1.1035  0.3020  2.0713
 9572TIP3    H250208   0.118   3.970   0.229 -0.5218 -0.8309  1.0674
 9573TIP3   OH250209   0.534   3.374   3.227  0.7534 -0.2775 -0.2308
 9573TIP3    H150210   0.490   3.457   3.212  3.2323  1.2799  0.4114
 9573TIP3    H250211   0.607   3.374   3.165  0.1744 -2.5383 -0.9920
 9574TIP3   OH250212   1.538   0.618  14.654 -0.3166 -0.4570  0.2056
 9574TIP3    H150213   1.522   0.626  14.560  0.5803  0.0156  0.0833
 9574TIP3    H250214   1.577   0.702  14.679  1.0760 -1.2077  0.6610
 9575TIP3   OH250215   1.867   5.050  15.899 -0.1119 -0.0215  0.5759
 9575TIP3    H150216   1.911   5.113  15.956  0.9996 -0.3662  0.1392
 9575TIP3    H250217   1.921   4.971  15.905 -1.3673 -0.8759  0.9673
 9576TIP3   OH250218   3.605   2.591  14.985  0.2079 -0.1009  0.9793
 9576TIP3    H150219   3.667   2.649  14.940 -1.5942  1.5532  0.4844
 9576TIP3    H250220   3.624   2.603  15.078 -0.5015  1.8265  0.9254
 9577TIP3   OH250221   1.054   1.943  13.080 -0.1932 -0.2584  0.3480
 9577TIP3    H150222   1.000   1.893  13.141  1.1517 -0.3581  1.5211
 9577TIP3    H250223   0.996   1.963  13.007 -1.2208 -2.1278  0.5907
 9578TIP3   OH250224   1.769   2.124  10.433 -0.0345 -0.0363 -0.2619
 9578TIP3    H150225   1.682   2.092  10.458  0.2561 -0.7286 -0.1260
 9578TIP3    H250226   1.830   2.065  10.476  0.5395  1.1581  0.6222
 9579TIP3   OH250227   2.998   3.525   4.894  0.3986 -0.5140  0.0673
 9579TIP3    H150228   2.979   3.597   4.833 -0.5493 -0.9397 -0.1571
 9579TIP3    H250229   2.938   3.540   4.967  0.4976 -0.8370  0.2135
 9580TIP3   OH250230   4.017   1.968   2.194 -0.3940  0.1344 -0.7537
 9580TIP3    H150231   4.012   1.876   2.166  2.0368 -0.6589  0.9928
 9580TIP3    H250232   4.055   1.964   2.282 -1.0086  2.8098 -0.2769
 9581TIP3   OH250233   0.297   0.542  16.074 -0.1742  0.0135  0.1358
 9581TIP3    H150234   0.343   0.621  16.105 -0.6720  0.1437  0.5543
 9581TIP3    H250235   0.235   0.574  16.009  2.2269 -0.4756 -2.5796
 9582TIP3   OH250236   2.135   4.381   5.386 -0.1855 -0.1651 -0.3628
 9582TIP3    H150237   2.182   4.334   5.456 -1.2471  0.3655  0.7425
 9582TIP3    H250238   2.055   4.331   5.373  0.1373 -0.4284 -1.4444
 9583TIP3   OH250239   2.990   0.647  15.040 -0.2638  0.1404 -0.6163
 9583TIP3    H150240   3.082   0.660  15.062  0.3023 -2.2409 -1.2657
 9583TIP3    H250241   2.973   0.712  14.972  1.5340 -0.5751 -1.8443
 9584TIP3   OH250242   0.312   4.069  15.816 -0.1659  0.0990  0.0131
 9584TIP3    H150243   0.333   4.039  15.904 -0.0555 -0.6235 -0.2561
 9584TIP3    H250244   0.264   4.151  15.830  1.3453  0.9060  0.6873
 9585TIP3   OH250245   1.520   6.046   2.436  0.0754  0.3490 -0.1613
 9585TIP3    H150246   1.568   6.063   2.355 -0.3513 -0.4248 -0.5770
 9585TIP3    H250247   1.497   6.133   2.469  1.5376  0.7354 -0.0812
 9586TIP3   OH250248   4.811   0.651  12.918 -0.4339 -0.0386 -0.4822
 9586TIP3    H150249   4.861   0.572  12.895 -1.9725 -1.3782  0.5467
 9586TIP3    H250250   4.827   0.663  13.011 -1.2274  0.1030 -0.3580
 9587TIP3   OH250251   3.554   6.375  10.765  0.2239 -0.0624  0.6888
 9587TIP3    H150252   3.635   6.424  10.747 -0.3576  0.6820  0.0117
 9587TIP3    H250253   3.582   6.283  10.768  1.2671  0.2544  1.5672
 9588TIP3   OH250254   6.776   3.159   2.725  0.0414  0.6617 -0.7534
 9588TIP3    H150255   6.710   3.106   2.769  0.1972  1.5271  0.5738
 9588TIP3    H250256   6.785   3.118   2.639 -1.0821 -0.4094 -0.4036
 9589TIP3   OH250257   5.421   0.926   5.530 -0.3259  0.1327  0.4938
 9589TIP3    H150258   5.516   0.920   5.531 -0.2179  0.4013 -2.3288
 9589TIP3    H250259   5.393   0.858   5.592  1.6595 -1.2543 -0.0341
 9590TIP3   OH250260   4.034   4.126   0.675  0.5379  0.3281  0.0992
 9590TIP3    H150261   3.993   4.107   0.759  0.6329 -0.6702 -0.0727
 9590TIP3    H250262   3.963   4.119   0.611  0.8994 -1.2172 -0.1749
 9591TIP3   OH250263   3.115   6.332   9.980  0.5164  0.4593  0.1452
 9591TIP3    H150264   3.185   6.362  10.038  1.7442  0.7323 -1.4023
 9591TIP3    H250265   3.147   6.353   9.892 -1.1368 -0.2256 -0.6514
 9592TIP3   OH250266   4.740   0.519  11.764 -0.5364  0.2047 -0.2206
 9592TIP3    H150267   4.814   0.502  11.706  1.9004  1.6553  2.2004
 9592TIP3    H250268   4.715   0.609  11.746 -1.1678 -0.0163 -0.4579
 9593TIP3   OH250269   0.585   1.477   5.481 -0.5576 -0.3819 -0.4779
 9593TIP3    H150270   0.592   1.433   5.566  0.0598  0.3801 -0.1200
 9593TIP3    H250271   0.663   1.448   5.433  0.0148  0.5330 -0.1269
 9594TIP3   OH250272   1.232   4.288   1.269  0.3110 -0.1954  0.4433
 9594TIP3    H150273   1.238   4.323   1.180 -1.5751 -0.4557  0.1769
 9594TIP3    H250274   1.267   4.199   1.263  1.1216  0.1386  0.1889
 9595TIP3   OH250275   5.433   0.222  13.030 -0.2193 -0.2587  0.2832
 9595TIP3    H150276   5.502   0.157  13.019  0.4476  0.3273  0.8933
 9595TIP3    H250277   5.451   0.288  12.963  0.1948  0.2088  0.8448
 9596TIP3   OH250278   1.294   1.645  11.800  0.7403 -0.1298 -0.0522
 9596TIP3    H150279   1.221   1.588  11.825  0.8779 -0.2656  0.0380
 9596TIP3    H250280   1.283   1.658  11.706 -0.2791  1.0737  0.2076
 9597TIP3   OH250281   4.528   3.234   3.595  0.0084  0.5624 -0.2677
 9597TIP3    H150282   4.480   3.224   3.513 -0.9489  1.1360  0.2148
 9597TIP3    H250283   4.475   3.189   3.660  0.3413  0.8243  0.1917
 9598TIP3   OH250284   0.139   0.152  16.406  0.7425 -0.5226  0.4376
 9598TIP3    H150285   0.143   0.093  16.330  2.3168  0.3772 -0.2281
 9598TIP3    H250286   0.184   0.231  16.377 -0.9121  0.8503  1.4764
 9599TIP3   OH250287   6.676   0.010  11.449 -0.1743 -0.2406 -0.6756
 9599TIP3    H150288   6.769   0.017  11.424  0.3562  0.2029  1.2856
 9599TIP3    H250289   6.637  -0.041  11.378  1.8938 -1.8072 -0.8062
 9600TIP3   OH250290   2.618   2.482   3.128  0.1240 -0.8627  0.3145
 9600TIP3    H150291   2.665   2.414   3.175 -0.9424 -1.0170  1.1861
 9600TIP3    H250292   2.545   2.505   3.185  1.0378  1.7763  0.5392
 9601TIP3   OH250293   2.244   4.442  11.738 -0.5432 -0.3505 -0.6791
 9601TIP3    H150294   2.281   4.515  11.788 -1.1495 -0.0232 -0.7023
 9601TIP3    H250295   2.320   4.400  11.698 -0.1905  0.3210 -0.7373
 9602TIP3   OH250296   0.929   2.682  11.471 -0.4194 -0.2065  0.2794
 9602TIP3    H150297   0.978   2.746  11.523 -0.3950 -0.8576  1.0860
 9602TIP3    H250298   0.977   2.600  11.484 -0.5856 -0.4370 -0.5453
 9603TIP3   OH250299   4.091   3.951  12.029  0.1696  0.5013  0.4652
 9603TIP3    H150300   4.182   3.976  12.046  0.0735 -0.0402  1.8964
 9603TIP3    H250301   4.060   3.917  12.113 -1.1270 -0.0226 -0.2108
 9604TIP3   OH250302   4.109   6.799   3.999 -0.2083  0.3878  0.1044
 9604TIP3    H150303   4.043   6.790   3.929 -0.4740  1.0718  0.2569
 9604TIP3    H250304   4.188   6.827   3.953  0.1887 -1.1216 -0.1714
 9605TIP3   OH250305   6.068   2.568  11.917 -0.6795 -0.1289  0.4145
 9605TIP3    H150306   6.072   2.654  11.876 -0.7310 -0.7363 -0.9445
 9605TIP3    H250307   6.157   2.552  11.949 -0.2539 -0.2191 -0.7653
 9606TIP3   OH250308   4.992   4.049  15.147  0.5097 -0.4585  0.1560
 9606TIP3    H150309   4.938   4.116  15.190  2.0833  1.2024 -0.3137
 9606TIP3    H250310   4.938   4.018  15.074 -0.0364  0.7625  0.0082
 9607TIP3   OH250311   6.053   4.361   2.799 -0.4293 -0.0384 -0.6900
 9607TIP3    H150312   6.008   4.358   2.714  0.8918  1.5145 -1.4996
 9607TIP3    H250313   6.142   4.389   2.778 -0.1069  0.4856  1.2226
 9608TIP3   OH250314   5.752   6.576   6.126 -0.1913  0.0928 -0.0803
 9608TIP3    H150315   5.751   6.485   6.155  0.9220  0.8211  2.4753
 9608TIP3    H250316   5.660   6.602   6.126 -0.3458 -0.3189  1.7292
 9609TIP3   OH250317   2.400   2.922   1.688 -0.1438  0.2848 -0.5296
 9609TIP3    H150318   2.410   2.866   1.766  2.0207  1.3564  0.0388
 9609TIP3    H250319   2.445   2.875   1.619  1.0917  0.9708 -0.2153
 9610TIP3   OH250320   4.347   6.565  14.601 -0.3002 -0.2381  0.0832
 9610TIP3    H150321   4.378   6.624  14.532  0.9751 -1.9688 -0.9080
 9610TIP3    H250322   4.311   6.623  14.668  1.5714  1.7151 -0.4967
 9611TIP3   OH250323   3.990   5.573   3.237 -0.6470  0.3965  0.0923
 9611TIP3    H150324   3.898   5.555   3.216 -0.6231 -0.5651  0.7662
 9611TIP3    H250325   3.986   5.640   3.304 -0.8893 -0.1631  0.6455
 9612TIP3   OH250326   4.585   6.596  13.831 -0.0371  0.6527  0.5179
 9612TIP3    H150327   4.519   6.661  13.857  1.2489  1.9069  0.7826
 9612TIP3    H250328   4.644   6.644  13.773  0.7661 -0.3773  0.4476
 9613TIP3   OH250329   5.924   5.944  10.939  0.5548 -0.0057  0.0181
 9613TIP3    H150330   5.841   5.977  10.906 -0.9320 -1.2081  2.2667
 9613TIP3    H250331   5.974   5.921  10.861 -2.3789 -2.0064 -1.4390
 9614TIP3   OH250332   2.593   5.711  10.775  0.3182  0.5402 -0.4198
 9614TIP3    H150333   2.530   5.639  10.770 -0.3434  1.1611 -1.3328
 9614TIP3    H250334   2.657   5.683  10.841  0.1552 -0.9408 -0.8562
 9615TIP3   OH250335   3.946   0.214   1.654  0.0249 -0.2338  0.5910
 9615TIP3    H150336   3.983   0.299   1.629  0.4975 -0.3269  0.9553
 9615TIP3    H250337   4.018   0.169   1.698 -0.8164  0.0013  2.3017
 9616TIP3   OH250338   5.466   6.851   0.830 -0.2818  0.2484 -0.9714
 9616TIP3    H150339   5.442   6.801   0.752  1.3386 -3.3511  0.6397
 9616TIP3    H250340   5.556   6.881   0.812 -0.1941  0.0811 -0.8189
 9617TIP3   OH250341   2.113   3.866  13.919 -0.7433  0.4504  0.5079
 9617TIP3    H150342   2.177   3.921  13.965 -1.7554  1.6161  0.5907
 9617TIP3    H250343   2.157   3.782  13.907  1.0931  1.4442 -0.1375
 9618TIP3   OH250344   5.395   3.746  11.475 -0.4160  0.3343 -0.4227
 9618TIP3    H150345   5.375   3.831  11.435 -1.1638  0.9938  1.2314
 9618TIP3    H250346   5.312   3.697  11.470 -0.8447  0.8219  1.1570
 9619TIP3   OH250347   6.330   4.602   3.880  0.0170  0.4449 -0.4635
 9619TIP3    H150348   6.390   4.674   3.864 -0.0501 -0.0458 -3.4324
 9619TIP3    H250349   6.243   4.641   3.871 -0.0478  0.2786 -0.5578
 9620TIP3   OH250350   6.104   1.098  14.309  0.2406  0.0929  0.4592
 9620TIP3    H150351   6.071   1.175  14.355  1.8083  0.9411  0.2498
 9620TIP3    H250352   6.195   1.091  14.337  0.3242 -1.2795 -0.0785
 9621TIP3   OH250353   4.326   3.351  16.724 -0.1041  0.1988 -0.0644
 9621TIP3    H150354   4.409   3.307  16.712  0.3571  0.7852  0.8737
 9621TIP3    H250355   4.342   3.415  16.793 -0.4771  2.5027 -1.9566
 9622TIP3   OH250356   1.599   1.507   0.149 -0.5791 -0.1360 -0.6562
 9622TIP3    H150357   1.672   1.467   0.102 -0.5236 -0.8669  0.0156
 9622TIP3    H250358   1.633   1.591   0.178 -0.5560  0.2429 -1.7461
 9623TIP3   OH250359   5.702   5.768   2.373 -0.0680 -0.0669  0.2081
 9623TIP3    H150360   5.607   5.772   2.364  0.0335  2.4128 -0.6640
 9623TIP3    H250361   5.733   5.738   2.287 -0.0442  0.1619  0.1344
 9624TIP3   OH250362   1.653   6.617  13.283  0.0427 -0.6618 -0.1179
 9624TIP3    H150363   1.560   6.632  13.266 -0.4188  1.7975  3.3261
 9624TIP3    H250364   1.655   6.584  13.373  2.5109 -1.4189 -0.3856
 9625TIP3   OH250365   0.669   6.840  16.338 -0.4212 -0.2717 -0.2473
 9625TIP3    H150366   0.668   6.826  16.433 -2.3345 -0.6002 -0.2730
 9625TIP3    H250367   0.589   6.799  16.307 -0.3806  0.7857 -1.8689
 9626TIP3   OH250368   1.790   2.294  11.203  0.0442  0.1251 -0.2376
 9626TIP3    H150369   1.826   2.357  11.265  1.2296  0.3596 -1.1150
 9626TIP3    H250370   1.818   2.326  11.117 -3.2237  0.9131 -1.1296
 9627TIP3   OH250371   2.207   0.556  13.724  0.1492  0.1036 -0.4123
 9627TIP3    H150372   2.217   0.517  13.637 -2.3977 -0.1909 -0.6334
 9627TIP3    H250373   2.287   0.530  13.770  2.9071  2.4255 -3.3587
 9628TIP3   OH250374   6.693   3.654  12.971 -0.0095  0.0365  0.2885
 9628TIP3    H150375   6.662   3.741  12.945 -0.9556 -0.3387  0.1342
 9628TIP3    H250376   6.677   3.599  12.895  0.6245 -0.2645  0.3732
 9629TIP3   OH250377   3.564   5.314   1.928  0.2435  0.2696 -0.1545
 9629TIP3    H150378   3.630   5.277   1.871  1.2924  2.4719 -0.4815
 9629TIP3    H250379   3.513   5.372   1.872  0.5542  1.5834  0.8702
 9630TIP3   OH250380   0.232   1.323   1.984  0.2017 -0.0268 -0.1617
 9630TIP3    H150381   0.315   1.369   1.967  0.6530 -0.9154 -0.4239
 9630TIP3    H250382   0.257   1.231   1.992 -0.6943 -0.2373  0.3247
 9631TIP3   OH250383   2.767   1.552  12.824 -0.3154 -0.2986  0.3683
 9631TIP3    H150384   2.759   1.534  12.730 -3.6723  0.7732  0.3449
 9631TIP3    H250385   2.745   1.470  12.867  0.6577 -0.6269  0.2762
 9632TIP3   OH250386   2.062   1.276  15.685  0.2913  0.2992  0.3355
 9632TIP3    H150387   2.074   1.268  15.591  2.5895  0.4577  0.5496
 9632TIP3    H250388   2.136   1.330  15.714 -0.4547  0.3889  2.1984
 9633TIP3   OH250389   4.213   6.648  11.973 -0.2200 -0.9929  0.2728
 9633TIP3    H150390   4.250   6.712  12.034 -0.8343 -0.0690 -0.2998
 9633TIP3    H250391   4.245   6.564  12.005  2.7617 -0.2416 -0.4705
 9634TIP3   OH250392   0.598   6.794   9.996  0.4026  0.1430 -0.4666
 9634TIP3    H150393   0.532   6.732  10.029 -0.0695  0.3437 -1.0052
 9634TIP3    H250394   0.561   6.880  10.016  2.0189  0.3010  2.1822
 9635TIP3   OH250395   4.769   4.732   2.394 -0.3641  0.5625 -0.0265
 9635TIP3    H150396   4.818   4.772   2.465 -0.3815 -2.8984  2.1714
 9635TIP3    H250397   4.686   4.705   2.435 -0.7258 -0.7988 -1.5670
 9636TIP3   OH250398   2.757   3.657  12.038  0.4125  0.4587 -0.8145
 9636TIP3    H150399   2.824   3.701  11.985  0.0421  0.3610 -1.3750
 9636TIP3    H250400   2.718   3.727  12.090  2.1727  0.2500  0.8890
 9637TIP3   OH250401   3.257   6.461   2.000  0.0018 -0.4767 -0.2818
 9637TIP3    H150402   3.345   6.436   1.972  1.3098 -0.5452  3.3632
 9637TIP3    H250403   3.221   6.380   2.036  0.1215  0.4255  1.9807
 9638TIP3   OH250404   5.117   4.401   5.232  0.2782  0.4347  0.0548
 9638TIP3    H150405   5.078   4.487   5.213  0.9976  0.2573 -2.6595
 9638TIP3    H250406   5.046   4.351   5.272 -0.9738  1.4820 -0.7546
 9639TIP3   OH250407   4.104   3.437   2.810 -0.5454  0.2889 -0.6447
 9639TIP3    H150408   4.160   3.372   2.767  1.2735  1.0812  0.3899
 9639TIP3    H250409   4.053   3.387   2.873  2.4250 -0.0169  1.7397
 9640TIP3   OH250410   1.177   0.814   5.870 -0.3703  0.4184 -0.5153
 9640TIP3    H150411   1.182   0.834   5.777  0.7563 -1.5792 -0.9464
 9640TIP3    H250412   1.255   0.762   5.888  0.7109  2.6416  2.1032
 9641TIP3   OH250413   5.256   0.863   2.590  0.3776 -0.1269 -0.1458
 9641TIP3    H150414   5.302   0.808   2.654 -0.2328 -0.6730 -0.1584
 9641TIP3    H250415   5.243   0.946   2.635  1.3088  0.0189 -0.1218
 9642TIP3   OH250416   5.809   3.094   5.106  0.1166 -0.2607  0.3947
 9642TIP3    H150417   5.769   3.009   5.089 -1.6024  0.2995  1.3792
 9642TIP3    H250418   5.772   3.122   5.190  0.5237  1.5202  0.0300
 9643TIP3   OH250419   4.720   2.344   1.732 -0.1735 -0.1957 -0.4749
 9643TIP3    H150420   4.717   2.294   1.651 -2.1309  1.7993 -1.7356
 9643TIP3    H250421   4.805   2.387   1.731  0.2012 -0.9285 -0.9590
 9644TIP3   OH250422   6.811   1.167   4.364 -0.5502  0.5943 -0.1153
 9644TIP3    H150423   6.722   1.133   4.374 -0.1659 -0.2087  0.7181
 9644TIP3    H250424   6.818   1.237   4.428  0.1662 -0.9539  1.5907
 9645TIP3   OH250425   1.922   0.616   2.136 -0.3700  0.4000  0.2719
 9645TIP3    H150426   1.983   0.686   2.114  1.4508 -1.2615 -0.2530
 9645TIP3    H250427   1.876   0.597   2.054 -0.5264  0.6825  0.2967
 9646TIP3   OH250428   2.376   2.296  11.427  0.2446 -0.4338  0.9049
 9646TIP3    H150429   2.328   2.310  11.345  1.2180  1.3570  0.5942
 9646TIP3    H250430   2.468   2.291  11.401  0.8307  2.4552  1.9949
 9647TIP3   OH250431   0.706   5.569  14.037  0.0725 -0.1907 -0.2990
 9647TIP3    H150432   0.709   5.650  13.986 -0.2132  0.1769  0.2649
 9647TIP3    H250433   0.620   5.569  14.078 -0.0688 -0.9585 -0.5788
 9648TIP3   OH250434   1.566   3.732   2.168 -0.1142 -0.3536  0.4386
 9648TIP3    H150435   1.474   3.716   2.148 -0.2149  0.9272 -0.1706
 9648TIP3    H250436   1.605   3.644   2.170 -0.8721 -0.7958 -1.6294
 9649TIP3   OH250437   1.703   5.883  12.068  0.0953  0.2068  0.3946
 9649TIP3    H150438   1.736   5.970  12.044  0.9857  0.1385  1.3266
 9649TIP3    H250439   1.610   5.897  12.086 -0.2979  0.5216 -1.6300
 9650TIP3   OH250440   0.227   3.735   3.070  0.6263  0.4604 -0.3242
 9650TIP3    H150441   0.163   3.701   3.007  0.0824 -0.9627  0.9596
 9650TIP3    H250442   0.175   3.782   3.135  0.7436 -1.4235  1.1991
 9651TIP3   OH250443   2.314   6.040  13.178  0.2631 -0.6054 -0.9092
 9651TIP3    H150444   2.394   6.070  13.135 -0.3861  2.2315 -0.3070
 9651TIP3    H250445   2.323   5.945  13.182  3.0250 -0.4593 -1.9463
 9652TIP3   OH250446   0.136   6.352   1.397  0.0448  0.4538  0.0130
 9652TIP3    H150447   0.192   6.402   1.455  0.4898  1.2414 -1.0567
 9652TIP3    H250448   0.047   6.383   1.416  0.3228  1.7706 -0.7098
 9653TIP3   OH250449   5.036   2.681  11.269 -0.3058 -0.3290 -0.3243
 9653TIP3    H150450   4.972   2.660  11.201 -1.2169 -2.1156  1.0090
 9653TIP3    H250451   4.992   2.747  11.323 -0.7243 -0.9681  0.1283
 9654TIP3   OH250452   5.597   5.856  15.591 -0.2532  0.2515 -0.2274
 9654TIP3    H150453   5.652   5.801  15.536 -1.0489 -0.8275  0.0312
 9654TIP3    H250454   5.515   5.809  15.599 -0.1427  0.3098  1.9634
 9655TIP3   OH250455   2.330   4.251  12.010  0.0779 -0.3512  0.4424
 9655TIP3    H150456   2.255   4.221  12.062 -1.2016 -0.4323 -1.3804
 9655TIP3    H250457   2.404   4.247  12.071 -1.2841 -0.7919  2.1422
 9656TIP3   OH250458   2.957   4.748  12.648 -0.6332 -0.4181  0.0356
 9656TIP3    H150459   3.049   4.732  12.669 -0.7831 -0.5978  0.5584
 9656TIP3    H250460   2.941   4.697  12.568 -0.4533 -0.9155  0.3157
 9657TIP3   OH250461   6.143   2.839   0.285 -0.1758 -0.1394  0.3526
 9657TIP3    H150462   6.212   2.889   0.243  0.6683  0.3018  2.1556
 9657TIP3    H250463   6.063   2.891   0.271 -0.1420 -0.5151 -1.5004
 9658TIP3   OH250464   0.905   2.740   1.990 -0.2634 -0.1873 -0.0671
 9658TIP3    H150465   0.980   2.781   2.034 -0.9818  0.5403  0.5049
 9658TIP3    H250466   0.829   2.771   2.038 -1.0164 -0.1163 -1.2645
 9659TIP3   OH250467   5.369   0.570  11.148 -0.0239 -0.0541 -0.4651
 9659TIP3    H150468   5.434   0.627  11.107 -1.1083  1.4494 -0.1935
 9659TIP3    H250469   5.415   0.531  11.222  1.0109 -0.2854 -1.1997
 9660TIP3   OH250470   3.062   3.138   1.687  0.3254  0.2860 -0.0826
 9660TIP3    H150471   3.072   3.130   1.592 -1.1306  0.2289 -0.2493
 9660TIP3    H250472   3.141   3.098   1.723  0.3035 -0.8551 -1.2442
 9661TIP3   OH250473   0.035   2.397   1.889  0.0647 -0.0217 -0.0570
 9661TIP3    H150474   0.056   2.381   1.981  1.0162  1.9570  0.1161
 9661TIP3    H250475   0.084   2.476   1.866  0.9756 -1.2236 -2.6656
 9662TIP3   OH250476   2.684   1.831  14.736  0.0325  0.1873 -0.4126
 9662TIP3    H150477   2.695   1.745  14.694  0.4911  0.3619 -0.6547
 9662TIP3    H250478   2.679   1.893  14.663 -2.3037  0.1735 -0.3227
 9663TIP3   OH250479   4.234   5.779   4.914  0.1855 -0.3934  0.3664
 9663TIP3    H150480   4.175   5.773   4.839  2.0904 -2.3503 -1.1092
 9663TIP3    H250481   4.254   5.688   4.936  1.3981  0.1856  1.8382
 9664TIP3   OH250482   3.302   4.729  13.931 -0.2590 -0.5459  0.0156
 9664TIP3    H150483   3.397   4.735  13.930 -0.1036 -2.2058  0.6451
 9664TIP3    H250484   3.284   4.635  13.938 -1.9250 -0.1800  1.5733
 9665TIP3   OH250485   1.063   4.508   0.510  0.2761  0.8384 -0.0512
 9665TIP3    H150486   0.981   4.550   0.483 -0.2595  0.6224  1.1846
 9665TIP3    H250487   1.105   4.572   0.567 -1.0343 -0.5684  2.7003
 9666TIP3   OH250488   2.511   6.689  16.093 -0.2421 -0.3397 -0.1517
 9666TIP3    H150489   2.445   6.635  16.137  0.5463 -0.8633  0.3989
 9666TIP3    H250490   2.533   6.640  16.014  0.5547 -0.8869  0.4037
 9667TIP3   OH250491   4.798   4.343   1.052  0.0473 -0.8623  0.1468
 9667TIP3    H150492   4.850   4.416   1.085 -0.5593  0.1402 -1.0498
 9667TIP3    H250493   4.709   4.377   1.045  0.0555 -1.1335 -2.0645
 9668TIP3   OH250494   0.355   6.145   2.305  0.3964 -0.0913  0.3813
 9668TIP3    H150495   0.424   6.082   2.325  0.2334 -0.3063  0.2671
 9668TIP3    H250496   0.327   6.123   2.216  0.5952  0.3768  0.1971
 9669TIP3   OH250497   1.157   2.239  10.702 -0.3282  0.1886  0.1620
 9669TIP3    H150498   1.101   2.231  10.625 -1.2232 -0.7336  0.8732
 9669TIP3    H250499   1.246   2.243  10.666 -0.7814  0.7543 -0.9496
 9670TIP3   OH250500   3.390   3.411   1.561 -0.1373 -0.1129  0.7843
 9670TIP3    H150501   3.362   3.439   1.648 -0.5910 -0.3555  0.7187
 9670TIP3    H250502   3.470   3.362   1.576  1.3797  2.1949  0.8054
 9671TIP3   OH250503   5.912   6.549  12.550  0.1048  0.1217  0.2334
 9671TIP3    H150504   5.869   6.558  12.635 -2.4644  1.0543 -1.0796
 9671TIP3    H250505   5.920   6.639  12.517  2.3865 -0.0876  0.0256
 9672TIP3   OH250506   4.923   4.841   0.954  0.0179 -0.1629 -0.4247
 9672TIP3    H150507   4.904   4.747   0.946 -0.8785  0.0694 -1.1722
 9672TIP3    H250508   4.861   4.871   1.021  0.3256 -0.1120 -0.1647
 9673TIP3   OH250509   0.238   5.970  10.280  0.1087 -0.8696 -0.0901
 9673TIP3    H150510   0.244   6.062  10.256  0.8919 -1.1502 -1.0638
 9673TIP3    H250511   0.328   5.937  10.272 -0.5445 -2.3719 -2.6536
 9674TIP3   OH250512   2.498   2.568   2.264 -0.3780  0.4169  0.1523
 9674TIP3    H150513   2.564   2.530   2.321 -0.0011  0.6920 -0.0952
 9674TIP3    H250514   2.503   2.516   2.183  0.6445  1.4261 -0.4627
 9675TIP3   OH250515   2.651   0.284  11.324 -0.1879  0.4158 -0.0050
 9675TIP3    H150516   2.704   0.211  11.357 -1.6926 -0.9436 -0.4779
 9675TIP3    H250517   2.715   0.348  11.292  1.1797 -0.3983  1.0211
 9676TIP3   OH250518   0.433   0.700  16.646 -0.0690 -0.3291  0.3616
 9676TIP3    H150519   0.528   0.695  16.637 -0.0397  1.2323 -0.4866
 9676TIP3    H250520   0.412   0.792  16.634 -1.7435 -0.7145  0.0023
 9677TIP3   OH250521   1.434   4.986  16.401 -0.3942 -0.2137  0.3991
 9677TIP3    H150522   1.449   5.046  16.473 -1.7198  1.3400 -0.5428
 9677TIP3    H250523   1.473   5.030  16.324 -0.1303 -1.2318 -0.0675
 9678TIP3   OH250524   5.151   2.849   2.260 -0.0318  0.5923  0.1142
 9678TIP3    H150525   5.198   2.932   2.245  2.9725 -0.2097  3.6486
 9678TIP3    H250526   5.200   2.785   2.209  0.3223  0.3788  0.7077
 9679TIP3   OH250527   2.603   2.564  10.695 -0.6672  0.2528  0.5491
 9679TIP3    H150528   2.692   2.529  10.686 -1.2067 -0.9958 -0.2993
 9679TIP3    H250529   2.548   2.486  10.699 -1.7471  1.0124  0.8584
 9680TIP3   OH250530   3.878   5.322   0.094 -0.2236  0.1543 -0.5603
 9680TIP3    H150531   3.838   5.295   0.011 -1.2273 -0.4840  0.0980
 9680TIP3    H250532   3.869   5.417   0.095 -0.3090  0.1562 -1.1328
 9681TIP3   OH250533   6.871   1.433  11.605 -0.1256 -0.7543 -0.4210
 9681TIP3    H150534   6.961   1.466  11.611 -0.3643 -0.2297  0.4624
 9681TIP3    H250535   6.838   1.439  11.695 -1.0044 -1.0634 -0.7184
 9682TIP3   OH250536   6.861   0.493  12.631 -0.2716  0.2513  0.2581
 9682TIP3    H150537   6.853   0.404  12.596  2.9242 -0.0533  0.0126
 9682TIP3    H250538   6.917   0.483  12.709 -0.1519  1.9863  0.4276
 9683TIP3   OH250539   2.888   6.592   1.121  0.2336  0.2522  0.2666
 9683TIP3    H150540   2.922   6.640   1.046  0.9333 -1.9596 -0.9116
 9683TIP3    H250541   2.939   6.624   1.195  0.3587  1.6028 -0.3751
 9684TIP3   OH250542   6.073   3.491   3.496 -0.0212 -0.0950  0.0667
 9684TIP3    H150543   6.049   3.548   3.569  0.3639  2.3385 -1.5964
 9684TIP3    H250544   6.151   3.444   3.527  0.3670  1.1837  1.0878
 9685TIP3   OH250545   6.453   2.902  11.577  0.9862 -0.4796  0.0120
 9685TIP3    H150546   6.503   2.905  11.495  0.4435  0.8384 -0.3002
 9685TIP3    H250547   6.493   2.830  11.627  1.3280 -1.2991 -1.3931
 9686TIP3   OH250548   2.820   2.215  12.226  0.0751 -0.2261 -0.1227
 9686TIP3    H150549   2.766   2.176  12.157  0.7884 -0.0615 -0.7928
 9686TIP3    H250550   2.758   2.240  12.294 -0.5332 -1.3807 -0.2241
 9687TIP3   OH250551   4.022   5.465  16.614  0.5221 -0.0480  0.5989
 9687TIP3    H150552   4.081   5.471  16.539  1.8385 -1.2430  1.5048
 9687TIP3    H250553   4.032   5.549  16.659 -0.7269  0.9232 -0.8318
 9688TIP3   OH250554   5.474   1.543  14.223  0.1384 -0.3995 -0.3319
 9688TIP3    H150555   5.379   1.528  14.227 -0.0288  0.0897 -1.7209
 9688TIP3    H250556   5.485   1.632  14.256  0.1924 -0.6805  0.4151
 9689TIP3   OH250557   6.648   0.096   4.990 -0.2647 -0.0204  0.0432
 9689TIP3    H150558   6.719   0.032   4.986 -0.4666 -0.2384 -3.7836
 9689TIP3    H250559   6.684   0.174   4.948 -1.4606  0.7929  0.4876
 9690TIP3   OH250560   3.857   3.134  15.025  0.4739  0.1010 -0.2974
 9690TIP3    H150561   3.800   3.212  15.023  0.9664  0.4473 -1.2196
 9690TIP3    H250562   3.918   3.147  14.953  0.2467 -1.3901 -0.7966
 9691TIP3   OH250563   4.493   0.376  11.271  0.8472 -0.0900 -0.2069
 9691TIP3    H150564   4.449   0.432  11.335  0.7239 -0.7205  0.2725
 9691TIP3    H250565   4.423   0.348  11.212  0.8398 -0.0641 -0.2109
 9692TIP3   OH250566   0.307   1.418  13.427 -0.1694  0.0624 -0.5017
 9692TIP3    H150567   0.288   1.348  13.365  0.2582 -1.0936  0.6190
 9692TIP3    H250568   0.352   1.374  13.499  1.9294  1.7835 -0.6409
 9693TIP3   OH250569   5.190   3.438   1.430 -0.1433 -0.0054 -0.1838
 9693TIP3    H150570   5.228   3.454   1.517 -0.8851  2.0684 -0.1837
 9693TIP3    H250571   5.098   3.461   1.440 -0.4504 -0.7065 -1.2912
 9694TIP3   OH250572   5.659   2.342  15.004 -0.1803 -0.1243  0.3282
 9694TIP3    H150573   5.687   2.298  14.924 -0.8767 -0.4480  0.2626
 9694TIP3    H250574   5.621   2.424  14.975 -1.9350 -0.9489  0.1729
 9695TIP3   OH250575   0.937   2.587  10.756  0.1687  0.1742 -0.6524
 9695TIP3    H150576   1.007   2.571  10.693  0.3689 -0.7654 -0.2173
 9695TIP3    H250577   0.982   2.601  10.839 -0.1579 -1.4273 -0.1703
 9696TIP3   OH250578   3.788   1.999   4.544  0.2865 -0.0519  0.0285
 9696TIP3    H150579   3.765   2.084   4.582 -0.0995  0.1110 -0.5458
 9696TIP3    H250580   3.874   2.012   4.505  0.4648 -0.0790  0.4124
 9697TIP3   OH250581   6.567   2.429   5.262  0.3148  0.0017 -0.1828
 9697TIP3    H150582   6.555   2.473   5.346 -1.3048  0.2517 -0.5186
 9697TIP3    H250583   6.581   2.337   5.285 -2.6135 -0.4066  0.3405
 9698TIP3   OH250584   5.535   0.411  12.008 -0.4815  0.4331  0.1527
 9698TIP3    H150585   5.472   0.387  11.939  0.6690 -0.0660 -0.7766
 9698TIP3    H250586   5.603   0.460  11.962  1.3636 -1.6408  0.4823
 9699TIP3   OH250587   1.473   5.821  13.835 -0.0714 -0.5595  0.0583
 9699TIP3    H150588   1.497   5.767  13.760  0.0815 -1.9496  1.0753
 9699TIP3    H250589   1.425   5.762  13.893  1.5411 -0.0875  1.9905
 9700TIP3   OH250590   2.648   1.274   2.080  0.3828  0.2033  0.3077
 9700TIP3    H150591   2.564   1.274   2.125  0.1635 -0.8012 -0.0924
 9700TIP3    H250592   2.705   1.328   2.136  0.4868 -2.0115  2.5084
 9701TIP3   OH250593   5.359   1.921   4.773 -0.5462  0.4224  0.2246
 9701TIP3    H150594   5.265   1.931   4.755 -0.9821 -0.1322  1.9741
 9701TIP3    H250595   5.377   1.828   4.758 -0.2510  0.5402 -0.1683
 9702TIP3   OH250596   1.503   2.392   0.564  0.2784  0.2013 -0.2283
 9702TIP3    H150597   1.428   2.451   0.557  1.1638  1.4718  0.5120
 9702TIP3    H250598   1.569   2.429   0.505  1.4436  0.9671  1.4689
 9703TIP3   OH250599   0.213   5.306   0.723 -0.1746 -0.6956  0.4521
 9703TIP3    H150600   0.134   5.253   0.721 -0.2701 -0.5617 -1.4194
 9703TIP3    H250601   0.255   5.289   0.638  0.8963  0.5527  0.7022
 9704TIP3   OH250602   4.258   2.588   3.307 -1.0488  0.0517 -0.3061
 9704TIP3    H150603   4.243   2.639   3.227 -3.9385 -0.5840 -0.2819
 9704TIP3    H250604   4.344   2.616   3.337 -1.4003  3.0223 -1.6535
 9705TIP3   OH250605   5.260   6.645   2.766  0.1339  0.0857  0.0970
 9705TIP3    H150606   5.279   6.621   2.857  0.4315  0.7852  0.2318
 9705TIP3    H250607   5.168   6.671   2.767  0.4246  1.1775  0.4574
 9706TIP3   OH250608   0.549   3.972  10.478  0.5143  0.3423 -0.1115
 9706TIP3    H150609   0.460   3.939  10.465  0.3193 -0.1455  2.0486
 9706TIP3    H250610   0.578   3.997  10.390 -0.1440 -3.4777 -1.6465
 9707TIP3   OH250611   0.446   0.289   5.252  0.5561  0.2552 -0.4400
 9707TIP3    H150612   0.444   0.294   5.157 -0.4576  0.3545 -0.4258
 9707TIP3    H250613   0.539   0.282   5.274  0.9197  1.7397 -1.3642
 9708TIP3   OH250614   1.935   3.385   3.099  0.0826  0.2381  0.4963
 9708TIP3    H150615   1.958   3.354   3.186  2.2603 -1.8371 -0.6670
 9708TIP3    H250616   2.020   3.404   3.058 -0.7369 -0.3705 -1.6207
 9709TIP3   OH250617   2.130   4.748  14.637  0.2254 -0.5191 -0.5457
 9709TIP3    H150618   2.099   4.716  14.552  0.6964  2.0845 -1.7984
 9709TIP3    H250619   2.056   4.796  14.673 -0.5138 -2.9032  1.3558
 9710TIP3   OH250620   3.387   2.404  14.923 -0.2731 -0.0688 -0.3516
 9710TIP3    H150621   3.413   2.342  14.856 -0.0294  2.0917 -2.3845
 9710TIP3    H250622   3.468   2.448  14.949 -0.4259 -0.5778  1.0942
 9711TIP3   OH250623   6.857   5.205   9.614  0.3226  0.3562 -0.0230
 9711TIP3    H150624   6.764   5.224   9.624  0.1325 -0.0568 -0.9379
 9711TIP3    H250625   6.880   5.155   9.692 -0.0422  1.0878  0.5632
 9712TIP3   OH250626   6.879   3.208  13.135  0.1575 -0.3217  0.3949
 9712TIP3    H150627   6.862   3.300  13.158  3.5747  0.3247  0.9162
 9712TIP3    H250628   6.824   3.158  13.195 -0.5302  1.3877  1.2601
 9713TIP3   OH250629   5.714   1.331   0.884 -0.1484  0.2672  0.2234
 9713TIP3    H150630   5.686   1.276   0.958 -0.0010 -0.3533 -0.1688
 9713TIP3    H250631   5.634   1.345   0.834  0.1793 -1.5434 -0.9215
 9714TIP3   OH250632   0.538   0.649  13.372 -0.1249  0.0018  0.2038
 9714TIP3    H150633   0.533   0.743  13.384  0.7731  0.3531 -1.7685
 9714TIP3    H250634   0.454   0.624  13.332  0.7051  0.5044 -2.0174
 9715TIP3   OH250635   0.913   5.413   5.524 -0.5573 -0.2784 -0.0677
 9715TIP3    H150636   0.960   5.332   5.544 -1.3975 -0.5879  0.7359
 9715TIP3    H250637   0.833   5.408   5.577  0.1463  1.8419  1.3069
 9716TIP3   OH250638   0.802   3.289  15.408  0.3696  0.0781  0.1436
 9716TIP3    H150639   0.843   3.366  15.446  1.1713 -0.0102 -0.5081
 9716TIP3    H250640   0.780   3.315  15.319  1.7340 -0.7868 -0.4825
 9717TIP3   OH250641   3.657   3.065  13.598 -0.2752 -0.8179  0.4573
 9717TIP3    H150642   3.618   2.987  13.638 -0.8085 -1.4150 -1.1520
 9717TIP3    H250643   3.744   3.036  13.571 -0.4640 -0.8449 -0.1201
 9718TIP3   OH250644   0.735   3.306  12.777 -0.0780 -0.4060  0.3127
 9718TIP3    H150645   0.740   3.217  12.813  1.8591 -0.1084  0.8745
 9718TIP3    H250646   0.813   3.315  12.722 -0.3742  0.8633  0.0658
 9719TIP3   OH250647   0.980   2.251  13.582 -0.1448 -0.1621 -0.7284
 9719TIP3    H150648   0.961   2.165  13.545 -1.8840  0.7209 -2.0050
 9719TIP3    H250649   0.973   2.312  13.509 -0.5589  1.2742  0.4495
 9720TIP3   OH250650   1.784   6.248  13.613  0.1845 -0.2389  0.3127
 9720TIP3    H150651   1.739   6.189  13.673 -0.9789 -0.3585 -0.6507
 9720TIP3    H250652   1.776   6.335  13.653  0.7163 -0.5282  1.0559
 9721TIP3   OH250653   0.996   2.663   0.684  0.3578  0.1513 -0.1191
 9721TIP3    H150654   0.934   2.721   0.639  1.4851  0.3030 -1.5532
 9721TIP3    H250655   1.018   2.596   0.618  0.1143 -1.1505  1.0643
 9722TIP3   OH250656   0.221   3.154   0.032 -0.7399 -0.0670 -0.0424
 9722TIP3    H150657   0.248   3.176  -0.057 -0.0407  0.5892  0.3193
 9722TIP3    H250658   0.139   3.202   0.045 -0.7875 -0.0800 -0.2870
 9723TIP3   OH250659   3.738   2.737  15.748  0.1445 -0.4005 -0.0051
 9723TIP3    H150660   3.710   2.701  15.664  0.6851 -1.8226  0.4107
 9723TIP3    H250661   3.691   2.821  15.753 -0.1288 -0.4086 -1.5780
 9724TIP3   OH250662   0.811   1.304   5.871 -0.0243 -0.0265  0.1160
 9724TIP3    H150663   0.821   1.277   5.962 -0.4420 -1.5935 -0.2819
 9724TIP3    H250664   0.759   1.235   5.830 -1.4610  1.5650 -0.8900
 9725TIP3   OH250665   0.200   2.269   3.171 -0.2028  0.3790 -0.1323
 9725TIP3    H150666   0.263   2.210   3.129 -0.4806  0.4751 -0.6988
 9725TIP3    H250667   0.216   2.259   3.264 -0.3245 -0.6934 -0.2097
 9726TIP3   OH250668   6.902   1.344  11.080 -0.3452  0.3238  0.2825
 9726TIP3    H150669   6.976   1.365  11.023 -1.2241 -1.2114 -1.4997
 9726TIP3    H250670   6.921   1.392  11.161  2.0471  0.8302 -0.4875
 9727TIP3   OH250671   6.674   4.761  16.577  0.2839 -0.0145 -0.3921
 9727TIP3    H150672   6.642   4.843  16.539  1.6666  0.8228  0.1799
 9727TIP3    H250673   6.732   4.724  16.509  0.1951 -0.1730 -0.3811
 9728TIP3   OH250674   4.317   1.851   0.781  0.0732  0.3508 -0.0934
 9728TIP3    H150675   4.260   1.894   0.844 -1.5141 -2.9059  0.9241
 9728TIP3    H250676   4.406   1.873   0.809 -0.6277  0.7437  1.9612
 9729TIP3   OH250677   3.900   3.614  13.874 -0.1410 -0.0427  0.0390
 9729TIP3    H150678   3.952   3.653  13.804  0.5055 -3.6831 -1.7792
 9729TIP3    H250679   3.963   3.592  13.942 -0.2690  0.7269  0.4110
 9730TIP3   OH250680   0.256   0.251   0.465  0.7238 -0.3471  0.2405
 9730TIP3    H150681   0.242   0.337   0.503 -2.4789  0.4172 -2.2628
 9730TIP3    H250682   0.282   0.268   0.374 -0.1485 -2.0028 -0.3651
 9731TIP3   OH250683   1.692   2.999  12.115 -0.1760 -0.0506  0.4948
 9731TIP3    H150684   1.785   3.014  12.097 -0.1560 -2.7411 -2.8375
 9731TIP3    H250685   1.691   2.938  12.189  0.6187  0.9153  1.3218
 9732TIP3   OH250686   3.408   6.211   2.157 -0.2232 -0.1115  0.3702
 9732TIP3    H150687   3.327   6.247   2.192  0.3571  2.2641 -0.5261
 9732TIP3    H250688   3.380   6.159   2.082 -0.9597  0.3428  0.3145
 9733TIP3   OH250689   5.009   0.155  11.213 -0.3560  0.3280 -0.2952
 9733TIP3    H150690   4.988   0.242  11.179 -0.3030 -0.4245 -2.4005
 9733TIP3    H250691   5.094   0.133  11.173  0.7308  0.1489  1.9272
 9734TIP3   OH250692   2.631   5.845   3.786  0.4652 -0.3994  0.6582
 9734TIP3    H150693   2.607   5.825   3.696 -1.6449 -0.9992  1.3036
 9734TIP3    H250694   2.631   5.761   3.831  0.6788 -0.0210  1.3895
 9735TIP3   OH250695   1.431   5.514   4.941 -0.1144 -0.0516 -0.2878
 9735TIP3    H150696   1.490   5.532   5.014 -2.3092  1.3451  1.2654
 9735TIP3    H250697   1.425   5.596   4.894 -0.5780 -0.2471 -0.5798
 9736TIP3   OH250698   0.573   4.533  16.315 -0.7440  0.2092 -0.2095
 9736TIP3    H150699   0.505   4.539  16.383  0.6007 -1.6464  1.4088
 9736TIP3    H250700   0.537   4.470  16.252 -0.0854 -1.8949  1.3729
 9737TIP3   OH250701   5.448   5.497   5.879 -0.3402 -0.0684  0.1168
 9737TIP3    H150702   5.386   5.495   5.805 -1.0424 -1.2003  0.7026
 9737TIP3    H250703   5.534   5.491   5.838 -0.5280  2.3407 -0.7665
 9738TIP3   OH250704   1.495   5.046  14.747 -0.0467 -0.0239 -0.5452
 9738TIP3    H150705   1.573   5.033  14.800 -0.2984  1.8527  0.3570
 9738TIP3    H250706   1.423   5.049  14.810 -0.4130  1.7072 -1.0105
 9739TIP3   OH250707   2.776   4.441   0.282 -0.2383  0.0420  1.0403
 9739TIP3    H150708   2.776   4.345   0.280 -0.8580  0.0030 -1.6197
 9739TIP3    H250709   2.866   4.465   0.261 -0.6638 -0.0829 -1.2526
 9740TIP3   OH250710   2.250   6.659   1.980 -0.0843 -0.0574 -0.3389
 9740TIP3    H150711   2.342   6.640   1.998  0.0164  0.5111 -0.2230
 9740TIP3    H250712   2.226   6.726   2.045  0.0871  1.5013 -1.8060
 9741TIP3   OH250713   2.258   5.236  13.521  0.2589 -0.2253 -0.8675
 9741TIP3    H150714   2.173   5.207  13.552  0.5966  0.2232  0.5620
 9741TIP3    H250715   2.247   5.330  13.505  0.5354 -0.1248 -0.4769
 9742TIP3   OH250716   2.963   5.118  14.987  0.0605  0.1616  0.2087
 9742TIP3    H150717   2.869   5.125  14.976  0.0796 -0.3126 -0.3165
 9742TIP3    H250718   2.983   5.169  15.066 -0.5379  0.8203 -0.0688
 9743TIP3   OH250719   1.100   2.454  15.723 -0.7518  0.6198 -0.2276
 9743TIP3    H150720   1.147   2.502  15.655  2.1906  0.7963  1.7244
 9743TIP3    H250721   1.111   2.507  15.802 -3.0374 -0.1426  0.6841
 9744TIP3   OH250722   3.912   0.738  15.930  0.0986 -0.5977  0.3264
 9744TIP3    H150723   3.899   0.824  15.971 -0.7959 -1.1767  1.2985
 9744TIP3    H250724   3.875   0.676  15.993  0.8402 -1.7094 -0.3139
 9745TIP3   OH250725   6.704   0.608   2.337 -0.1813  0.3978  0.5884
 9745TIP3    H150726   6.730   0.613   2.429 -0.7291  3.8827  0.6892
 9745TIP3    H250727   6.611   0.584   2.339 -0.6107  1.9735  1.1086
 9746TIP3   OH250728   6.551   5.212   3.962 -0.1979  0.3893  0.0499
 9746TIP3    H150729   6.614   5.140   3.955 -0.4907  0.2193 -0.9753
 9746TIP3    H250730   6.598   5.288   3.929 -0.0720  0.5526  0.6067
 9747TIP3   OH250731   6.539   6.516  16.425 -0.0935  0.2212  0.5120
 9747TIP3    H150732   6.569   6.605  16.407  0.2459 -0.1923 -1.1495
 9747TIP3    H250733   6.465   6.527  16.484 -0.4843  1.6597 -0.1887
 9748TIP3   OH250734   4.375   0.948  13.951  0.0200  0.8020 -0.4756
 9748TIP3    H150735   4.424   1.021  13.913 -0.4890  1.1377 -0.4934
 9748TIP3    H250736   4.347   0.979  14.037  0.8195  0.1902  0.0223
 9749TIP3   OH250737   6.786   4.431  16.491 -0.3401  0.4419 -0.1383
 9749TIP3    H150738   6.773   4.384  16.409 -0.8663  0.9084 -0.3222
 9749TIP3    H250739   6.726   4.388  16.553  3.5595 -3.4366  1.5302
 9750TIP3   OH250740   6.756   5.474   5.194  0.1366 -0.4143 -0.0904
 9750TIP3    H150741   6.768   5.517   5.279 -0.4606 -0.4794  0.0320
 9750TIP3    H250742   6.810   5.524   5.133 -1.5072  1.3302 -0.2081
 9751TIP3   OH250743   4.595   5.448  13.158 -0.5594  0.3331  0.0536
 9751TIP3    H150744   4.654   5.503  13.107 -1.1666 -0.5168 -1.6473
 9751TIP3    H250745   4.515   5.500  13.167 -0.3803  0.5641  0.3323
 9752TIP3   OH250746   4.026   4.402   2.980  0.2177 -0.3027  0.0694
 9752TIP3    H150747   3.946   4.379   3.026  2.1096  0.4096  4.1994
 9752TIP3    H250748   4.054   4.321   2.937 -1.3758 -1.2291  0.7257
 9753TIP3   OH250749   6.729   0.665  15.182  0.1555  0.1223 -0.0960
 9753TIP3    H150750   6.781   0.745  15.182 -0.0762  0.2878 -1.2309
 9753TIP3    H250751   6.679   0.669  15.264  1.3953  0.2825  0.6843
 9754TIP3   OH250752   4.134   6.342  15.879  0.4464  0.0310  0.6185
 9754TIP3    H150753   4.151   6.417  15.822 -2.0289 -0.4008 -0.8193
 9754TIP3    H250754   4.082   6.378  15.951  1.2902  0.0914  1.2089
 9755TIP3   OH250755   2.382   2.815  13.202 -0.2092  0.6902 -0.2590
 9755TIP3    H150756   2.353   2.725  13.218  0.2373  0.7487  1.0413
 9755TIP3    H250757   2.381   2.856  13.289  0.0345  1.8057 -0.7633
 9756TIP3   OH250758   6.472   5.056  16.505  0.1427 -0.3693  0.1063
 9756TIP3    H150759   6.542   5.115  16.532 -1.9684  1.9582  0.9227
 9756TIP3    H250760   6.449   5.085  16.417 -0.0690 -0.8234  0.0092
 9757TIP3   OH250761   0.731   2.810  10.894 -0.8283 -0.3113  0.1704
 9757TIP3    H150762   0.734   2.782  10.802  1.5626  0.2002  0.0270
 9757TIP3    H250763   0.820   2.797  10.926 -1.1585  1.2291  1.9110
 9758TIP3   OH250764   4.727   4.358   0.445  0.5090  0.8767  0.2368
 9758TIP3    H150765   4.678   4.320   0.372 -0.2816  1.0033  0.6903
 9758TIP3    H250766   4.788   4.288   0.471 -1.2428 -0.3252  1.3581
 9759TIP3   OH250767   5.745   2.071  15.387  0.6156 -0.5662 -0.2474
 9759TIP3    H150768   5.746   1.988  15.339 -0.6176 -1.0365  0.4839
 9759TIP3    H250769   5.652   2.086  15.406  0.6876  1.4662 -1.1752
 9760TIP3   OH250770   6.584   3.664  11.820 -0.2138  0.3401  0.4946
 9760TIP3    H150771   6.646   3.693  11.887 -1.6682  2.4073  1.0284
 9760TIP3    H250772   6.563   3.574  11.844  2.1835 -0.2713  0.5422
 9761TIP3   OH250773   5.169   1.174  15.243 -0.4848  0.0246  0.1519
 9761TIP3    H150774   5.088   1.148  15.287  1.5020 -1.6585  3.0979
 9761TIP3    H250775   5.205   1.244  15.297  1.5608 -1.4298  0.7779
 9762TIP3   OH250776   6.394   4.544  10.876  0.5301  0.6009 -0.6497
 9762TIP3    H150777   6.341   4.491  10.816  1.6001  0.1607 -1.2272
 9762TIP3    H250778   6.479   4.550  10.834  0.4463  2.8445 -0.6442
 9763TIP3   OH250779   6.756   1.674   4.767 -0.1023 -0.7670  0.6635
 9763TIP3    H150780   6.845   1.667   4.732  0.2874  2.4538  0.6424
 9763TIP3    H250781   6.704   1.705   4.693 -0.9237 -1.1521  1.0677
 9764TIP3   OH250782   3.400   1.691  15.149 -0.6677  0.1696 -0.1353
 9764TIP3    H150783   3.475   1.740  15.183  2.4072 -3.2925 -1.2593
 9764TIP3    H250784   3.328   1.715  15.206  1.5232  2.9022  1.7503
 9765TIP3   OH250785   4.370   0.330   4.200  0.2790  0.9650  0.3546
 9765TIP3    H150786   4.443   0.275   4.230 -0.7910 -1.5322 -1.2951
 9765TIP3    H250787   4.387   0.343   4.107 -0.3343  2.1431  0.3941
 9766TIP3   OH250788   4.212   0.208  16.017 -0.1467 -0.2230  0.3284
 9766TIP3    H150789   4.221   0.155  15.938  0.7183 -0.0685  0.3059
 9766TIP3    H250790   4.191   0.295  15.985  0.5972 -0.0682  0.2279
 9767TIP3   OH250791   4.815   1.808   1.692 -0.3125  0.2851 -0.4936
 9767TIP3    H150792   4.750   1.808   1.622  0.8464 -1.1972 -1.6455
 9767TIP3    H250793   4.838   1.716   1.704 -0.4094  0.4978  1.8194
 9768TIP3   OH250794   1.815   2.160  11.612 -0.1050  0.5470  0.2755
 9768TIP3    H150795   1.743   2.209  11.572  0.4602  0.7620 -0.5021
 9768TIP3    H250796   1.787   2.146  11.702 -1.9353 -0.9808 -0.4694
 9769TIP3   OH250797   1.983   2.464  12.794 -0.2616 -0.0884 -0.0797
 9769TIP3    H150798   2.072   2.480  12.825  0.0240 -0.8298 -0.4956
 9769TIP3    H250799   1.993   2.408  12.718 -1.0955 -0.3193 -0.0341
 9770TIP3   OH250800   1.998   2.196   4.238  0.5547 -0.3660 -0.4521
 9770TIP3    H150801   1.922   2.150   4.202  0.8279  0.8822 -2.7973
 9770TIP3    H250802   1.995   2.283   4.198  1.9390  0.5233  1.2266
 9771TIP3   OH250803   1.144   2.650  10.574  0.5898 -0.2823  0.2894
 9771TIP3    H150804   1.222   2.614  10.532  0.7753 -0.0184  0.4020
 9771TIP3    H250805   1.071   2.619  10.521  0.9170  1.4203 -1.2423
 9772TIP3   OH250806   1.788   1.343   3.512  0.0395 -0.1577 -0.0587
 9772TIP3    H150807   1.763   1.372   3.425 -1.4793  2.2156  1.0628
 9772TIP3    H250808   1.783   1.247   3.508 -2.3380 -0.0421 -1.9317
 9773TIP3   OH250809   6.071   0.518   0.355 -0.3208  0.1866  0.3546
 9773TIP3    H150810   6.116   0.493   0.436 -0.1566 -0.7671 -0.0218
 9773TIP3    H250811   6.041   0.436   0.317  0.0855  0.5618 -0.8375
 9774TIP3   OH250812   4.044   4.455   0.588 -0.4559 -0.3683 -0.4368
 9774TIP3    H150813   4.036   4.401   0.509 -0.5575 -0.0352 -0.6577
 9774TIP3    H250814   4.023   4.544   0.558  0.7495 -0.0261 -0.3086
 9775TIP3   OH250815   5.859   1.762  11.305 -0.0807 -0.5496  0.3522
 9775TIP3    H150816   5.865   1.835  11.242  1.8485 -0.9754 -0.0129
 9775TIP3    H250817   5.830   1.804  11.386 -0.1530  0.4342 -0.1568
 9776TIP3   OH250818   5.216   2.459  16.416 -0.4054  0.5123 -0.4556
 9776TIP3    H150819   5.269   2.460  16.496  0.0789 -1.1242 -0.7234
 9776TIP3    H250820   5.179   2.371  16.413 -0.1286  0.4161 -2.2085
 9777TIP3   OH250821   5.300   2.684  15.018 -0.0487  0.1885  0.1345
 9777TIP3    H150822   5.326   2.660  15.107 -0.4776  0.0002  0.2128
 9777TIP3    H250823   5.207   2.709  15.026  0.2640  1.4593 -0.0202
 9778TIP3   OH250824   6.435   1.068   1.641  0.0579 -0.0583 -0.0531
 9778TIP3    H150825   6.502   1.010   1.604 -0.0952 -0.6772  0.6157
 9778TIP3    H250826   6.467   1.089   1.729 -0.9818 -0.9865  0.5727
 9779TIP3   OH250827   0.894   4.223   1.256 -0.0088 -0.4336 -0.0629
 9779TIP3    H150828   0.872   4.220   1.349  0.1853 -0.5360 -0.0186
 9779TIP3    H250829   0.893   4.316   1.233 -3.0603 -0.5214 -0.6925
 9780TIP3   OH250830   2.877   3.019  15.199 -0.2480 -0.2231  0.0209
 9780TIP3    H150831   2.818   3.067  15.140  1.9925  0.5578 -1.7530
 9780TIP3    H250832   2.933   2.968  15.140  1.0359 -0.6774  1.5715
 9781TIP3   OH250833   5.697   1.965  12.395  0.3068  0.0958 -0.2593
 9781TIP3    H150834   5.624   1.970  12.457 -0.6797 -1.9903 -1.1486
 9781TIP3    H250835   5.666   2.012  12.317  0.1844 -0.1620 -0.3690
 9782TIP3   OH250836   5.776   0.906   4.666 -0.0758 -0.2465 -0.1977
 9782TIP3    H150837   5.688   0.869   4.675 -1.0292  1.9715  0.3958
 9782TIP3    H250838   5.810   0.909   4.755  0.6659 -1.1902 -0.4376
 9783TIP3   OH250839   6.824   5.193  10.681  0.0085 -0.7039  0.4702
 9783TIP3    H150840   6.797   5.103  10.698  1.9687 -1.3282  0.5698
 9783TIP3    H250841   6.852   5.226  10.766 -2.0353  0.5234  0.7068
 9784TIP3   OH250842   4.937   0.864  11.997 -0.2988 -0.2647 -0.1642
 9784TIP3    H150843   4.966   0.816  12.074 -0.7095 -1.1104 -0.5230
 9784TIP3    H250844   4.860   0.912  12.026 -1.7286 -2.2281 -0.5416
 9785TIP3   OH250845   2.516   2.534  11.881 -0.1777  0.5603 -0.2658
 9785TIP3    H150846   2.573   2.577  11.817  0.6253  0.7677  0.5701
 9785TIP3    H250847   2.493   2.603  11.943 -0.5831  0.2577 -0.0738
 9786TIP3   OH250848   2.703   1.115  14.006 -0.3819  0.1467 -0.3885
 9786TIP3    H150849   2.644   1.046  13.974 -0.2973  0.3958 -1.1102
 9786TIP3    H250850   2.786   1.070  14.019 -1.2814 -0.8302  3.1961
 9787TIP3   OH250851   0.921   0.608  13.610  0.1784 -0.4572 -0.3304
 9787TIP3    H150852   0.880   0.667  13.546  0.1570 -0.6615 -0.5090
 9787TIP3    H250853   0.989   0.563  13.560  0.4192 -0.3361 -0.1103
 9788TIP3   OH250854   6.779   4.600   4.237 -0.4274 -0.2472 -0.1600
 9788TIP3    H150855   6.744   4.689   4.238 -2.7416 -1.1051  0.3603
 9788TIP3    H250856   6.867   4.609   4.200 -1.1799  2.0241 -1.5541
 9789TIP3   OH250857   0.485   4.396  10.193 -0.3332 -0.1043 -0.6038
 9789TIP3    H150858   0.527   4.478  10.167 -0.0241  0.4791  1.5930
 9789TIP3    H250859   0.557   4.332  10.196  0.4359  0.7694  2.6198
 9790TIP3   OH250860   0.775   6.679   0.185  0.1516  0.5078 -0.4715
 9790TIP3    H150861   0.867   6.693   0.210  0.6497  0.5500 -2.1672
 9790TIP3    H250862   0.728   6.753   0.224  0.8475  0.5250  0.3590
 9791TIP3   OH250863   1.533   5.679  15.642  0.5825 -0.3924 -0.1789
 9791TIP3    H150864   1.437   5.682  15.648  0.3922 -0.8629 -2.1285
 9791TIP3    H250865   1.564   5.745  15.704 -1.0855  1.2433 -1.0023
 9792TIP3   OH250866   4.660   0.690   5.652  0.1270 -0.8144  0.4799
 9792TIP3    H150867   4.589   0.627   5.666 -0.8725 -0.0722 -0.9630
 9792TIP3    H250868   4.706   0.693   5.736 -0.6619 -2.3857  1.0228
 9793TIP3   OH250869   2.252   4.075   2.890 -0.4020 -0.7799  0.0180
 9793TIP3    H150870   2.203   4.157   2.886  0.2965 -0.2792  1.2465
 9793TIP3    H250871   2.188   4.010   2.918 -0.6473 -0.3791  0.3997
 9794TIP3   OH250872   0.030   3.537   3.519 -0.2387 -0.3941  0.2073
 9794TIP3    H150873   0.058   3.508   3.433 -1.6022 -0.2390 -0.3166
 9794TIP3    H250874   0.008   3.456   3.566  0.8157 -0.4984  0.5346
 9795TIP3   OH250875   6.599   5.387   0.609 -0.0622 -0.2391  0.8522
 9795TIP3    H150876   6.623   5.392   0.517  1.1676 -0.1377  1.1609
 9795TIP3    H250877   6.503   5.397   0.610 -0.1048 -0.4343 -0.4137
 9796TIP3   OH250878   0.141   3.126  16.480  0.1187  0.0662 -0.1171
 9796TIP3    H150879   0.046   3.138  16.470  0.1534 -1.1131 -2.4669
 9796TIP3    H250880   0.170   3.091  16.396  2.6115  0.0378  0.6744
 9797TIP3   OH250881   2.521   3.849   2.044 -0.0486  0.5769  0.4119
 9797TIP3    H150882   2.573   3.881   2.118  0.5926 -0.1927  0.2953
 9797TIP3    H250883   2.538   3.755   2.040  0.8482  0.7774 -1.4438
 9798TIP3   OH250884   5.052   6.749  14.214  0.3200  0.3672 -0.2460
 9798TIP3    H150885   5.032   6.664  14.254 -0.5541  1.4860  1.8541
 9798TIP3    H250886   5.147   6.748  14.201  0.3897 -0.7251  0.2561
 9799TIP3   OH250887   2.909   2.949  13.661  0.1454  0.2808  0.0477
 9799TIP3    H150888   2.872   2.964  13.748 -1.7872  0.4509 -0.7576
 9799TIP3    H250889   2.981   2.887  13.676 -0.4651 -0.0814  1.6980
 9800TIP3   OH250890   6.340   3.442  10.985  0.1406  0.2961  0.0737
 9800TIP3    H150891   6.349   3.347  10.981 -1.2954  0.0513  1.5347
 9800TIP3    H250892   6.304   3.466  10.900  0.2295 -0.5070 -0.1968
 9801TIP3   OH250893   6.391   3.540  13.638  0.5571  0.6049  0.1375
 9801TIP3    H150894   6.484   3.530  13.655  0.1506 -1.1707  1.7291
 9801TIP3    H250895   6.370   3.467  13.579  0.1256  0.8124  0.0328
 9802TIP3   OH250896   5.143   3.814  12.364 -0.2294 -0.1864  0.3614
 9802TIP3    H150897   5.169   3.886  12.307  0.8122 -1.3111 -0.6534
 9802TIP3    H250898   5.079   3.852  12.424 -1.6844  0.9528 -1.8041
 9803TIP3   OH250899   3.903   1.945  15.576  0.6486 -0.4077 -0.4042
 9803TIP3    H150900   3.900   2.011  15.645  0.1194 -0.0182 -0.7944
 9803TIP3    H250901   3.995   1.916  15.575  0.7106 -0.2664  0.3122
 9804TIP3   OH250902   5.823   2.455  16.525 -0.6369 -0.4485  0.8903
 9804TIP3    H150903   5.915   2.438  16.502 -0.4248  0.7569  0.8170
 9804TIP3    H250904   5.781   2.369  16.516  0.3870 -0.9330  0.5025
 9805TIP3   OH250905   1.549   6.826  16.579 -0.5518 -0.7734 -0.4620
 9805TIP3    H150906   1.454   6.838  16.574 -0.4553  0.9552  0.7598
 9805TIP3    H250907   1.580   6.834  16.489 -1.3714  1.0301 -0.6271
 9806TIP3   OH250908   1.214   5.374   9.851  0.1219 -0.2105  0.1355
 9806TIP3    H150909   1.185   5.283   9.851 -0.2066 -0.1189  1.4842
 9806TIP3    H250910   1.303   5.371   9.816 -0.3269 -0.8748 -1.0186
 9807TIP3   OH250911   0.519   0.434  12.637 -0.8655 -0.7187  0.4820
 9807TIP3    H150912   0.572   0.354  12.639 -0.7331 -0.6480  2.5173
 9807TIP3    H250913   0.575   0.501  12.677  0.2308  1.3096 -3.8102
 9808TIP3   OH250914   4.906   2.543  13.508  0.6394 -0.1811 -0.3767
 9808TIP3    H150915   4.959   2.471  13.542  1.5787  0.4467 -0.5036
 9808TIP3    H250916   4.967   2.599  13.461 -0.2456  0.2061 -1.1108
 9809TIP3   OH250917   3.771   6.535  10.724 -0.2049 -0.2123  0.0525
 9809TIP3    H150918   3.815   6.529  10.639 -0.4576 -0.2315 -0.0774
 9809TIP3    H250919   3.841   6.558  10.785  0.4398 -2.4950  0.2574
 9810TIP3   OH250920   1.914   2.838  14.918 -0.0536  0.2121 -0.3540
 9810TIP3    H150921   1.984   2.862  14.858  0.5769  3.6415  1.4742
 9810TIP3    H250922   1.856   2.915  14.919 -3.1612 -1.9315 -0.7437
 9811TIP3   OH250923   1.951   5.657   9.772 -0.6103 -0.1469 -0.3470
 9811TIP3    H150924   1.863   5.620   9.779 -1.2120  1.5189  2.2961
 9811TIP3    H250925   1.937   5.751   9.757  0.5784  0.4509  1.8198
 9812TIP3   OH250926   4.111   3.931   1.145  0.1199 -0.0208  0.0039
 9812TIP3    H150927   4.118   3.959   1.236  2.9110  0.6802 -0.3660
 9812TIP3    H250928   4.152   3.844   1.144 -1.3101 -0.7231 -0.3409
 9813TIP3   OH250929   0.032   1.979   2.617  0.0995  0.6858 -0.2411
 9813TIP3    H150930  -0.050   1.986   2.664 -0.6689 -0.8513 -1.2605
 9813TIP3    H250931   0.007   1.950   2.529  1.6452  1.3287 -0.9376
 9814TIP3   OH250932   0.850   0.650  15.744 -0.3427  0.1278  0.2548
 9814TIP3    H150933   0.883   0.740  15.745  0.3120 -0.0587 -1.3699
 9814TIP3    H250934   0.916   0.601  15.694 -0.9794 -1.1465  0.6192
 9815TIP3   OH250935   5.515   6.824   2.944  0.2216  0.6211  0.1248
 9815TIP3    H150936   5.492   6.731   2.953  2.8348 -0.0004  1.1774
 9815TIP3    H250937   5.434   6.870   2.966 -1.6087 -1.3507 -1.9158
 9816TIP3   OH250938   0.787   5.594  15.764  0.1943 -0.0392  0.2502
 9816TIP3    H150939   0.824   5.507  15.777 -2.7494 -1.3003  1.2085
 9816TIP3    H250940   0.830   5.648  15.830  1.1348 -1.0974  0.5366
 9817TIP3   OH250941   4.583   6.680  12.961  0.1625  0.0685 -0.3407
 9817TIP3    H150942   4.491   6.707  12.970  0.5991  1.1175  1.2338
 9817TIP3    H250943   4.600   6.624  13.037  1.9604  3.3701  1.9191
 9818TIP3   OH250944   0.132   5.560  11.027 -0.0275 -0.0100  0.4303
 9818TIP3    H150945   0.140   5.635  10.968 -0.8201  1.6584  2.3176
 9818TIP3    H250946   0.222   5.532  11.042  0.5954  2.3768  1.7959
 9819TIP3   OH250947   3.378   3.732   2.167 -0.4802 -0.2530  0.4694
 9819TIP3    H150948   3.308   3.795   2.150 -1.2151 -1.2447 -0.3542
 9819TIP3    H250949   3.430   3.771   2.237 -1.7409  0.6135  0.9571
 9820TIP3   OH250950   0.955   3.541   5.167  0.6313 -0.1291  0.5163
 9820TIP3    H150951   0.962   3.446   5.171  2.9399 -0.0238  0.4690
 9820TIP3    H250952   0.977   3.571   5.256  0.9463  0.3674  0.2812
 9821TIP3   OH250953   2.061   5.339   3.767  0.7092  0.5217 -0.1978
 9821TIP3    H150954   2.046   5.273   3.835  0.5021  1.0786  0.2968
 9821TIP3    H250955   2.043   5.292   3.685  0.5032 -0.0243  0.1496
 9822TIP3   OH250956   6.125   3.044  12.510  0.0207 -0.1898 -0.2817
 9822TIP3    H150957   6.212   3.017  12.540  0.8816  0.5952 -1.9142
 9822TIP3    H250958   6.090   2.967  12.465 -0.0464 -0.4327  0.1778
 9823TIP3   OH250959   5.699   3.261  13.118 -0.2239 -0.1949  0.6732
 9823TIP3    H150960   5.729   3.349  13.141  0.6273 -0.2495 -0.1541
 9823TIP3    H250961   5.703   3.213  13.200 -0.9047  0.5884  1.1827
 9824TIP3   OH250962   2.171   4.417  14.394  0.5596  0.5012  0.5178
 9824TIP3    H150963   2.113   4.373  14.456 -1.0991  0.0089 -1.2847
 9824TIP3    H250964   2.131   4.503  14.380  1.3543  0.9131  0.7005
 9825TIP3   OH250965   5.807   3.533   1.472  0.3203 -0.3315  0.5351
 9825TIP3    H150966   5.869   3.604   1.485  1.8327 -1.6941  1.1423
 9825TIP3    H250967   5.795   3.528   1.377  1.1024  0.0045  0.4109
 9826TIP3   OH250968   0.849   4.656  16.362 -0.3554 -0.1042  0.2441
 9826TIP3    H150969   0.791   4.582  16.342  1.1753 -1.5908  0.9986
 9826TIP3    H250970   0.802   4.733  16.330 -0.4789 -1.6721 -3.9889
 9827TIP3   OH250971   2.125   1.135  12.830  0.2174 -0.2752  0.0342
 9827TIP3    H150972   2.060   1.201  12.805 -2.1297 -2.6936 -0.6608
 9827TIP3    H250973   2.113   1.124  12.925 -0.7209 -1.0127 -0.1613
 9828TIP3   OH250974   3.339   0.586   2.626 -0.5673  0.2722 -0.5475
 9828TIP3    H150975   3.381   0.568   2.710 -1.5493 -0.3111 -0.1514
 9828TIP3    H250976   3.262   0.528   2.625 -1.7841  1.8055 -0.8890
 9829TIP3   OH250977   6.040   5.772  13.117 -0.1652  0.2470  0.2627
 9829TIP3    H150978   6.090   5.725  13.050  0.6829  1.5959 -0.0782
 9829TIP3    H250979   5.951   5.736  13.110  0.0475 -0.0691 -1.1675
 9830TIP3   OH250980   2.270   1.658  10.980 -0.3432  0.6055  0.7212
 9830TIP3    H150981   2.263   1.673  10.886  0.6672  2.4647  0.9013
 9830TIP3    H250982   2.252   1.565  10.991 -0.0441  0.2668 -1.3545
 9831TIP3   OH250983   4.539   6.423   0.339 -0.6300  0.0743  0.1897
 9831TIP3    H150984   4.514   6.333   0.323  0.4377 -0.2811  0.4140
 9831TIP3    H250985   4.545   6.429   0.435 -2.1352  0.8061  0.2701
 9832TIP3   OH250986   2.978   0.608   0.137 -0.2950  0.0403  0.1049
 9832TIP3    H150987   2.924   0.593   0.215 -0.1623  0.5275  0.2962
 9832TIP3    H250988   3.060   0.561   0.156  0.2590  1.2519  0.8572
 9833TIP3   OH250989   4.630   4.822   3.652  0.7113 -0.1142  0.6898
 9833TIP3    H150990   4.709   4.845   3.603 -0.0976  2.0731  0.3102
 9833TIP3    H250991   4.576   4.901   3.649 -1.3365 -1.4200  1.2680
 9834TIP3   OH250992   0.474   2.430  13.983 -0.1881 -0.3418 -0.1667
 9834TIP3    H150993   0.384   2.427  13.952 -0.0371 -2.5471 -0.5648
 9834TIP3    H250994   0.477   2.367  14.055  0.9072  0.0708  0.1699
 9835TIP3   OH250995   1.111   0.217  13.239  0.1261 -0.0633 -0.1967
 9835TIP3    H150996   1.172   0.246  13.307  0.3647 -0.2919 -0.3145
 9835TIP3    H250997   1.029   0.203  13.286  0.3958 -0.6076  0.1161
 9836TIP3   OH250998   0.160   3.596   0.300  0.0927  0.3584 -0.3475
 9836TIP3    H150999   0.071   3.630   0.309 -0.2430 -0.2778 -1.0685
 9836TIP3    H251000   0.149   3.514   0.251  0.9694 -0.2695  0.4743
 9837TIP3   OH251001   5.788   1.312  16.283  0.6627  0.1203 -0.1685
 9837TIP3    H151002   5.701   1.299  16.320  1.3130  1.0671  1.8296
 9837TIP3    H251003   5.773   1.319  16.188 -1.3408 -0.2681  0.0826
 9838TIP3   OH251004   1.703   4.882  12.415  0.1937 -0.3789  0.0918
 9838TIP3    H151005   1.670   4.970  12.394 -2.4939 -1.2372  0.3322
 9838TIP3    H251006   1.752   4.856  12.337  1.7520  1.5959  0.3339
 9839TIP3   OH251007   3.517   0.941  15.684 -0.0519 -0.0595  0.3360
 9839TIP3    H151008   3.551   0.855  15.707  0.8833  0.7457  2.1990
 9839TIP3    H251009   3.447   0.957  15.746  0.1908  0.7628  0.4103
 9840TIP3   OH251010   1.467   3.171   4.447 -0.0182  0.2613 -0.4190
 9840TIP3    H151011   1.513   3.202   4.525 -0.7908 -0.6296  0.4179
 9840TIP3    H251012   1.536   3.155   4.383  0.9841 -1.8973  1.0811
 9841TIP3   OH251013   2.160   4.703   0.351  0.1974 -0.5266 -0.1580
 9841TIP3    H151014   2.128   4.660   0.430 -2.2552  2.0383  0.3840
 9841TIP3    H251015   2.208   4.780   0.384  0.2136 -0.1019 -1.1546
 9842TIP3   OH251016   2.274   6.264  15.240 -0.2289  0.2506  0.1117
 9842TIP3    H151017   2.311   6.248  15.327  0.4598 -0.6947 -0.3390
 9842TIP3    H251018   2.346   6.306  15.191 -0.4864  0.4310 -0.1128
 9843TIP3   OH251019   0.684   3.419  16.477  0.2021 -0.3178 -0.0704
 9843TIP3    H151020   0.772   3.441  16.444 -0.7692 -0.2128 -2.8026
 9843TIP3    H251021   0.656   3.344  16.425 -0.7202 -1.4628  1.9458
 9844TIP3   OH251022   5.973   6.232   3.802 -0.2007  0.2041 -0.3641
 9844TIP3    H151023   6.039   6.281   3.752  0.0292  0.0040 -0.2595
 9844TIP3    H251024   5.896   6.289   3.803 -0.1769  0.2454 -0.8749
 9845TIP3   OH251025   1.909   2.718   3.247  0.5729  0.2125 -0.1651
 9845TIP3    H151026   1.943   2.733   3.159 -1.0177  0.6588 -0.7347
 9845TIP3    H251027   1.815   2.705   3.235 -0.1690  2.9356  1.6909
 9846TIP3   OH251028   5.657   4.879  12.592  0.2859  0.1679 -0.0379
 9846TIP3    H151029   5.719   4.952  12.599  1.4618 -0.7561 -0.4038
 9846TIP3    H251030   5.630   4.862  12.682  1.5270 -0.1871  0.2861
 9847TIP3   OH251031   5.577   3.144  14.971 -0.2045 -0.2516 -0.2400
 9847TIP3    H151032   5.667   3.138  14.940  0.3183 -0.6563  1.2930
 9847TIP3    H251033   5.576   3.223  15.026 -1.0048  0.2278 -0.9240
 9848TIP3   OH251034   5.934   4.292  10.717 -0.1093  0.2028 -0.0959
 9848TIP3    H151035   5.881   4.283  10.638  0.9956  2.6183 -1.2087
 9848TIP3    H251036   5.975   4.206  10.728  0.2788 -0.0126 -2.5766
 9849TIP3   OH251037   1.105   4.767  13.041 -0.6020  0.2805 -0.2411
 9849TIP3    H151038   1.174   4.738  13.100  0.6393 -0.6830 -2.0608
 9849TIP3    H251039   1.088   4.691  12.985 -0.5909  1.5904 -2.1162
 9850TIP3   OH251040   0.091   5.991  12.397  0.0358 -0.2089  0.3647
 9850TIP3    H151041   0.077   5.959  12.486  2.4242  0.1864  0.9352
 9850TIP3    H251042   0.024   5.946  12.344 -0.2166 -1.8761  2.0244
 9851TIP3   OH251043   1.612   6.476  12.415  0.0453  0.2042  0.9427
 9851TIP3    H151044   1.588   6.489  12.506 -0.2166  0.8876  0.7810
 9851TIP3    H251045   1.620   6.564  12.379 -0.5384 -0.0591  0.1293
 9852TIP3   OH251046   4.021   4.176  15.101 -0.0459 -0.8441 -0.2715
 9852TIP3    H151047   4.000   4.234  15.173 -0.1373  1.0339 -1.7423
 9852TIP3    H251048   3.940   4.126  15.087  0.0764 -1.4769  1.0863
 9853TIP3   OH251049   6.279   1.448  14.193 -0.3934 -0.0538  0.3038
 9853TIP3    H151050   6.342   1.506  14.236  1.0650 -0.2315 -1.4462
 9853TIP3    H251051   6.211   1.507  14.160  1.5268  0.9437 -2.2423
 9854TIP3   OH251052   3.129   5.119  15.636 -0.0629 -0.2070  0.4021
 9854TIP3    H151053   3.061   5.111  15.703 -0.4871  2.2369  0.3602
 9854TIP3    H251054   3.086   5.163  15.563  1.4993  1.4314  0.3747
 9855TIP3   OH251055   4.294   6.520   0.426  0.2717  0.0723 -0.6147
 9855TIP3    H151056   4.311   6.611   0.402  3.0421  0.0526  0.8459
 9855TIP3    H251057   4.360   6.470   0.379 -1.0387 -1.2024 -1.1751
 9856TIP3   OH251058   6.796   4.927   4.924 -0.1086  0.4811 -0.0659
 9856TIP3    H151059   6.801   5.008   4.874 -0.6885  0.8606  0.4775
 9856TIP3    H251060   6.842   4.946   5.005 -1.6860  0.8418  0.7895
 9857TIP3   OH251061   6.052   4.576   2.085  0.3068 -0.1994  0.2222
 9857TIP3    H151062   6.113   4.538   2.022 -1.2409 -0.5196 -1.1577
 9857TIP3    H251063   6.046   4.668   2.060 -0.3045 -0.3241 -0.0976
 9858TIP3   OH251064   0.717   6.631   1.861  0.3868  0.0766  0.2878
 9858TIP3    H151065   0.718   6.616   1.766 -3.1015  1.9779 -0.2121
 9858TIP3    H251066   0.801   6.673   1.879  0.3620  1.5131 -2.3936
 9859TIP3   OH251067   1.850   4.926   3.116  0.5803 -0.0340  0.5794
 9859TIP3    H151068   1.832   4.974   3.197  1.8285 -0.7604  1.3313
 9859TIP3    H251069   1.770   4.877   3.098  0.9164 -1.4453  2.5429
 9860TIP3   OH251070   1.109   2.664   1.426 -0.9325  0.1804  0.3888
 9860TIP3    H151071   1.112   2.669   1.521  0.4906 -0.5818  0.4064
 9860TIP3    H251072   1.076   2.576   1.407 -0.3415  0.0037  0.1778
 9861TIP3   OH251073   5.709   1.603   4.249  0.4286 -0.9858  0.0267
 9861TIP3    H151074   5.801   1.578   4.250  1.0089  0.4656 -3.0386
 9861TIP3    H251075   5.686   1.604   4.156 -1.7509  1.7612  0.4694
 9862TIP3   OH251076   3.667   3.389  11.815 -0.2341  0.0769 -0.2724
 9862TIP3    H151077   3.627   3.466  11.855 -2.9545 -0.4747 -1.7448
 9862TIP3    H251078   3.723   3.425  11.746 -0.6566  0.7698 -0.2642
 9863TIP3   OH251079   3.504   6.112   0.724  0.2032 -0.1239  0.2643
 9863TIP3    H151080   3.596   6.110   0.749 -0.2025  0.1773  1.9515
 9863TIP3    H251081   3.499   6.065   0.641  2.2189  1.8400 -1.0813
 9864TIP3   OH251082   0.608   0.584  11.814  0.2499 -0.5753  0.7966
 9864TIP3    H151083   0.515   0.570  11.798 -0.2494  1.5320  1.5604
 9864TIP3    H251084   0.628   0.528  11.890 -0.1693 -1.6188  0.1620
 9865TIP3   OH251085   6.226   3.190   4.394  0.2732 -0.9849 -0.6230
 9865TIP3    H151086   6.172   3.153   4.464 -0.6812 -0.5897 -1.1254
 9865TIP3    H251087   6.273   3.262   4.436  0.7932 -1.6364 -0.0616
 9866TIP3   OH251088   0.942   2.532  16.883 -0.3342  0.2746  0.1243
 9866TIP3    H151089   0.964   2.495  16.797  0.5190  0.3788  0.2954
 9866TIP3    H251090   0.854   2.568  16.871 -0.7370 -0.7972 -0.3688
 9867TIP3   OH251091   4.624   3.614   5.664 -0.5372  0.1322  0.8072
 9867TIP3    H151092   4.625   3.697   5.616  0.6574  0.1225  0.7818
 9867TIP3    H251093   4.573   3.632   5.743 -1.4198  0.5052  0.1660
 9868TIP3   OH251094   2.617   2.517   1.389  0.1967 -0.2365 -1.2836
 9868TIP3    H151095   2.565   2.557   1.319  0.9349 -1.1267 -2.3778
 9868TIP3    H251096   2.669   2.451   1.344  0.3876 -1.1120  0.1924
 9869TIP3   OH251097   3.104   1.278   1.410 -0.6120  0.0577  0.2372
 9869TIP3    H151098   3.089   1.300   1.502 -0.9116  1.5468 -0.1437
 9869TIP3    H251099   3.126   1.185   1.411  2.2744  0.6326  2.1115
 9870TIP3   OH251100   1.220   0.765  10.817 -0.1494  0.8515 -0.7425
 9870TIP3    H151101   1.145   0.807  10.774 -0.8957 -0.6597 -1.0035
 9870TIP3    H251102   1.226   0.807  10.902  1.2378  3.8039 -2.1475
 9871TIP3   OH251103   4.761   0.871  16.483 -0.3051  0.2846 -0.2017
 9871TIP3    H151104   4.811   0.827  16.414  0.4070  1.8413 -0.7151
 9871TIP3    H251105   4.777   0.818  16.561 -1.0315 -1.4492 -1.1628
 9872TIP3   OH251106   6.579   6.167   1.270  0.9639  0.0084 -0.4072
 9872TIP3    H151107   6.633   6.089   1.280 -0.5665 -0.9504  0.9035
 9872TIP3    H251108   6.590   6.193   1.178  0.2208 -2.7643 -1.3712
 9873TIP3   OH251109   5.626   2.145   4.034  0.3999  0.2266 -0.1353
 9873TIP3    H151110   5.584   2.076   3.983  2.4274  0.4806 -2.3034
 9873TIP3    H251111   5.656   2.101   4.114  0.2878 -1.0378 -0.7694
 9874TIP3   OH251112   6.755   1.953  14.190 -0.0500 -0.3045 -0.4734
 9874TIP3    H151113   6.730   1.867  14.157 -0.2240  0.0211 -1.1877
 9874TIP3    H251114   6.766   2.007  14.112 -0.2124  0.3988 -0.0146
 9875TIP3   OH251115   4.075   0.077  14.053  0.0824 -0.6777  0.9461
 9875TIP3    H151116   4.011   0.113  13.992  0.5719 -0.3133  0.6403
 9875TIP3    H251117   4.031   0.078  14.138 -0.4096 -0.6857  0.6958
 9876TIP3   OH251118   6.176   4.268  16.402 -0.2521  0.1913  0.4984
 9876TIP3    H151119   6.192   4.325  16.327 -1.8542 -1.6850 -1.4011
 9876TIP3    H251120   6.098   4.305  16.443 -0.2372  0.3901  0.3502
 9877TIP3   OH251121   3.106   6.210  15.275 -0.0565  0.0802 -0.2353
 9877TIP3    H151122   3.119   6.192  15.368  2.4928 -1.8549 -0.8477
 9877TIP3    H251123   3.153   6.292  15.260 -0.2037  0.2313  0.1203
 9878TIP3   OH251124   5.655   3.213  13.368  0.6315  0.2280 -0.0353
 9878TIP3    H151125   5.656   3.118  13.354 -3.4183 -0.0087  0.1827
 9878TIP3    H251126   5.676   3.223  13.461 -2.3955 -0.8721  0.8667
 9879TIP3   OH251127   0.516   4.450  14.808 -0.5325 -0.0647 -0.4172
 9879TIP3    H151128   0.517   4.490  14.895 -0.3449  0.5264 -0.6821
 9879TIP3    H251129   0.459   4.374  14.816  1.6188 -1.6457  0.9462
 9880TIP3   OH251130   0.864   4.603  15.049  0.2293  0.5549  0.1175
 9880TIP3    H151131   0.890   4.648  14.969 -1.6621  1.3409 -0.1143
 9880TIP3    H251132   0.855   4.673  15.114  1.5575 -0.0490  0.9932
 9881TIP3   OH251133   0.904   6.510   1.341 -0.2207  0.0769  0.2209
 9881TIP3    H151134   0.909   6.603   1.322 -1.4260  0.0360 -0.3557
 9881TIP3    H251135   0.986   6.474   1.306  0.1224  0.8728  0.2030
 9882TIP3   OH251136   1.736   4.019  14.729  0.3232  0.3809  0.2911
 9882TIP3    H151137   1.711   3.938  14.773  1.4428  1.1064  2.3507
 9882TIP3    H251138   1.693   4.013  14.643  0.7150 -2.5583  0.1883
 9883TIP3   OH251139   2.466   5.689   4.045  0.8974  0.1081 -0.5429
 9883TIP3    H151140   2.540   5.630   4.035  0.0876 -1.4620  1.7608
 9883TIP3    H251141   2.390   5.637   4.019  0.2306  0.2939  0.9099
 9884TIP3   OH251142   1.826   0.524   4.019  0.2640 -0.8202 -0.1561
 9884TIP3    H151143   1.786   0.555   3.938  0.6030 -2.1688 -0.8638
 9884TIP3    H251144   1.817   0.429   4.016 -0.9951 -0.8694  2.0733
 9885TIP3   OH251145   0.202   5.266  12.833 -0.0409  0.4412  0.1149
 9885TIP3    H151146   0.206   5.251  12.928 -0.9554  0.0969  0.1182
 9885TIP3    H251147   0.121   5.316  12.821 -0.1592  0.1031 -0.5267
 9886TIP3   OH251148   5.524   6.132  12.524 -0.3013 -0.1880  0.1028
 9886TIP3    H151149   5.576   6.142  12.603 -0.9030  0.5858  0.4248
 9886TIP3    H251150   5.479   6.216  12.515 -0.5971 -0.4319 -0.8046
 9887TIP3   OH251151   2.852   2.227   4.727  0.9428 -0.5521 -0.2116
 9887TIP3    H151152   2.861   2.262   4.816  0.1835  1.6224 -0.9233
 9887TIP3    H251153   2.762   2.197   4.722  0.1662  1.7188 -0.9718
 9888TIP3   OH251154   3.455   0.172  12.948 -0.1346  0.0437 -0.5098
 9888TIP3    H151155   3.404   0.154  13.027  0.2304  0.4752 -0.1721
 9888TIP3    H251156   3.433   0.262  12.924 -0.1883 -0.0600 -0.8622
 9889TIP3   OH251157   3.315   5.539  16.432 -0.3293  0.1368 -0.1079
 9889TIP3    H151158   3.389   5.591  16.465 -0.9209  1.7973 -1.2545
 9889TIP3    H251159   3.351   5.494  16.355 -0.1249 -0.2173  0.1942
 9890TIP3   OH251160   3.516   4.779   1.142 -0.0196 -0.0354 -0.1423
 9890TIP3    H151161   3.532   4.701   1.089 -2.1871 -0.3156 -0.4664
 9890TIP3    H251162   3.583   4.841   1.114  0.2232 -0.9209 -1.6257
 9891TIP3   OH251163   2.756   5.629   4.979  0.0680 -0.3840 -0.1989
 9891TIP3    H151164   2.665   5.609   4.999  0.0831  0.5438  0.8992
 9891TIP3    H251165   2.778   5.701   5.038  1.3602 -0.2558 -0.8082
 9892TIP3   OH251166   3.481   3.920   0.196 -0.2609  0.6161 -0.5134
 9892TIP3    H151167   3.504   3.933   0.104  1.5147 -0.1783 -0.2155
 9892TIP3    H251168   3.392   3.885   0.193 -0.0239  0.0388 -1.9694
 9893TIP3   OH251169   5.305   5.559   0.289 -0.2668 -0.0444  0.3726
 9893TIP3    H151170   5.316   5.486   0.228 -0.2049 -0.0948  0.4436
 9893TIP3    H251171   5.249   5.621   0.243  0.9020  0.5536 -0.3168
 9894TIP3   OH251172   0.024   4.706  11.431  0.4244 -0.5424 -0.5223
 9894TIP3    H151173   0.113   4.672  11.419  0.3075 -0.9074 -0.3774
 9894TIP3    H251174   0.034   4.781  11.489  0.6483 -0.5271 -0.5792
 9895TIP3   OH251175   4.683   2.924   5.838  0.4575  0.6616  0.3488
 9895TIP3    H151176   4.603   2.887   5.875  0.5711  0.8908  0.8386
 9895TIP3    H251177   4.753   2.868   5.870  0.6023  1.1226  0.8717
 9896TIP3   OH251178   2.365   6.406  15.528  0.4283 -0.5808  0.2489
 9896TIP3    H151179   2.355   6.472  15.459  0.1470 -0.4458  0.4151
 9896TIP3    H251180   2.302   6.433  15.596 -0.7102 -1.7919 -0.2820
 9897TIP3   OH251181   5.462   3.463  15.984  0.0625  0.1551 -0.0133
 9897TIP3    H151182   5.504   3.503  15.907  1.6011 -2.0136 -0.4031
 9897TIP3    H251183   5.514   3.494  16.058 -0.9223  1.5961  0.1173
 9898TIP3   OH251184   2.832   5.979  11.807 -0.3256  0.0930 -0.2216
 9898TIP3    H151185   2.763   6.027  11.855 -0.6872 -1.0071  0.4040
 9898TIP3    H251186   2.789   5.949  11.727 -0.7692 -1.1034  0.4468
 9899TIP3   OH251187   4.774   0.537  15.202  0.7035 -0.4463 -0.2894
 9899TIP3    H151188   4.790   0.468  15.138  1.5571 -0.9521  0.4449
 9899TIP3    H251189   4.692   0.577  15.174  1.5524  0.0330 -2.2773
 9900TIP3   OH251190   4.726   2.527  12.139 -0.2032  0.0097 -0.4344
 9900TIP3    H151191   4.803   2.505  12.087  0.4046 -0.3977  0.6168
 9900TIP3    H251192   4.749   2.502  12.228 -2.0098 -1.2810 -0.2727
 9901TIP3   OH251193   0.306   4.910   3.341 -0.1319 -0.4444 -0.2747
 9901TIP3    H151194   0.343   4.823   3.327  0.2035 -0.1590 -1.2223
 9901TIP3    H251195   0.380   4.964   3.370 -0.5528 -0.7103  1.3918
 9902TIP3   OH251196   0.298   0.372   2.818 -0.7372 -0.0803  0.0939
 9902TIP3    H151197   0.214   0.331   2.838 -0.9910  0.5043  0.2538
 9902TIP3    H251198   0.291   0.397   2.726 -0.8768  0.2938  0.2064
 9903TIP3   OH251199   1.046   5.180  12.178 -0.1706  0.6330  0.2526
 9903TIP3    H151200   1.074   5.088  12.181 -1.7478  0.0487 -1.1483
 9903TIP3    H251201   0.980   5.187  12.246  0.2649  0.8514  0.6548
 9904TIP3   OH251202   4.003   2.552  11.041  0.0617 -0.8030  0.3629
 9904TIP3    H151203   3.912   2.542  11.070 -0.1534 -1.5372 -0.5338
 9904TIP3    H251204   4.040   2.464  11.050  0.3403 -0.7654 -0.4198
 9905TIP3   OH251205   3.026   6.353  12.703 -0.0296  0.1922 -0.3421
 9905TIP3    H151206   3.095   6.287  12.698  0.4885  0.5390  1.4180
 9905TIP3    H251207   3.018   6.372  12.796 -0.8591  1.8914 -0.7193
 9906TIP3   OH251208   6.882   5.466   2.312  0.0210 -0.2552  0.6791
 9906TIP3    H151209   6.923   5.513   2.384  0.2133 -0.7529  0.9017
 9906TIP3    H251210   6.804   5.426   2.350  0.1928 -0.6287  0.6541
 9907TIP3   OH251211   1.798   5.658  13.395 -0.2619 -0.1102  0.1011
 9907TIP3    H151212   1.855   5.702  13.458  1.6609 -1.7985 -0.3354
 9907TIP3    H251213   1.852   5.648  13.316 -1.8369 -0.0662 -1.0442
 9908TIP3   OH251214   0.827   4.076   4.937  0.1686 -0.3129  0.4471
 9908TIP3    H151215   0.881   4.132   4.993 -1.4884  0.6479  1.1507
 9908TIP3    H251216   0.815   3.996   4.988  1.1364 -0.6542  0.1609
 9909TIP3   OH251217   1.178   3.834   5.583  0.5751  0.2816 -0.2344
 9909TIP3    H151218   1.132   3.880   5.653 -0.1887  0.5675 -0.9028
 9909TIP3    H251219   1.184   3.743   5.614  1.3593  0.6469  0.7313
 9910TIP3   OH251220   3.006   1.366  15.359  0.5206 -0.2845  0.0334
 9910TIP3    H151221   3.016   1.424  15.284 -0.0290 -1.7276 -1.2220
 9910TIP3    H251222   2.967   1.420  15.427 -0.8532  0.5965 -1.4047
 9911TIP3   OH251223   1.830   2.466   2.947 -0.3038 -0.4454 -0.3537
 9911TIP3    H151224   1.740   2.485   2.975 -0.1622  1.7630 -1.2302
 9911TIP3    H251225   1.819   2.400   2.878 -1.1769 -0.7813  0.0811
 9912TIP3   OH251226   2.793   1.083  15.195  0.3964 -0.2939  0.2852
 9912TIP3    H151227   2.762   0.994  15.182  0.5988 -0.3194 -0.0381
 9912TIP3    H251228   2.737   1.137  15.139 -0.9778  0.0375  1.8692
 9913TIP3   OH251229   3.807   6.183   2.959  0.3046 -0.0612 -0.2785
 9913TIP3    H151230   3.886   6.149   2.919  0.0608 -3.6066  1.8745
 9913TIP3    H251231   3.833   6.209   3.048 -0.6391  0.2134 -0.0621
 9914TIP3   OH251232   1.537   4.364  13.649  0.4734  0.3537 -0.6413
 9914TIP3    H151233   1.555   4.329  13.737  0.4406  0.9093 -0.4102
 9914TIP3    H251234   1.574   4.299  13.590  0.6424  0.0513 -0.2127
 9915TIP3   OH251235   5.734   3.159   4.593  0.2905  0.1753 -0.0134
 9915TIP3    H151236   5.739   3.173   4.498 -1.0687  2.0323  0.1426
 9915TIP3    H251237   5.657   3.209   4.621  1.1278  0.3396  2.1982
 9916TIP3   OH251238   4.202   5.027   2.101 -0.0582  0.2888 -0.6524
 9916TIP3    H151239   4.226   5.108   2.057  1.1284  1.1894  1.4794
 9916TIP3    H251240   4.245   5.033   2.186 -0.8716 -2.0867 -0.0013
 9917TIP3   OH251241   3.999   1.712  14.704  0.3862  0.5082  0.0254
 9917TIP3    H151242   4.023   1.746  14.617  2.6254 -0.2173  0.2897
 9917TIP3    H251243   4.076   1.728  14.758 -0.4280 -0.3718  1.5191
 9918TIP3   OH251244   5.568   0.828   5.078 -0.0776 -0.3916  0.5554
 9918TIP3    H151245   5.483   0.865   5.053 -1.6564 -0.8808  4.3969
 9918TIP3    H251246   5.630   0.865   5.016 -2.6283  2.6701 -0.4468
 9919TIP3   OH251247   1.559   2.470  13.408 -0.1630 -0.1642 -0.0308
 9919TIP3    H151248   1.589   2.415  13.480  0.4882 -1.0628 -0.9584
 9919TIP3    H251249   1.609   2.551  13.418 -0.0694 -0.2896  0.5240
 9920TIP3   OH251250   4.834   2.752  14.232 -0.2898 -0.0983  0.6392
 9920TIP3    H151251   4.866   2.834  14.194  2.8283 -0.7596  1.5458
 9920TIP3    H251252   4.786   2.779  14.311  0.8270  0.8769  1.0087
 9921TIP3   OH251253   0.160   5.794  11.465  0.5482 -0.3957  0.1793
 9921TIP3    H151254   0.109   5.760  11.538  1.1749 -1.2156  0.2575
 9921TIP3    H251255   0.251   5.790  11.495  0.7610 -0.0694 -0.3856
 9922TIP3   OH251256   0.850   6.200   3.330 -0.0872 -0.0528  0.2604
 9922TIP3    H151257   0.830   6.182   3.422  0.7408  1.4473  0.7718
 9922TIP3    H251258   0.778   6.257   3.302 -0.5477 -0.8250 -0.1484
 9923TIP3   OH251259   6.010   2.321  16.244 -0.2090 -0.1721  0.7482
 9923TIP3    H151260   6.032   2.324  16.337  0.0728  0.0353  0.6724
 9923TIP3    H251261   5.924   2.280  16.242 -2.4296  3.8988  1.4852
 9924TIP3   OH251262   4.797   3.975  16.327  0.3761  0.5468  0.4074
 9924TIP3    H151263   4.753   3.939  16.404 -1.7655  1.8320 -0.1167
 9924TIP3    H251264   4.744   3.946  16.253  1.3574  0.8120 -0.4306
 9925TIP3   OH251265   3.223   6.210  13.580  0.2470 -0.9309  0.1276
 9925TIP3    H151266   3.211   6.137  13.642 -1.4791 -0.0505  0.8834
 9925TIP3    H251267   3.181   6.181  13.500 -0.8748 -0.6094  0.5810
 9926TIP3   OH251268   4.052   0.560   0.385 -0.2005  0.3399  0.3920
 9926TIP3    H151269   4.022   0.607   0.307 -0.3382  0.2646  0.3992
 9926TIP3    H251270   4.126   0.612   0.417 -0.3790  0.5760  0.4245
 9927TIP3   OH251271   1.626   3.164  10.982  0.0067 -0.0453  0.4448
 9927TIP3    H151272   1.660   3.235  10.927  0.0335 -1.4342 -1.3994
 9927TIP3    H251273   1.704   3.123  11.019  0.1049 -0.3378 -0.0778
 9928TIP3   OH251274   4.231   2.678  11.704 -0.6029 -0.1350 -0.0550
 9928TIP3    H151275   4.181   2.622  11.763 -0.8570  0.9576  0.8163
 9928TIP3    H251276   4.165   2.728  11.656 -0.3809  0.0070 -0.2162
 9929TIP3   OH251277   3.064   5.514  13.972 -0.6482  0.9449  0.4383
 9929TIP3    H151278   3.025   5.569  14.041  1.8774  0.7999  2.1345
 9929TIP3    H251279   3.019   5.430  13.980  0.1706  0.6301  2.6534
 9930TIP3   OH251280   0.876   4.345   4.026 -0.5977 -0.1309  0.0715
 9930TIP3    H151281   0.903   4.337   4.118 -1.1369  1.5788  0.4110
 9930TIP3    H251282   0.816   4.272   4.012  1.1419 -1.6909  0.4240
 9931TIP3   OH251283   5.041   4.064   3.275 -0.5960  0.6206 -0.5323
 9931TIP3    H151284   5.124   4.061   3.228 -0.8029  0.8086 -0.9143
 9931TIP3    H251285   4.980   4.103   3.213 -0.6692  1.6958  0.1852
 9932TIP3   OH251286   6.844   2.739   3.134 -0.2737  0.4866  0.2735
 9932TIP3    H151287   6.824   2.741   3.040 -2.0440  0.4089  0.6282
 9932TIP3    H251288   6.762   2.716   3.176  0.5923  0.1234  1.8404
 9933TIP3   OH251289   4.500   4.611  12.925 -0.4070  0.4942  0.0833
 9933TIP3    H151290   4.576   4.568  12.965 -1.0834  1.0586  2.0515
 9933TIP3    H251291   4.502   4.581  12.834  1.3781 -0.5881  0.4222
 9934TIP3   OH251292   2.055   6.692  13.839  0.2117 -0.5044 -0.9978
 9934TIP3    H151293   2.035   6.785  13.834 -0.8360 -0.7369 -1.5888
 9934TIP3    H251294   2.136   6.681  13.790  1.3907  0.3539  0.6736
 9935TIP3   OH251295   2.621   3.025   4.731  0.6087  0.2577 -0.1529
 9935TIP3    H151296   2.659   2.965   4.668  0.2127 -1.4615  1.1575
 9935TIP3    H251297   2.526   3.021   4.715  0.6596  1.5383 -0.8825
 9936TIP3   OH251298   1.024   4.024   4.109 -0.0598 -0.3543 -0.0870
 9936TIP3    H151299   1.023   3.929   4.122  0.0357 -0.3159  0.2230
 9936TIP3    H251300   0.936   4.052   4.135 -0.1543 -0.3822 -0.3762
 9937TIP3   OH251301   1.756   1.746   1.901 -0.4658 -0.2862  0.9262
 9937TIP3    H151302   1.824   1.788   1.848 -1.2680  0.1488  0.2173
 9937TIP3    H251303   1.675   1.763   1.854 -1.2946  0.6273  2.5919
 9938TIP3   OH251304   0.667   6.254  14.814 -0.3689  0.7258 -0.0308
 9938TIP3    H151305   0.673   6.190  14.886 -0.1728 -0.1287 -0.7829
 9938TIP3    H251306   0.722   6.327  14.842 -0.0962  0.2959  0.5875
 9939TIP3   OH251307   3.093   2.192  14.794  0.0778 -0.1967  0.3725
 9939TIP3    H151308   3.136   2.181  14.879  0.1445 -0.7095  0.2705
 9939TIP3    H251309   3.037   2.115  14.785 -0.6091  0.2918  0.3491
 9940TIP3   OH251310   2.325   2.100   2.742  0.0610 -0.1446 -0.7549
 9940TIP3    H151311   2.416   2.076   2.723  0.2463  1.0987 -1.6322
 9940TIP3    H251312   2.306   2.171   2.680 -0.6389  1.4664  1.1715
 9941TIP3   OH251313   3.746   1.501   0.436  0.6585 -0.2506 -0.3743
 9941TIP3    H151314   3.769   1.588   0.470  1.5099 -1.2973  1.9593
 9941TIP3    H251315   3.827   1.469   0.395  1.2620 -1.0197  1.3187
 9942TIP3   OH251316   4.431   0.046   4.358  0.2169 -0.8784 -0.0403
 9942TIP3    H151317   4.435   0.036   4.453  2.6186  0.0022  0.0310
 9942TIP3    H251318   4.499   0.110   4.338 -0.9641 -0.2328 -2.2723
 9943TIP3   OH251319   4.594   1.188   4.380  0.2400  0.9916 -0.2998
 9943TIP3    H151320   4.596   1.261   4.318 -0.4843  1.4109  0.1637
 9943TIP3    H251321   4.667   1.204   4.440 -0.8630  2.2080  0.7685
 9944TIP3   OH251322   2.814   6.889  12.253  0.5527 -0.1632 -0.6505
 9944TIP3    H151323   2.787   6.921  12.339 -0.7416 -2.1851 -0.2580
 9944TIP3    H251324   2.885   6.948  12.228  1.0998  0.3860  1.8646
 9945TIP3   OH251325   6.561   1.090  12.876  0.1167  0.0031 -0.5105
 9945TIP3    H151326   6.540   1.175  12.917  0.3144 -0.2926  0.2227
 9945TIP3    H251327   6.570   1.030  12.950  1.6549 -0.2905 -0.9069
 9946TIP3   OH251328   0.320   0.175  11.532  0.1295  0.4166 -0.1670
 9946TIP3    H151329   0.304   0.149  11.441 -0.5279 -1.4662  0.4437
 9946TIP3    H251330   0.243   0.228  11.555  0.4116  1.0971 -0.7606
 9947TIP3   OH251331   2.039   3.760  16.481  0.2822 -0.6652 -0.3364
 9947TIP3    H151332   2.091   3.712  16.417 -0.1082 -1.0511 -0.3699
 9947TIP3    H251333   1.950   3.756  16.448 -0.1329 -1.8904  0.7843
 9948TIP3   OH251334   0.049   6.500  11.970 -0.5207  0.3054 -0.1458
 9948TIP3    H151335  -0.028   6.510  11.914 -1.2867 -1.0416  0.6105
 9948TIP3    H251336   0.014   6.504  12.059  0.6545  2.2850  0.3043
 9949TIP3   OH251337   2.595   6.614   0.933 -0.2243 -0.1860 -0.0496
 9949TIP3    H151338   2.624   6.529   0.901  0.2398  0.3396 -1.0492
 9949TIP3    H251339   2.665   6.642   0.992 -0.6079 -0.7045  0.6660
 9950TIP3   OH251340   2.600   0.961   0.559 -0.1564 -0.3928  0.6838
 9950TIP3    H151341   2.547   1.019   0.613 -0.4244 -1.5191  1.6631
 9950TIP3    H251342   2.676   0.940   0.613  0.2295 -0.5071  0.1115
 9951TIP3   OH251343   1.867   4.669   1.427 -0.2433 -0.4376 -0.2740
 9951TIP3    H151344   1.776   4.647   1.408 -0.1669  0.6602 -2.1444
 9951TIP3    H251345   1.862   4.727   1.504 -1.2854  0.7315 -1.1743
 9952TIP3   OH251346   0.368   3.861  14.144  0.5001  0.3708  0.0631
 9952TIP3    H151347   0.415   3.819  14.216  0.2871 -0.2400 -0.1423
 9952TIP3    H251348   0.359   3.953  14.171  1.0348  0.2999  0.4940
 9953TIP3   OH251349   0.453   6.051   4.559 -0.7355  0.5410 -0.7085
 9953TIP3    H151350   0.536   6.095   4.545  1.0383 -2.0654  0.8052
 9953TIP3    H251351   0.445   6.043   4.654 -1.1130 -2.0033 -0.8951
 9954TIP3   OH251352   2.680   2.595  12.325 -0.4816  0.9147  0.5755
 9954TIP3    H151353   2.646   2.624  12.240 -0.7865 -0.7963  0.0845
 9954TIP3    H251354   2.772   2.577  12.309 -0.2365  1.7830  0.9394
 9955TIP3   OH251355   5.640   6.604   2.511  0.3825 -0.4203  0.3216
 9955TIP3    H151356   5.694   6.681   2.526  0.7226 -0.4513 -0.6318
 9955TIP3    H251357   5.686   6.533   2.555 -1.0576  0.2513  3.1248
 9956TIP3   OH251358   1.338   0.732   1.364  0.4931  0.2677  0.5427
 9956TIP3    H151359   1.414   0.704   1.313  0.0016  0.8310 -0.5250
 9956TIP3    H251360   1.327   0.824   1.342 -1.5304 -0.2233 -0.6793
 9957TIP3   OH251361   3.197   2.178  11.668  0.1788 -0.1215  0.0089
 9957TIP3    H151362   3.226   2.099  11.714  0.1972 -0.4871 -0.6164
 9957TIP3    H251363   3.119   2.150  11.620  0.7827 -0.0424 -1.0469
 9958TIP3   OH251364   5.081   3.845   3.934  0.1731  0.1721  0.3498
 9958TIP3    H151365   5.146   3.803   3.877 -1.4670 -0.2187 -1.3417
 9958TIP3    H251366   5.128   3.863   4.015  1.7058 -2.4929  0.1813
 9959TIP3   OH251367   0.585   4.800  14.349  0.3305  0.5683  0.1509
 9959TIP3    H151368   0.552   4.714  14.375  2.1295 -0.2067  0.0066
 9959TIP3    H251369   0.653   4.820  14.414 -1.0611  2.6032  1.0819
 9960TIP3   OH251370   4.115   2.236   5.935 -0.0034 -0.2051  0.4901
 9960TIP3    H151371   4.029   2.265   5.965  0.9818  1.1249  2.1983
 9960TIP3    H251372   4.139   2.166   5.994 -0.4511 -1.5599 -0.8602
 9961TIP3   OH251373   1.076   1.613   3.918  0.1991 -0.1544 -0.1632
 9961TIP3    H151374   1.000   1.670   3.933 -0.7912 -0.8383 -2.1490
 9961TIP3    H251375   1.038   1.525   3.909  1.1243 -0.4269 -1.8040
 9962TIP3   OH251376   4.737   5.898   5.282  0.3490  0.0125  0.2719
 9962TIP3    H151377   4.800   5.962   5.312 -0.3313 -0.2085  2.2862
 9962TIP3    H251378   4.656   5.948   5.269 -0.1721 -0.3709  1.8078
 9963TIP3   OH251379   2.287   6.657  13.689 -0.2170  0.0244 -0.2345
 9963TIP3    H151380   2.322   6.586  13.635  0.8352  0.8076 -0.6295
 9963TIP3    H251381   2.353   6.670  13.757 -1.1395 -0.3953  0.7529
 9964TIP3   OH251382   1.654   2.926  13.011 -0.1937 -0.3571  0.1815
 9964TIP3    H151383   1.744   2.939  13.040  0.0750 -0.4149 -0.6184
 9964TIP3    H251384   1.614   3.013  13.016 -0.1807 -0.3805  0.7990
 9965TIP3   OH251385   0.006   5.917  14.721 -0.6825  0.1716 -0.7861
 9965TIP3    H151386   0.089   5.959  14.697 -1.1022 -0.0711 -2.7647
 9965TIP3    H251387   0.030   5.858  14.793  0.1660  2.7014  1.1534
 9966TIP3   OH251388   6.762   2.117   1.526 -0.6554  0.1078 -0.2381
 9966TIP3    H151389   6.693   2.069   1.480  0.0435 -1.6409  0.4474
 9966TIP3    H251390   6.781   2.064   1.603 -0.4679  1.9911  1.0771
 9967TIP3   OH251391   6.069   0.764   0.207 -0.2927  0.0002  0.1303
 9967TIP3    H151392   5.975   0.781   0.195 -0.6002 -1.2391  0.6769
 9967TIP3    H251393   6.073   0.685   0.261  1.0499  1.4110  2.2772
 9968TIP3   OH251394   3.819   3.725   0.961 -0.4044  0.2628 -0.4912
 9968TIP3    H151395   3.804   3.801   1.017 -0.6463 -0.7873  0.9441
 9968TIP3    H251396   3.809   3.650   1.020 -1.3770 -0.9429 -2.1046
 9969TIP3   OH251397   0.642   1.626  14.176  0.1235 -0.6047 -0.1338
 9969TIP3    H151398   0.559   1.662  14.145  0.2456  0.6907  0.9529
 9969TIP3    H251399   0.618   1.570  14.250  0.1226 -1.0039 -0.4400
 9970TIP3   OH251400   1.927   4.351  10.555 -0.5193 -0.3055  0.1639
 9970TIP3    H151401   1.858   4.412  10.579 -1.9152 -1.3543 -0.9938
 9970TIP3    H251402   1.926   4.350  10.459  1.9970  0.5926  0.0524
 9971TIP3   OH251403   5.412   1.670  15.514 -0.5294  0.3721  0.1562
 9971TIP3    H151404   5.339   1.641  15.569 -1.0974 -1.0271 -1.2608
 9971TIP3    H251405   5.371   1.694  15.431  0.6351 -0.6797 -0.7557
 9972TIP3   OH251406   0.997   0.971  14.986 -0.5458  0.3391  0.2638
 9972TIP3    H151407   0.920   0.938  15.032 -1.7026 -0.3787 -2.0486
 9972TIP3    H251408   1.024   0.899  14.929 -0.0554  1.6252 -1.2085
 9973TIP3   OH251409   1.161   0.811  14.802  0.3538 -0.4481  0.0343
 9973TIP3    H151410   1.179   0.885  14.744 -0.1301  1.2965  1.9880
 9973TIP3    H251411   1.091   0.763  14.759 -0.3937  1.1149 -0.5783
 9974TIP3   OH251412   4.181   3.573  16.285  0.0333  0.6795 -0.1933
 9974TIP3    H151413   4.207   3.482  16.268 -0.9686  0.3197  0.1450
 9974TIP3    H251414   4.263   3.621  16.285  0.8506 -0.5780  1.9463
 9975TIP3   OH251415   0.722   5.901   1.715  0.1512  0.0916  0.6244
 9975TIP3    H151416   0.722   5.821   1.662 -4.0769  0.0803  0.2773
 9975TIP3    H251417   0.804   5.898   1.763  1.2341 -3.2314 -1.1157
 9976TIP3   OH251418   4.793   2.030  15.541 -0.2105  0.9532 -0.0796
 9976TIP3    H151419   4.873   2.078  15.520  1.1644 -0.2505  2.0801
 9976TIP3    H251420   4.764   1.994  15.457  1.4387  1.5090 -0.9205
 9977TIP3   OH251421   5.054   1.649   4.236 -0.3097  0.0722  0.0447
 9977TIP3    H151422   4.974   1.692   4.205  0.9154  0.4061 -2.9440
 9977TIP3    H251423   5.125   1.702   4.202  1.2231 -2.2609 -0.6241
 9978TIP3   OH251424   1.627   0.831   1.422  0.4723 -0.3017  0.0387
 9978TIP3    H151425   1.661   0.882   1.495 -1.3254  0.5282  0.3441
 9978TIP3    H251426   1.644   0.884   1.345  2.1160 -1.0542 -0.1814
 9979TIP3   OH251427   6.838   6.641   0.314 -0.0465 -0.2804 -0.0315
 9979TIP3    H151428   6.757   6.658   0.363  0.7822 -0.5196  1.4968
 9979TIP3    H251429   6.884   6.724   0.313  0.3706 -0.4985  0.4422
 9980TIP3   OH251430   5.081   5.694   3.355 -0.3497 -0.3225  0.0994
 9980TIP3    H151431   5.080   5.785   3.328  2.6562 -0.8767 -2.3817
 9980TIP3    H251432   4.994   5.661   3.333 -1.5209  1.8758  1.1487
 9981TIP3   OH251433   1.239   6.000  14.128 -0.1486 -0.2957  0.1815
 9981TIP3    H151434   1.305   6.026  14.192 -0.3877  3.0863 -0.7784
 9981TIP3    H251435   1.277   6.023  14.044 -1.4505 -0.9442 -0.6145
 9982TIP3   OH251436   6.590   2.757  12.217  0.0286 -0.3076 -0.7503
 9982TIP3    H151437   6.588   2.694  12.289  0.3618  0.8729  0.3195
 9982TIP3    H251438   6.578   2.842  12.259 -0.3868  0.3610 -2.1612
 9983TIP3   OH251439   1.271   3.161   0.628  0.0309 -0.1734 -0.4117
 9983TIP3    H151440   1.220   3.213   0.689  0.3208  0.3264 -0.5927
 9983TIP3    H251441   1.361   3.166   0.660  0.2066  0.1952 -0.9438
 9984TIP3   OH251442   5.175   2.277   2.613 -0.2431  0.2006  0.3104
 9984TIP3    H151443   5.243   2.305   2.674  1.0885  0.2568 -1.1430
 9984TIP3    H251444   5.172   2.181   2.624  1.5721 -0.0482 -1.0763
 9985TIP3   OH251445   3.885   3.196   6.201 -0.0655  1.0182  0.2117
 9985TIP3    H151446   3.874   3.203   6.295 -0.1045  0.5806  0.2421
 9985TIP3    H251447   3.796   3.205   6.165 -0.2113  0.0348  0.2949
 9986TIP3   OH251448   3.343   5.093   1.618  0.1063  0.2546  0.8825
 9986TIP3    H151449   3.418   5.112   1.561 -0.9669 -0.8826 -1.0558
 9986TIP3    H251450   3.320   5.002   1.596 -1.6106  0.4577  1.6901
 9987TIP3   OH251451   0.400   5.421  12.195 -0.5510 -0.2767  0.3934
 9987TIP3    H151452   0.343   5.372  12.255 -0.5484  0.2480  0.8303
 9987TIP3    H251453   0.342   5.455  12.128 -0.4677 -1.4122 -0.2844
 9988TIP3   OH251454   1.358   1.351  12.020 -0.3204 -0.4214  0.0258
 9988TIP3    H151455   1.305   1.415  12.070 -0.3401 -0.1782 -0.3023
 9988TIP3    H251456   1.428   1.326  12.080  0.4778  0.9372 -0.3012
 9989TIP3   OH251457   2.141   2.796  11.961  0.0523  0.3684  0.6931
 9989TIP3    H151458   2.049   2.771  11.959 -0.0537  0.7706  0.1171
 9989TIP3    H251459   2.176   2.768  11.876  0.0516  1.6693  0.2406
 9990TIP3   OH251460   4.104   3.795   1.907  0.2310 -0.2067  0.3709
 9990TIP3    H151461   4.052   3.731   1.858 -0.6252  1.1908 -0.6357
 9990TIP3    H251462   4.125   3.751   1.990  0.0407 -1.9167 -0.4353
 9991TIP3   OH251463   6.765   0.558  12.164 -0.3591  0.7436 -0.6303
 9991TIP3    H151464   6.706   0.559  12.240 -1.2563  0.7572 -1.3085
 9991TIP3    H251465   6.778   0.650  12.143 -0.7422  0.7248 -0.9623
 9992TIP3   OH251466   6.542   2.395   3.806 -0.0255 -0.0907  0.1703
 9992TIP3    H151467   6.512   2.304   3.807  0.1600 -0.2674 -2.6769
 9992TIP3    H251468   6.474   2.443   3.854 -1.0190 -1.5030  0.2301
 9993TIP3   OH251469   0.915   0.817   4.231 -0.0014  0.6393  0.3041
 9993TIP3    H151470   0.976   0.881   4.267 -0.8188  0.2224  2.6259
 9993TIP3    H251471   0.883   0.769   4.307 -1.9555 -0.2746 -0.9983
 9994TIP3   OH251472   6.491   1.227   2.307 -0.7616 -0.6644 -0.1954
 9994TIP3    H151473   6.474   1.246   2.399  0.5273 -2.0493  0.3826
 9994TIP3    H251474   6.564   1.165   2.308 -2.2571 -2.6277 -2.0188
 9995TIP3   OH251475   5.695   3.953   0.824 -0.0177  0.0814 -0.0883
 9995TIP3    H151476   5.607   3.935   0.789 -0.0585  0.6479 -0.2937
 9995TIP3    H251477   5.691   3.924   0.915  0.0734 -1.3862 -0.5276
 9996TIP3   OH251478   2.178   4.912   2.503 -0.1782  0.2930 -0.0749
 9996TIP3    H151479   2.268   4.886   2.521 -0.8363 -0.8659  1.9256
 9996TIP3    H251480   2.181   5.008   2.504  1.2224  0.2921 -1.2902
 9997TIP3   OH251481   1.341   2.390   1.436  0.3154 -0.5793  0.4259
 9997TIP3    H151482   1.354   2.446   1.360  2.9803 -0.8305  0.5725
 9997TIP3    H251483   1.246   2.383   1.446 -0.0933  1.1278 -1.6041
 9998TIP3   OH251484   0.738   0.978   1.761  0.7066 -0.2998 -0.2952
 9998TIP3    H151485   0.795   0.926   1.704  1.2099 -1.6468  1.3824
 9998TIP3    H251486   0.737   0.931   1.844 -1.5456  0.5857  0.2471
 9999TIP3   OH251487   0.454   2.041  15.376 -0.6947 -0.1381  0.6743
 9999TIP3    H151488   0.487   2.018  15.289 -0.0726 -2.5181  1.4660
 9999TIP3    H251489   0.361   2.017  15.373 -0.4355 -1.2349  0.9596
10000TIP3   OH251490   6.888   3.241  16.835  0.0455 -0.1016 -0.1428
10000TIP3    H151491   6.825   3.227  16.906 -1.2950  1.1032 -1.0257
10000TIP3    H251492   6.841   3.215  16.756  1.1420 -0.4194 -0.7136
10001TIP3   OH251493   4.345   5.838  16.162  0.5688  0.2616 -0.1964
10001TIP3    H151494   4.415   5.900  16.139 -0.7637  2.6084  1.6023
10001TIP3    H251495   4.272   5.862  16.105  0.1757  0.0630  0.2175
10002TIP3   OH251496   4.703   0.218  15.846  0.6737  0.3062 -0.0652
10002TIP3    H151497   4.625   0.234  15.899  0.3759 -1.1005 -0.0641
10002TIP3    H251498   4.751   0.150  15.892  0.9872 -0.1314 -1.0101
10003TIP3   OH251499   2.049   3.669  16.754 -0.2119 -0.6365 -0.5715
10003TIP3    H151500   1.992   3.700  16.825  0.6809 -1.6542  0.6309
10003TIP3    H251501   2.028   3.726  16.680 -2.0752 -0.3532  0.1194
10004TIP3   OH251502   0.295   4.826  13.274 -0.3447  0.1235 -0.5014
10004TIP3    H151503   0.345   4.908  13.272 -1.2191  0.6970 -0.1042
10004TIP3    H251504   0.203   4.855  13.274 -0.7021 -0.9091 -2.0143
10005TIP3   OH251505   0.326   4.200  15.317  0.0506 -0.1484 -0.1579
10005TIP3    H151506   0.352   4.218  15.407 -0.0208  1.9517 -0.5049
10005TIP3    H251507   0.403   4.224  15.265 -0.2042 -0.5226 -0.7173
10006TIP3   OH251508   3.246   4.219  12.747  0.1481  0.1470  0.4988
10006TIP3    H151509   3.337   4.247  12.758 -0.1021  0.1202  3.5169
10006TIP3    H251510   3.230   4.225  12.653  3.2187  0.2321 -0.1160
10007TIP3   OH251511   3.644   1.207   2.853  0.4725 -0.2476  0.0357
10007TIP3    H151512   3.704   1.164   2.791  1.3048  1.7542 -0.6246
10007TIP3    H251513   3.568   1.230   2.800 -1.0452 -2.8796  0.8948
10008TIP3   OH251514   4.326   3.997  11.692  0.7815 -0.2129  0.2941
10008TIP3    H151515   4.373   4.042  11.762  1.6366 -0.8448  0.1430
10008TIP3    H251516   4.370   4.025  11.612 -0.4212  0.7956 -0.0510
10009TIP3   OH251517   4.831   3.677  12.164  0.2117 -0.2451 -0.0403
10009TIP3    H151518   4.783   3.607  12.120 -1.8406  1.4122 -0.6106
10009TIP3    H251519   4.770   3.710  12.230  1.5160  0.3440  0.9221
10010TIP3   OH251520   5.700   4.051  10.745  0.5688  0.0524 -0.2248
10010TIP3    H151521   5.768   4.025  10.807  0.8900  2.2206  0.4464
10010TIP3    H251522   5.746   4.107  10.682 -0.4633  1.0920 -0.0816
10011TIP3   OH251523   0.657   1.334   4.376 -0.3792 -0.7884  0.6393
10011TIP3    H151524   0.625   1.245   4.359  0.0017 -1.2111  2.0361
10011TIP3    H251525   0.623   1.356   4.462  0.3695  0.0316  0.7405
10012TIP3   OH251526   2.202   0.722  16.819 -0.0145  0.0903 -0.1913
10012TIP3    H151527   2.179   0.649  16.761  0.3022 -0.5564  0.4754
10012TIP3    H251528   2.209   0.798  16.761 -3.4872  0.3101 -0.5222
10013TIP3   OH251529   0.146   6.071   2.702  0.0084  0.4274  0.0137
10013TIP3    H151530   0.091   5.992   2.703  0.3622  0.1782  0.2373
10013TIP3    H251531   0.231   6.040   2.671  0.2618  0.6491  0.4901
10014TIP3   OH251532   6.869   5.916   5.453 -0.5797  0.0283  0.4474
10014TIP3    H151533   6.818   5.950   5.526 -1.0615 -1.1493  0.6806
10014TIP3    H251534   6.887   5.992   5.398 -0.7317  0.8227  1.4748
10015TIP3   OH251535   2.244   6.868  14.659  0.2883 -0.1486  0.6636
10015TIP3    H151536   2.186   6.907  14.725 -0.6485  0.5384 -0.5217
10015TIP3    H251537   2.212   6.778  14.650  0.6464 -0.3565  1.3774
10016TIP3   OH251538   2.986   4.174   3.600 -0.2601 -0.5093 -0.1760
10016TIP3    H151539   2.922   4.136   3.540 -0.6715 -0.3715  0.1691
10016TIP3    H251540   2.937   4.242   3.647  0.8507  1.6367 -1.9319
10017TIP3   OH251541   1.333   0.004  13.337  0.1609 -0.3685  0.2512
10017TIP3    H151542   1.289  -0.068  13.381 -0.6827 -0.5836 -0.8939
10017TIP3    H251543   1.329   0.077  13.399 -1.5570 -0.4699  0.3156
10018TIP3   OH251544   6.402   0.433   4.562 -0.2995  0.1595  0.1240
10018TIP3    H151545   6.352   0.512   4.581  1.0465  1.1087 -0.1405
10018TIP3    H251546   6.423   0.396   4.649 -0.9567  0.0602  0.2443
10019TIP3   OH251547   3.030   1.756  11.240 -0.6938 -0.3786 -0.2630
10019TIP3    H151548   3.036   1.820  11.312 -3.2701  0.2228 -0.5024
10019TIP3    H251549   2.987   1.680  11.280 -0.0361 -0.9490 -0.6292
10020TIP3   OH251550   5.722   6.770   4.290  0.3294 -0.1004  0.3514
10020TIP3    H151551   5.762   6.800   4.372  0.0936 -1.2533  0.9118
10020TIP3    H251552   5.628   6.768   4.310  0.3979 -2.0074  0.6287
10021TIP3   OH251553   4.680   0.998  11.929  0.5616 -0.1927  0.2424
10021TIP3    H151554   4.633   0.930  11.978 -1.4349  0.7965 -0.2014
10021TIP3    H251555   4.694   0.959  11.842 -0.2894 -0.1706  0.0880
10022TIP3   OH251556   4.977   2.704  16.166 -0.2195 -0.0515  0.9069
10022TIP3    H151557   4.885   2.696  16.141 -0.8022  1.2724  2.4263
10022TIP3    H251558   5.022   2.638  16.114 -2.1176 -1.1595  0.5696
10023TIP3   OH251559   1.776   0.510   1.941 -0.2397 -0.3678  0.3457
10023TIP3    H151560   1.789   0.418   1.917 -1.2347 -0.7218  1.1045
10023TIP3    H251561   1.723   0.546   1.870  0.4731 -0.2656 -0.1472
10024TIP3   OH251562   6.341   0.482   0.496 -0.0304  0.0136  0.0560
10024TIP3    H151563   6.398   0.406   0.489  0.1881  0.1772  0.0189
10024TIP3    H251564   6.382   0.548   0.439  0.4999  0.5952  1.0849
10025TIP3   OH251565   4.397   1.711  14.008  0.1909 -0.0478  0.1268
10025TIP3    H151566   4.392   1.807  14.005 -0.4218 -0.0811 -0.1504
10025TIP3    H251567   4.396   1.690  14.101 -2.3799  0.1232  0.2228
10026TIP3   OH251568   4.906   6.730  14.874  0.3769  0.4679  0.2362
10026TIP3    H151569   4.982   6.729  14.933 -0.7189 -0.5253  1.6902
10026TIP3    H251570   4.851   6.658  14.904 -1.3651  1.4224 -0.5289
10027TIP3   OH251571   1.272   4.376   6.002 -0.0239 -0.0368  0.5924
10027TIP3    H151572   1.197   4.431   6.024 -0.0237 -0.5089  1.8248
10027TIP3    H251573   1.331   4.434   5.954 -0.4255  0.7910  1.0820
10028TIP3   OH251574   1.353   3.225   6.040  0.2311 -0.1033 -0.2348
10028TIP3    H151575   1.416   3.156   6.060 -0.3566 -0.5143  0.2662
10028TIP3    H251576   1.392   3.274   5.968 -0.0075 -1.8932 -1.6510
10029TIP3   OH251577   6.749   4.505   5.988 -0.3758 -0.0265  0.1137
10029TIP3    H151578   6.802   4.445   5.935  0.6155  0.4107  0.5764
10029TIP3    H251579   6.731   4.456   6.069  1.3855  0.6638  0.9649
10030TIP3   OH251580   3.718   2.455  10.845 -0.0862 -0.1537  0.0863
10030TIP3    H151581   3.724   2.431  10.938 -0.0167  1.5399  0.5642
10030TIP3    H251582   3.730   2.550  10.845 -2.9453  0.2976 -1.3559
10031TIP3   OH251583   5.654   1.156   3.798  0.1582  0.0913 -0.1001
10031TIP3    H151584   5.652   1.072   3.844 -0.2788  0.4200  0.5011
10031TIP3    H251585   5.649   1.133   3.705 -0.9382 -0.5222  0.0979
10032TIP3   OH251586   0.388   2.268   5.207 -0.1344  0.6102  1.0080
10032TIP3    H151587   0.472   2.251   5.250  1.1372 -0.5246 -1.6634
10032TIP3    H251588   0.395   2.359   5.177  0.5810  0.2575  0.0333
10033TIP3   OH251589   4.583   0.278  14.152  0.2600  0.1475 -0.4383
10033TIP3    H151590   4.491   0.249  14.149  0.2986  0.0666 -0.9861
10033TIP3    H251591   4.578   0.372  14.133  0.2852  0.1511 -0.4260
10034TIP3   OH251592   5.026   0.217   0.020  0.7174 -0.1559 -0.3543
10034TIP3    H151593   5.030   0.144  -0.042  0.3268 -0.7793  0.3393
10034TIP3    H251594   4.933   0.237   0.028  0.7317 -0.3101  0.2845
10035TIP3   OH251595   1.840   5.282   4.922  1.0345  0.1298  0.3539
10035TIP3    H151596   1.812   5.364   4.881  0.4745 -0.2840 -0.1001
10035TIP3    H251597   1.930   5.298   4.949  1.1927  0.6234 -0.4539
10036TIP3   OH251598   6.762   1.810   1.715 -0.4845  0.0401  1.1752
10036TIP3    H151599   6.821   1.876   1.749 -1.3036  0.8267  1.0929
10036TIP3    H251600   6.809   1.772   1.640  0.0072  0.4886  1.2524
10037TIP3   OH251601   2.166   0.219  16.099 -0.1424 -0.4260  0.0734
10037TIP3    H151602   2.245   0.257  16.061 -1.1013  1.1574 -0.4645
10037TIP3    H251603   2.193   0.134  16.133  1.4988 -0.4610 -1.2092
10038TIP3   OH251604   3.407   5.721  13.594 -0.5847  1.0321  0.0269
10038TIP3    H151605   3.421   5.669  13.515  1.1079 -0.3803  1.1788
10038TIP3    H251606   3.341   5.671  13.643  0.0990  0.6384  0.5552
10039TIP3   OH251607   2.759   1.467  14.250 -0.0802 -0.6192 -0.4345
10039TIP3    H151608   2.800   1.420  14.322 -0.9057 -0.9201 -0.1567
10039TIP3    H251609   2.665   1.463  14.268 -0.3046 -0.7698 -1.5562
10040TIP3   OH251610   2.689   4.199   0.816  0.5457  0.3644  0.2981
10040TIP3    H151611   2.651   4.265   0.758  2.0147  1.3586  0.4011
10040TIP3    H251612   2.614   4.156   0.857 -0.6522  4.7269  3.4060
10041TIP3   OH251613   5.252   6.578  14.618  0.5281 -0.2361  0.4884
10041TIP3    H151614   5.238   6.516  14.690  1.2161 -0.6054  0.3197
10041TIP3    H251615   5.166   6.618  14.603 -0.3780 -2.3983 -0.5318
10042TIP3   OH251616   4.817   6.728  11.982  0.2737  0.5560  0.3994
10042TIP3    H151617   4.866   6.775  11.914 -1.4315  0.0999 -1.2322
10042TIP3    H251618   4.758   6.794  12.018 -1.1105  0.1093 -0.9015
10043TIP3   OH251619   3.773   2.729   3.619 -0.3590  0.0256  0.2610
10043TIP3    H151620   3.865   2.742   3.600 -0.0191 -1.5432  0.6538
10043TIP3    H251621   3.771   2.693   3.708 -1.1491 -1.8875 -0.4705
10044TIP3   OH251622   1.552   5.932   1.468 -0.1048 -0.0011 -0.4222
10044TIP3    H151623   1.477   5.945   1.526  0.9668  2.5758  0.5124
10044TIP3    H251624   1.628   5.945   1.523  0.9750  1.1094 -2.0702
10045TIP3   OH251625   5.223   0.338  13.994 -0.1451  0.8173 -0.6361
10045TIP3    H151626   5.288   0.313  13.929 -1.2086  0.1453 -1.4828
10045TIP3    H251627   5.139   0.323  13.951 -0.9735 -1.6259  1.5419
10046TIP3   OH251628   3.652   3.912  11.829  0.5166 -0.3772  0.3586
10046TIP3    H151629   3.563   3.936  11.855  0.4988 -0.1275  0.0790
10046TIP3    H251630   3.705   3.926  11.908  0.4566  0.3393  0.2806
10047TIP3   OH251631   0.387   3.640  10.557 -0.3844 -0.1811 -0.5302
10047TIP3    H151632   0.330   3.586  10.501 -2.4515  0.6580  0.6527
10047TIP3    H251633   0.353   3.729  10.545 -0.9134  0.0177  2.0423
10048TIP3   OH251634   3.712   5.153  16.085 -0.4244 -0.3136  0.9437
10048TIP3    H151635   3.624   5.161  16.123 -0.0527  0.2906  1.7068
10048TIP3    H251636   3.703   5.192  15.997 -0.5406  1.3471  1.6488
10049TIP3   OH251637   5.083   5.435  14.173 -0.4893  0.7274 -0.1665
10049TIP3    H151638   5.170   5.395  14.179 -0.6492  0.2973 -0.5562
10049TIP3    H251639   5.060   5.458  14.262 -0.7861 -0.9402  0.2277
10050TIP3   OH251640   2.747   1.293   1.120  0.1642  0.0837 -0.6474
10050TIP3    H151641   2.754   1.235   1.044  0.0857  0.3432 -0.8520
10050TIP3    H251642   2.781   1.377   1.089 -1.1444  0.5717 -0.7996
10051TIP3   OH251643   1.560   4.566   2.810  0.1004 -0.0558 -0.1291
10051TIP3    H151644   1.598   4.483   2.781 -3.4899 -1.6789 -0.6524
10051TIP3    H251645   1.556   4.620   2.731  0.8790  0.0087 -0.1357
10052TIP3   OH251646   1.091   4.214  15.401  0.4054 -0.3768  0.3472
10052TIP3    H151647   1.085   4.119  15.396  1.1200 -0.4434  0.6170
10052TIP3    H251648   1.183   4.234  15.383  0.8863  0.0559  2.9227
10053TIP3   OH251649   6.551   1.397   3.567 -0.0123  0.2056 -0.2630
10053TIP3    H151650   6.514   1.482   3.592  2.3093  1.5194 -1.0401
10053TIP3    H251651   6.510   1.378   3.483  0.4966  1.2984 -0.7849
10054TIP3   OH251652   4.121   0.339  12.813 -0.3243 -0.1336  1.1974
10054TIP3    H151653   4.174   0.335  12.892 -2.3183  1.5086  2.7396
10054TIP3    H251654   4.118   0.433  12.792 -1.2894 -0.3603  0.2501
10055TIP3   OH251655   3.706   1.812  14.274  0.1492  0.1369 -0.0868
10055TIP3    H151656   3.705   1.736  14.216  1.3494 -0.9101  1.2056
10055TIP3    H251657   3.619   1.851  14.263 -0.0257 -0.6193 -1.7667
10056TIP3   OH251658   2.496   4.343  11.452  0.0731  0.0108 -0.4045
10056TIP3    H151659   2.492   4.434  11.423 -0.0608  0.4559  0.9426
10056TIP3    H251660   2.533   4.295  11.377  0.5397  1.2272 -0.9766
10057TIP3   OH251661   2.037   6.532  16.402 -0.4171 -0.7830 -0.4949
10057TIP3    H151662   1.973   6.597  16.430 -0.5438 -0.9079 -0.4967
10057TIP3    H251663   2.089   6.513  16.480 -0.4864 -0.8038 -0.4544
10058TIP3   OH251664   0.375   6.336   4.125  0.5223 -0.7811 -0.1054
10058TIP3    H151665   0.450   6.343   4.066 -0.0751 -0.5364 -0.8488
10058TIP3    H251666   0.313   6.280   4.078 -0.4552  0.3732 -0.2467
10059TIP3   OH251667   3.296   6.867  16.662 -0.4055  0.1818 -0.0232
10059TIP3    H151668   3.328   6.780  16.684  0.9142  0.4629 -0.6854
10059TIP3    H251669   3.209   6.852  16.625 -0.9224 -0.6594  1.4646
10060TIP3   OH251670   3.004   2.246   0.118  0.3022 -0.4778 -0.0008
10060TIP3    H151671   3.097   2.235   0.098  0.6996 -1.4105  2.1053
10060TIP3    H251672   2.959   2.202   0.045  1.4590  0.4225 -1.3076
10061TIP3   OH251673   3.839   2.736  14.942 -0.0064  0.3818 -0.6266
10061TIP3    H151674   3.869   2.711  15.029 -1.1080  0.3103 -0.2463
10061TIP3    H251675   3.919   2.756  14.893  0.6428  0.0718  0.2895
10062TIP3   OH251676   2.798   0.404  12.218 -0.1149  0.4129 -0.0767
10062TIP3    H151677   2.771   0.420  12.308 -1.6450  1.8264 -0.7495
10062TIP3    H251678   2.727   0.353  12.180 -0.6203  1.8057 -1.0987
10063TIP3   OH251679   4.640   3.306  11.215 -0.1767 -0.5597  0.1893
10063TIP3    H151680   4.602   3.339  11.133 -2.9738  1.0976  1.9825
10063TIP3    H251681   4.723   3.352  11.222 -0.9418  1.0677 -0.6754
10064TIP3   OH251682   6.815   0.544  16.562 -0.3869  0.0322 -0.1846
10064TIP3    H151683   6.882   0.568  16.626 -0.8560 -1.4844  0.9661
10064TIP3    H251684   6.766   0.474  16.605 -2.5808  0.9383 -1.0690
10065TIP3   OH251685   4.204   4.443  12.894 -0.2685 -0.0054 -0.3336
10065TIP3    H151686   4.155   4.443  12.811  0.8280 -1.1064 -1.0057
10065TIP3    H251687   4.230   4.352  12.907 -0.6307  0.1111  1.3724
10066TIP3   OH251688   2.143   4.057  13.006 -0.5973 -0.6178 -0.3442
10066TIP3    H151689   2.138   4.079  12.913  1.5023 -1.2935 -0.6564
10066TIP3    H251690   2.097   3.973  13.013 -0.6919 -0.6045 -0.7802
10067TIP3   OH251691   4.082   0.834  15.443  1.1961  0.0621  0.3419
10067TIP3    H151692   4.046   0.839  15.354  2.3525 -2.6581 -0.3924
10067TIP3    H251693   4.087   0.925  15.472  0.1230  0.9932 -2.1014
10068TIP3   OH251694   2.296   0.356   3.195  0.1242 -0.6519  0.4204
10068TIP3    H151695   2.223   0.409   3.228  0.1842 -1.3919  1.8118
10068TIP3    H251696   2.264   0.319   3.113  0.1692  1.6948 -0.7391
10069TIP3   OH251697   1.518   2.818   3.459 -0.1145  0.7885  0.3738
10069TIP3    H151698   1.427   2.806   3.432 -0.0657 -0.5105  0.6919
10069TIP3    H251699   1.566   2.753   3.407  0.1564 -0.8514  2.5599
10070TIP3   OH251700   6.373   2.941  16.096  0.3401 -0.2185  0.2235
10070TIP3    H151701   6.450   2.982  16.055  1.9351 -1.5620  1.6966
10070TIP3    H251702   6.318   3.015  16.122  1.6842  0.8666  0.1525
10071TIP3   OH251703   3.266   2.428   1.493 -0.4172  0.1208  0.6610
10071TIP3    H151704   3.232   2.370   1.562 -0.7305 -0.4592  0.0286
10071TIP3    H251705   3.190   2.481   1.468 -0.3658  0.1591  0.5879
10072TIP3   OH251706   4.329   0.206   0.831 -0.3373 -0.2918  0.8523
10072TIP3    H151707   4.308   0.295   0.802 -1.1040  0.4490  3.3685
10072TIP3    H251708   4.402   0.179   0.776 -1.2342  1.1688 -1.1974
10073TIP3   OH251709   0.305   1.188  10.977  0.1263  0.1268 -0.7968
10073TIP3    H151710   0.389   1.191  10.930  0.2915  2.7265 -0.4716
10073TIP3    H251711   0.239   1.199  10.909  0.0990 -0.5302 -0.8875
10074TIP3   OH251712   2.546   4.303  13.882  0.5110 -0.3238 -0.4385
10074TIP3    H151713   2.503   4.274  13.962  1.5193 -2.2696 -0.5371
10074TIP3    H251714   2.556   4.223  13.830  1.2160  0.6402 -1.8559
10075TIP3   OH251715   4.816   2.758   4.454  0.5322 -0.1784 -0.7238
10075TIP3    H151716   4.757   2.702   4.505 -0.1542  1.7087  0.6489
10075TIP3    H251717   4.762   2.790   4.382  0.9920 -1.3869 -1.6498
10076TIP3   OH251718   1.150   4.438   2.807 -0.0301  0.6071 -0.1450
10076TIP3    H151719   1.100   4.357   2.799  0.7774  0.0568  0.2465
10076TIP3    H251720   1.196   4.445   2.723 -0.6673  1.0629 -0.4676
10077TIP3   OH251721   2.756   5.777   2.051  0.5269 -0.5352 -0.0701
10077TIP3    H151722   2.702   5.849   2.019 -0.4732 -1.5530 -0.7508
10077TIP3    H251723   2.833   5.777   1.993  2.0330  1.7450  1.7085
10078TIP3   OH251724   6.129   6.419   3.708  0.4728  0.3237 -0.6739
10078TIP3    H151725   6.089   6.500   3.676  1.1913  1.1812  0.5458
10078TIP3    H251726   6.223   6.431   3.691  1.0570  1.3223  2.6513
10079TIP3   OH251727   4.901   4.549   1.389  0.1458 -0.0629 -0.0021
10079TIP3    H151728   4.902   4.560   1.484 -0.4099  0.6015 -0.0640
10079TIP3    H251729   4.851   4.624   1.357 -0.2830 -0.6588 -0.7635
10080TIP3   OH251730   3.212   6.821   5.170 -0.5968  0.2479  0.4231
10080TIP3    H151731   3.166   6.777   5.242 -1.6052  2.7303  1.3947
10080TIP3    H251732   3.186   6.773   5.092 -1.3233 -1.1015  1.4579
10081TIP3   OH251733   1.896   6.899   2.348 -0.1449 -0.3243  0.0519
10081TIP3    H151734   1.942   6.982   2.358 -0.2202  0.0246 -2.0029
10081TIP3    H251735   1.814   6.910   2.395  0.4001  0.2905  0.8728
10082TIP3   OH251736   1.076   5.030  16.304  0.5670 -0.3684 -0.3723
10082TIP3    H151737   1.061   5.114  16.349  0.7464 -0.2802 -0.4784
10082TIP3    H251738   1.010   4.971  16.342  2.4477 -1.0847  2.0621
10083TIP3   OH251739   1.089   1.122   0.171 -0.1926 -0.1847 -0.2041
10083TIP3    H151740   1.079   1.058   0.101 -2.6770  1.2919 -1.3569
10083TIP3    H251741   1.144   1.190   0.134 -0.9551  0.2725 -0.5359
10084TIP3   OH251742   4.543   3.025  16.743 -0.6397 -0.5138  0.0347
10084TIP3    H151743   4.500   3.062  16.821  0.5415 -2.1105  1.5254
10084TIP3    H251744   4.474   2.972  16.702 -0.9584 -0.6010  0.6598
10085TIP3   OH251745   3.187   0.553  16.123 -0.0221 -0.4716 -0.6759
10085TIP3    H151746   3.214   0.569  16.032  0.6551 -0.4113 -0.4735
10085TIP3    H251747   3.141   0.469  16.120 -1.0328  0.0905 -1.2631
10086TIP3   OH251748   3.974   4.275  16.361 -0.0499 -0.2583  0.1871
10086TIP3    H151749   3.998   4.278  16.454 -1.3849 -2.4215  0.6664
10086TIP3    H251750   3.892   4.324  16.356 -0.2346 -0.5604  0.2462
10087TIP3   OH251751   5.406   2.714  14.485  0.5528 -0.2549  1.0905
10087TIP3    H151752   5.350   2.704  14.562 -0.0472 -0.0940  0.6858
10087TIP3    H251753   5.448   2.628  14.474  0.4345 -0.3556  1.4373
10088TIP3   OH251754   5.923   4.157   1.091 -0.1108 -0.3249  0.3107
10088TIP3    H151755   6.005   4.137   1.136 -0.8413 -0.1449  1.7791
10088TIP3    H251756   5.857   4.106   1.138 -0.9655  0.1983 -0.2963
10089TIP3   OH251757   3.352   1.481  16.359  0.1371 -0.8817  0.2199
10089TIP3    H151758   3.394   1.556  16.401 -2.5529  0.7588  0.1601
10089TIP3    H251759   3.296   1.443  16.426 -1.0762 -0.7519 -0.6814
10090TIP3   OH251760   2.695   6.084  14.891  0.1252 -0.0050  0.0362
10090TIP3    H151761   2.703   6.066  14.984 -0.7088  1.0136  0.3203
10090TIP3    H251762   2.741   6.011  14.848  3.2366  1.0740  1.2812
10091TIP3   OH251763   3.611   6.332   0.375 -0.0709  0.4683  0.1098
10091TIP3    H151764   3.626   6.420   0.340 -1.5198  0.3828 -0.7978
10091TIP3    H251765   3.642   6.337   0.466  0.0247  1.8621  0.0229
10092TIP3   OH251766   4.586   4.394  11.211  0.4757  0.3062 -0.6011
10092TIP3    H151767   4.589   4.462  11.143  0.1533  2.5251  1.4420
10092TIP3    H251768   4.629   4.435  11.287  2.2676 -2.6300  0.1113
10093TIP3   OH251769   1.454   6.688   1.942 -0.2894  0.3024 -0.5314
10093TIP3    H151770   1.385   6.628   1.914 -1.3989  0.5213  1.4932
10093TIP3    H251771   1.531   6.632   1.955 -1.6707 -1.1122  2.7091
10094TIP3   OH251772   0.621   2.133  11.259  0.1763 -0.3773 -0.1588
10094TIP3    H151773   0.680   2.063  11.231 -0.8612 -1.2781 -0.1875
10094TIP3    H251774   0.567   2.093  11.328  0.3211  0.7442  0.6327
10095TIP3   OH251775   1.029   6.785   5.315 -0.2215 -0.4877  0.3145
10095TIP3    H151776   0.990   6.717   5.369 -1.1224  1.0450  1.7007
10095TIP3    H251777   1.009   6.759   5.225 -1.2837 -1.6132  0.8453
10096TIP3   OH251778   0.335   4.485   5.220  0.2418  0.1966 -0.4319
10096TIP3    H151779   0.324   4.485   5.125 -0.0125  1.1636 -0.4136
10096TIP3    H251780   0.257   4.530   5.253  1.2259  1.5476  0.1182
10097TIP3   OH251781   0.313   3.507  12.322 -0.2696  0.3863  0.1182
10097TIP3    H151782   0.246   3.573  12.340 -0.4307 -0.1402  1.5887
10097TIP3    H251783   0.277   3.426  12.356  0.7943 -0.0540  0.2386
10098TIP3   OH251784   1.144   1.835  16.561 -0.7718 -0.4135 -0.1995
10098TIP3    H151785   1.203   1.854  16.634 -1.1680 -1.9501  0.5682
10098TIP3    H251786   1.101   1.753  16.586 -0.8802 -1.0218 -2.1922
10099TIP3   OH251787   1.661   2.336  14.287  0.2305 -0.0828  0.4639
10099TIP3    H151788   1.713   2.349  14.208 -0.9860  0.4691 -0.2628
10099TIP3    H251789   1.654   2.423  14.326 -2.7961  0.5361 -1.1679
10100TIP3   OH251790   6.109   5.351  15.441  0.4787  0.2440  0.1157
10100TIP3    H151791   6.071   5.341  15.354 -0.9991  1.1841  0.6188
10100TIP3    H251792   6.034   5.367  15.498  1.5117  0.6072  1.4130
10101TIP3   OH251793   0.292   6.405  12.016 -0.6662  0.9329 -0.2996
10101TIP3    H151794   0.207   6.444  11.993 -1.3538  0.1374  0.8215
10101TIP3    H251795   0.292   6.402  12.111  1.0736  1.8557 -0.2210
10102TIP3   OH251796   3.127   0.049   4.272  0.2121 -0.3493 -0.0336
10102TIP3    H151797   3.216   0.084   4.267 -0.4707  2.1829  2.5056
10102TIP3    H251798   3.071   0.121   4.241 -1.1257  0.2077  3.1855
10103TIP3   OH251799   1.659   2.905  16.350  0.0809  0.2601 -0.0227
10103TIP3    H151800   1.690   2.955  16.274  1.5835  1.2195  1.1690
10103TIP3    H251801   1.636   2.970  16.415 -1.8053 -0.5423  0.1841
10104TIP3   OH251802   5.104   4.887  14.919 -0.0305  0.0312  0.0995
10104TIP3    H151803   5.060   4.910  14.837 -0.2502  0.2724  0.2810
10104TIP3    H251804   5.194   4.915  14.907 -0.6408  2.6726  0.9462
10105TIP3   OH251805   4.169   4.044  15.965  0.0688 -0.3582 -0.1431
10105TIP3    H151806   4.143   3.993  16.041  0.5318 -0.9622 -0.3809
10105TIP3    H251807   4.089   4.089  15.937 -0.0510  0.0571  0.8337
10106TIP3   OH251808   2.524   1.739   1.621 -0.4757  0.2003 -0.5782
10106TIP3    H151809   2.618   1.758   1.615 -0.4814  0.2231 -0.5926
10106TIP3    H251810   2.486   1.779   1.543 -0.2010 -1.5822 -1.6836
10107TIP3   OH251811   2.742   3.947  12.735  0.1892  0.0386 -0.8343
10107TIP3    H151812   2.795   3.970  12.658  0.1053 -0.5099 -1.0595
10107TIP3    H251813   2.654   3.932  12.700  0.1590 -0.2487 -0.6391
10108TIP3   OH251814   3.372   1.454   5.796  0.6896  0.0682 -0.2448
10108TIP3    H151815   3.312   1.527   5.783  0.5673  0.2915  1.3769
10108TIP3    H251816   3.326   1.395   5.855 -0.7470 -3.2168 -4.1947
10109TIP3   OH251817   4.204   3.314   3.842  0.2299 -0.3508  0.1553
10109TIP3    H151818   4.187   3.408   3.852  1.1179 -0.1471 -0.1719
10109TIP3    H251819   4.151   3.287   3.767 -0.4553 -0.2385  0.5877
10110TIP3   OH251820   6.371   5.526   2.699 -0.1225 -0.6141  0.5918
10110TIP3    H151821   6.412   5.572   2.625  0.4806 -0.4724  1.0078
10110TIP3    H251822   6.290   5.575   2.714  0.9235  0.9209  1.5971
10111TIP3   OH251823   5.009   6.152  10.494  0.2595 -0.4594 -0.1790
10111TIP3    H151824   4.965   6.111  10.419 -0.4354  0.3163 -0.2107
10111TIP3    H251825   4.999   6.246  10.478  0.0237 -0.2848  0.9349
10112TIP3   OH251826   3.625   2.503  13.858 -0.4749  0.0225  0.0537
10112TIP3    H151827   3.537   2.481  13.829 -0.8346 -0.7763  1.6328
10112TIP3    H251828   3.661   2.420  13.890 -0.6414  1.0142  3.1068
10113TIP3   OH251829   4.618   0.758   4.569  0.9245  0.5149  0.1589
10113TIP3    H151830   4.632   0.790   4.480 -0.4655  0.2197 -0.1897
10113TIP3    H251831   4.638   0.665   4.564 -0.2645  0.2670 -0.1312
10114TIP3   OH251832   4.839   0.321   6.090 -0.2019  0.1074  0.2417
10114TIP3    H151833   4.863   0.270   6.012 -0.1448  0.5734 -0.0494
10114TIP3    H251834   4.811   0.405   6.055 -0.1636  0.3219  0.7315
10115TIP3   OH251835   4.259   6.143   1.597  0.4301  0.2698 -0.1933
10115TIP3    H151836   4.216   6.105   1.673  0.5286 -0.5845 -0.5453
10115TIP3    H251837   4.248   6.237   1.607 -0.5051  0.1163  0.3133
10116TIP3   OH251838   5.103   5.633  15.112 -0.2049 -0.2113  0.3978
10116TIP3    H151839   5.086   5.596  15.025 -0.7368 -1.0751  0.8534
10116TIP3    H251840   5.180   5.587  15.143  0.5461  0.7566  0.0253
10117TIP3   OH251841   5.181   2.057   2.777 -0.4132  0.4059 -0.8549
10117TIP3    H151842   5.117   2.009   2.723 -1.8928  0.0777  1.0703
10117TIP3    H251843   5.242   1.990   2.805 -0.9588  0.1263 -0.3065
10118TIP3   OH251844   6.179   3.831  16.136  0.0447 -0.0427  0.2908
10118TIP3    H151845   6.249   3.782  16.179 -0.0702 -2.1049 -1.6766
10118TIP3    H251846   6.225   3.900  16.087  0.5248 -0.1836  0.5341
10119TIP3   OH251847   3.995   4.880   4.986 -0.5197 -0.9902  0.6056
10119TIP3    H151848   4.024   4.789   4.983  1.8920 -0.2991  0.8564
10119TIP3    H251849   4.002   4.910   4.895  0.0217 -0.7057  0.7336
10120TIP3   OH251850   3.861   0.991  13.915 -0.1664 -0.2541 -0.3715
10120TIP3    H151851   3.948   1.011  13.948  0.2549 -1.1093 -0.9298
10120TIP3    H251852   3.813   0.957  13.990 -0.0943  0.4236 -0.0130
10121TIP3   OH251853   6.730   6.424   1.243  0.0552  0.0778 -0.2388
10121TIP3    H151854   6.754   6.336   1.273 -2.3359 -0.3369  0.7453
10121TIP3    H251855   6.766   6.430   1.155  1.1764 -1.4659  0.0609
10122TIP3   OH251856   6.202   5.408   4.893 -0.1844 -0.2007  0.1508
10122TIP3    H151857   6.166   5.359   4.819 -3.3586 -0.9220  1.9665
10122TIP3    H251858   6.267   5.350   4.932 -1.3761 -1.5576  0.2025
10123TIP3   OH251859   5.112   5.871   1.815  0.1453 -0.9437 -0.1237
10123TIP3    H151860   5.204   5.890   1.794  0.2713 -3.1074 -1.9024
10123TIP3    H251861   5.093   5.928   1.890  3.1422 -0.9334  0.7862
10124TIP3   OH251862   2.184   4.061   4.411 -0.3958 -0.5421 -0.1806
10124TIP3    H151863   2.189   4.146   4.368 -1.9950  1.1113  2.5989
10124TIP3    H251864   2.092   4.036   4.402 -0.3973 -0.9362  0.8069
10125TIP3   OH251865   2.329   5.296   3.513 -0.0532 -0.6336  0.0184
10125TIP3    H151866   2.408   5.343   3.538 -0.4679  0.9121 -1.4422
10125TIP3    H251867   2.348   5.204   3.533  1.5554 -0.1260  0.9822
10126TIP3   OH251868   0.176   0.369  14.193 -0.7109  0.6767 -0.6364
10126TIP3    H151869   0.254   0.343  14.144  0.3397  0.1701  1.2114
10126TIP3    H251870   0.115   0.296  14.181  1.0221 -1.3655  1.9139
10127TIP3   OH251871   4.838   0.808  15.686  0.4587  0.4923  0.1838
10127TIP3    H151872   4.855   0.717  15.661 -0.3794 -0.1648  1.8804
10127TIP3    H251873   4.746   0.821  15.667  0.0635  0.3029  1.8466
10128TIP3   OH251874   3.279   3.452  14.479 -0.0639 -0.6657 -0.6504
10128TIP3    H151875   3.227   3.377  14.448  0.4931 -1.3706  0.0906
10128TIP3    H251876   3.327   3.419  14.555  2.5023 -0.4604 -2.0471
10129TIP3   OH251877   3.772   3.143   5.558  0.3148  0.3756 -0.1075
10129TIP3    H151878   3.729   3.186   5.632  1.1252  1.8861 -0.4771
10129TIP3    H251879   3.859   3.120   5.591  0.2145 -0.1623 -0.2020
10130TIP3   OH251880   6.796   5.123  10.264 -0.1847 -0.3523 -0.0988
10130TIP3    H151881   6.752   5.204  10.290  0.7873  0.1629 -0.0110
10130TIP3    H251882   6.745   5.091  10.190 -0.2085  0.6968 -0.5581
10131TIP3   OH251883   2.733   2.731  14.671  0.2757  0.1730 -0.1162
10131TIP3    H151884   2.771   2.786  14.739 -0.4071  0.2162  0.2377
10131TIP3    H251885   2.808   2.688  14.630  0.6753 -0.0481  0.8264
10132TIP3   OH251886   3.917   6.184  14.863 -0.4471 -0.4541  0.1290
10132TIP3    H151887   3.982   6.252  14.851 -0.1939 -0.7913 -0.5006
10132TIP3    H251888   3.926   6.129  14.785 -0.9452 -0.9512  0.4137
10133TIP3   OH251889   2.363   4.886   4.279  0.4722  0.5019 -0.2814
10133TIP3    H151890   2.368   4.980   4.260  1.9334 -0.0885 -3.4600
10133TIP3    H251891   2.414   4.875   4.358 -0.8860  2.5005  0.9884
10134TIP3   OH251892   1.131   4.626   3.825  0.4897  0.2149 -1.0782
10134TIP3    H151893   1.101   4.549   3.873 -0.4216  0.5289 -1.1311
10134TIP3    H251894   1.166   4.685   3.893 -0.9147  0.7159 -0.7507
10135TIP3   OH251895   3.008   4.033  14.856 -0.1312  0.3734  0.1571
10135TIP3    H151896   3.058   3.952  14.852 -0.6478 -0.1878  3.2006
10135TIP3    H251897   2.938   4.022  14.791  0.5288 -1.0626 -0.3353
10136TIP3   OH251898   6.664   4.561  15.234 -0.3806 -1.0540  0.1891
10136TIP3    H151899   6.751   4.578  15.270 -1.2036  2.4692  0.9171
10136TIP3    H251900   6.658   4.620  15.159 -2.4795 -0.4285  0.7962
10137TIP3   OH251901   0.492   0.689  13.664 -0.3568  0.0115 -0.4139
10137TIP3    H151902   0.512   0.658  13.575  0.6232  0.6061 -0.4076
10137TIP3    H251903   0.434   0.621  13.700  0.0653 -0.7559 -1.1433
10138TIP3   OH251904   4.686   2.859   4.013  0.0727  0.2123 -0.4430
10138TIP3    H151905   4.704   2.895   3.926  1.8608  0.1345 -0.1373
10138TIP3    H251906   4.735   2.777   4.016  1.8121  1.2208  1.3545
10139TIP3   OH251907   1.296   1.562   5.653 -0.2103  0.2622 -0.2772
10139TIP3    H151908   1.282   1.616   5.731 -0.0830  0.8296 -0.6358
10139TIP3    H251909   1.281   1.472   5.682 -0.3935  0.4897  0.3430
10140TIP3   OH251910   0.521   0.552   5.691 -0.8070  0.0061  0.3562
10140TIP3    H151911   0.507   0.497   5.768 -0.3722 -0.3598  0.1762
10140TIP3    H251912   0.463   0.514   5.624  0.6264 -1.2206 -0.2464
10141TIP3   OH251913   2.338   2.213   3.784  0.3253 -0.3662 -0.1640
10141TIP3    H151914   2.325   2.263   3.704  1.4149 -1.0180 -0.7718
10141TIP3    H251915   2.250   2.201   3.820 -0.3435 -1.2357 -1.9931
10142TIP3   OH251916   5.529   4.057  13.516  0.3076 -0.0718  0.4010
10142TIP3    H151917   5.579   4.117  13.460 -0.6840 -0.1946 -0.6503
10142TIP3    H251918   5.446   4.103  13.532 -0.7003 -1.3241 -0.8762
10143TIP3   OH251919   1.395   0.225   5.100 -0.1702 -0.5441  0.2906
10143TIP3    H151920   1.478   0.178   5.113 -0.3816 -1.1550 -0.4354
10143TIP3    H251921   1.350   0.217   5.184  1.1006  1.0633  1.1868
10144TIP3   OH251922   1.771   4.045  15.318  0.0011 -0.4574  0.5740
10144TIP3    H151923   1.846   4.050  15.259  0.8465 -1.6993  1.4864
10144TIP3    H251924   1.695   4.037  15.260  0.8697 -2.3801 -0.3857
10145TIP3   OH251925   0.670   4.038   2.396  0.0062 -0.3470  0.6607
10145TIP3    H151926   0.612   4.096   2.444 -1.2014 -0.2002 -0.8856
10145TIP3    H251927   0.613   3.990   2.336  1.4073 -0.5130 -0.6179
10146TIP3   OH251928   4.264   0.325   1.448  0.2183 -0.1990  0.4633
10146TIP3    H151929   4.215   0.266   1.506  0.9110 -1.0593  0.1944
10146TIP3    H251930   4.346   0.279   1.430  0.1974  0.2404 -0.8723
10147TIP3   OH251931   6.005   2.870   4.779  0.3326 -0.7182 -0.2345
10147TIP3    H151932   5.921   2.875   4.824 -0.2776 -0.9633 -1.2952
10147TIP3    H251933   6.070   2.860   4.848 -0.5468 -0.8482  0.5843
10148TIP3   OH251934   5.195   2.020   2.419  0.2855 -0.2077  0.1915
10148TIP3    H151935   5.279   2.048   2.456  0.4618  0.9870 -1.0312
10148TIP3    H251936   5.218   1.942   2.368  0.8643  0.6547 -0.9134
10149TIP3   OH251937   0.063   6.169   1.700  0.5042 -0.2069  0.2732
10149TIP3    H151938  -0.003   6.221   1.655 -0.2258 -1.1938  0.1676
10149TIP3    H251939   0.075   6.092   1.644 -2.2327 -2.7476  2.7839
10150TIP3   OH251940   4.747   1.779   1.985 -0.1901  0.2720 -0.0671
10150TIP3    H151941   4.741   1.818   1.898 -0.8268 -1.7060 -0.9740
10150TIP3    H251942   4.657   1.755   2.007  0.2968 -1.7475 -0.1205
10151TIP3   OH251943   3.634   0.419  13.323 -0.0549  0.5265  0.0374
10151TIP3    H151944   3.570   0.418  13.251 -0.6442  0.4332  0.5467
10151TIP3    H251945   3.583   0.448  13.399 -0.3715 -2.6716  1.2251
10152TIP3   OH251946   6.460   5.697   0.089  0.2303 -0.1878  0.0135
10152TIP3    H151947   6.436   5.611   0.055  2.7854 -0.6164 -0.9508
10152TIP3    H251948   6.456   5.688   0.184 -2.2495 -0.4544 -0.0546
10153TIP3   OH251949   6.637   3.198  14.559 -0.3528 -0.4548 -0.3302
10153TIP3    H151950   6.609   3.154  14.639  0.5301 -2.9144 -1.2963
10153TIP3    H251951   6.692   3.271  14.590 -1.7267 -0.0546  1.3127
10154TIP3   OH251952   4.139   2.978   6.225 -0.5700 -0.3490 -0.4778
10154TIP3    H151953   4.068   2.950   6.283  0.5745 -0.8517  0.7362
10154TIP3    H251954   4.165   2.899   6.179 -0.1913 -0.3725 -0.2285
10155TIP3   OH251955   5.463   3.258  13.910 -0.3421 -0.9568  0.2946
10155TIP3    H151956   5.429   3.277  13.997 -1.1608 -0.0386 -0.2086
10155TIP3    H251957   5.401   3.196  13.872 -0.4985 -0.6507  0.0373
10156TIP3   OH251958   1.013   5.327   1.500  0.7033  0.1702  0.1789
10156TIP3    H151959   0.952   5.395   1.472  0.6695  0.0273 -0.0940
10156TIP3    H251960   1.099   5.363   1.480  0.6652 -0.0928 -0.4735
10157TIP3   OH251961   1.059   6.072  10.448 -0.6355  0.5868 -0.2491
10157TIP3    H151962   1.099   6.125  10.380 -0.9509 -2.2264 -2.8064
10157TIP3    H251963   1.021   5.997  10.402 -2.9210 -0.3372  2.7779
10158TIP3   OH251964   5.293   4.039   4.799  0.0800  0.3308  0.3980
10158TIP3    H151965   5.204   4.075   4.792  0.1729  1.3679  3.1757
10158TIP3    H251966   5.342   4.106   4.846  1.8641 -0.9849  0.5073
10159TIP3   OH251967   3.050   5.967   2.212  0.4259  0.2600 -0.1355
10159TIP3    H151968   3.100   5.904   2.159 -0.0465 -0.1447 -0.0994
10159TIP3    H251969   3.110   5.990   2.283  0.2874 -0.8302  0.3561
10160TIP3   OH251970   6.255   6.121   6.057 -0.3476  0.0155  0.1717
10160TIP3    H151971   6.323   6.079   6.005 -0.5690  0.4809 -0.4965
10160TIP3    H251972   6.241   6.205   6.016  0.0690  0.7581  1.4830
10161TIP3   OH251973   5.983   2.782  15.602  0.0377  0.2465 -0.0742
10161TIP3    H151974   6.026   2.727  15.537 -0.8021 -0.5176 -0.0054
10161TIP3    H251975   6.000   2.739  15.686  1.5402  1.4914  0.3187
10162TIP3   OH251976   4.075   2.336   5.272 -0.0254  0.6301 -0.4051
10162TIP3    H151977   4.019   2.262   5.249  1.4172 -0.3839 -0.7391
10162TIP3    H251978   4.061   2.348   5.366  0.0928 -0.3927 -0.2493
10163TIP3   OH251979   4.811   0.764  14.335  0.2386 -0.1650  0.0684
10163TIP3    H151980   4.887   0.728  14.288 -0.2828 -1.1469 -0.0454
10163TIP3    H251981   4.849   0.807  14.412  0.9488 -0.1721 -0.2687
10164TIP3   OH251982   0.806   2.204   2.670  0.6341 -0.0084 -0.6014
10164TIP3    H151983   0.805   2.194   2.765 -1.8242 -0.9620 -0.6731
10164TIP3    H251984   0.837   2.120   2.637  1.2777  0.2498 -0.6734
10165TIP3   OH251985   3.583   6.432  15.317 -0.2848  0.5196  0.4809
10165TIP3    H151986   3.673   6.409  15.340 -0.6563 -1.0626  0.4749
10165TIP3    H251987   3.588   6.523  15.288  1.0778  0.8901  1.7582
10166TIP3   OH251988   1.095   5.824   9.697  0.4991  0.1184  0.1856
10166TIP3    H151989   1.049   5.818   9.613  0.9516  0.7473 -0.1164
10166TIP3    H251990   1.177   5.868   9.676  1.7023 -1.8425  0.5508
10167TIP3   OH251991   5.356   5.440   1.096  0.0082 -0.2901  0.2664
10167TIP3    H151992   5.405   5.520   1.079  1.7146 -0.9413  1.8611
10167TIP3    H251993   5.336   5.443   1.189 -0.1119 -1.6186  0.3006
10168TIP3   OH251994   3.906   1.012  13.626  0.2033  0.7194 -0.3676
10168TIP3    H151995   3.904   1.107  13.627  0.6022  0.7287 -0.6130
10168TIP3    H251996   3.822   0.986  13.664 -0.1053  1.1670 -0.7378
10169TIP3   OH251997   5.279   5.023   2.775  0.2000  0.2343 -0.3738
10169TIP3    H151998   5.355   5.051   2.724  0.4533 -1.0812 -0.7364
10169TIP3    H251999   5.205   5.037   2.716  0.3953 -0.4273 -0.7870
10170TIP3   OH252000   3.266   4.864  13.475 -0.1345  0.0610 -0.1853
10170TIP3    H152001   3.176   4.889  13.454 -0.7620 -1.8814  0.0025
10170TIP3    H252002   3.320   4.928  13.429 -1.6029  1.4286 -0.0743
10171TIP3   OH252003   1.180   0.172   0.898 -0.1174  0.1667  0.1326
10171TIP3    H152004   1.185   0.249   0.955 -0.9300  0.2520  0.1042
10171TIP3    H252005   1.217   0.101   0.951  0.2133  0.4819  0.3271
10172TIP3   OH252006   0.553   5.029  15.317  0.1856 -0.1860 -0.2559
10172TIP3    H152007   0.636   4.984  15.328  0.1821 -0.8864 -2.5472
10172TIP3    H252008   0.575   5.122  15.323  0.7196 -0.3752  1.2966
10173TIP3   OH252009   2.371   2.241   5.460  0.1969 -0.0397  0.2477
10173TIP3    H152010   2.359   2.303   5.532 -0.9912  0.4877 -0.3685
10173TIP3    H252011   2.339   2.157   5.494  0.5687 -0.0168  0.6525
10174TIP3   OH252012   6.529   1.885  12.167  0.2620  0.0289 -0.4159
10174TIP3    H152013   6.535   1.928  12.082  0.0181 -1.9197 -1.4670
10174TIP3    H252014   6.590   1.934  12.223  0.2139  1.5181 -1.6028
10175TIP3   OH252015   2.070   3.846   3.021  0.4853 -0.1603  0.3052
10175TIP3    H152016   2.054   3.809   2.935 -1.1432  0.7561  0.1777
10175TIP3    H252017   1.998   3.813   3.075  0.7934  0.2632  0.9847
10176TIP3   OH252018   1.384   2.727  14.394 -0.0325  0.1317 -0.3948
10176TIP3    H152019   1.314   2.663  14.409 -0.7501  1.1374  0.6258
10176TIP3    H252020   1.339   2.810  14.378  0.8917  0.4518 -1.5742
10177TIP3   OH252021   0.321   2.755   2.351 -0.3694  0.0684  0.2001
10177TIP3    H152022   0.301   2.848   2.364 -0.0757  0.4194 -1.5593
10177TIP3    H252023   0.243   2.709   2.381 -0.4989  0.8645  1.1504
10178TIP3   OH252024   2.063   3.254  14.577  0.0336  0.8462  0.0585
10178TIP3    H152025   2.040   3.334  14.528 -3.5625 -0.0687 -0.0484
10178TIP3    H252026   2.115   3.203  14.515 -2.4799  0.7214 -2.1565
10179TIP3   OH252027   4.019   3.605   1.435  0.3315 -0.1669 -0.9017
10179TIP3    H152028   4.076   3.674   1.470 -1.1423  0.9103 -0.5018
10179TIP3    H252029   4.048   3.525   1.478  1.1637  0.4463 -0.2962
10180TIP3   OH252030   3.287   1.753   4.546 -0.2888 -0.9259  0.2959
10180TIP3    H152031   3.330   1.772   4.629  1.0382 -1.0880 -0.3358
10180TIP3    H252032   3.350   1.700   4.497 -1.3374 -1.4699 -0.5326
10181TIP3   OH252033   3.206   3.217  13.674  0.1153 -0.0023  0.2210
10181TIP3    H152034   3.227   3.130  13.708  0.1743  0.3073  0.9858
10181TIP3    H252035   3.225   3.211  13.580 -1.3868 -1.3023 -0.0453
10182TIP3   OH252036   5.239   1.048   0.761 -0.0037  1.1500 -0.2245
10182TIP3    H152037   5.222   0.960   0.728  0.9694  1.7320 -2.4023
10182TIP3    H252038   5.253   1.035   0.855  0.4121 -1.0516 -0.5381
10183TIP3   OH252039   0.805   1.938   0.444  0.3220  0.5833  0.4875
10183TIP3    H152040   0.885   1.955   0.493  0.5249 -0.7251  0.6541
10183TIP3    H252041   0.835   1.917   0.356  0.1449  0.4511  0.4574
10184TIP3   OH252042   4.790   1.876  14.097 -0.1570 -0.5426 -0.6151
10184TIP3    H152043   4.786   1.800  14.038 -0.6886 -0.4409 -0.7089
10184TIP3    H252044   4.883   1.884  14.118 -0.1262 -1.4000 -0.3814
10185TIP3   OH252045   4.026   5.958   1.461 -0.3492 -0.0250 -0.2522
10185TIP3    H152046   3.974   5.967   1.381  0.3364 -0.8558 -0.8058
10185TIP3    H252047   4.099   6.019   1.448 -0.9515  0.8583  0.3590
10186TIP3   OH252048   0.509   1.652  12.895  0.4594 -0.4882 -0.5098
10186TIP3    H152049   0.469   1.739  12.905  0.7866 -0.1434 -1.9460
10186TIP3    H252050   0.577   1.665  12.829  0.0827 -1.9882 -1.2272
10187TIP3   OH252051   5.209   6.179   0.914 -0.1243  0.0386 -0.4578
10187TIP3    H152052   5.268   6.202   0.986  0.4420 -0.9664 -0.5802
10187TIP3    H252053   5.158   6.258   0.898 -1.1744 -0.0717  1.8895
10188TIP3   OH252054   5.447   6.065   4.223 -0.1230 -0.0541  0.1014
10188TIP3    H152055   5.480   6.117   4.149  0.4935 -0.1047  0.3334
10188TIP3    H252056   5.353   6.061   4.209 -0.0975  0.5408 -0.2987
10189TIP3   OH252057   2.732   0.676   4.301 -1.0394  0.1621 -0.3464
10189TIP3    H152058   2.673   0.740   4.262 -0.0467  1.4739  0.2116
10189TIP3    H252059   2.678   0.629   4.364 -2.1429 -0.5737 -1.7691
10190TIP3   OH252060   6.816   4.157   0.569 -0.2367 -0.2573  0.2498
10190TIP3    H152061   6.875   4.231   0.573 -0.3988 -0.1961  1.9543
10190TIP3    H252062   6.743   4.187   0.514  1.3928 -0.4587 -2.1773
10191TIP3   OH252063   3.626   1.954  12.794 -0.6515  0.1903 -0.4201
10191TIP3    H152064   3.539   1.931  12.760 -0.7004 -0.5341  0.1625
10191TIP3    H252065   3.614   2.041  12.831 -1.1115  0.1351 -0.4228
10192TIP3   OH252066   2.070   5.010  10.432  0.0682 -0.2741  0.5144
10192TIP3    H152067   2.124   5.066  10.377 -1.0439 -0.8941 -1.2797
10192TIP3    H252068   2.086   4.921  10.398 -1.0244 -0.6152  0.8589
10193TIP3   OH252069   6.467   1.426  11.666  0.5745 -0.1185 -0.1305
10193TIP3    H152070   6.384   1.425  11.618  0.5328  0.3207 -0.0677
10193TIP3    H252071   6.443   1.415  11.757  0.4811  1.3305  0.0317
10194TIP3   OH252072   0.848   5.104  14.116  0.1999 -0.6104  0.0664
10194TIP3    H152073   0.895   5.040  14.169 -0.2347 -0.1646  0.9979
10194TIP3    H252074   0.756   5.086  14.132  0.0510 -0.6004 -0.7105
10195TIP3   OH252075   1.155   0.398   3.576 -0.1507 -0.7623 -0.2033
10195TIP3    H152076   1.224   0.352   3.623 -1.5111 -1.2675  1.3891
10195TIP3    H252077   1.199   0.439   3.501  1.8844 -0.8737  0.8840
10196TIP3   OH252078   1.279   5.468  12.533 -0.9402 -0.1625  0.1022
10196TIP3    H152079   1.330   5.547  12.552 -0.8819  0.2765 -1.6804
10196TIP3    H252080   1.202   5.474  12.590 -2.1608  2.4586 -1.6332
10197TIP3   OH252081   4.954   1.300  16.648 -0.1106 -0.5630 -0.3805
10197TIP3    H152082   5.040   1.323  16.685 -1.3980  0.4614  2.2373
10197TIP3    H252083   4.940   1.365  16.580 -0.2372  1.5854  1.5606
10198TIP3   OH252084   1.770   1.076  10.767  0.0488 -0.7385 -0.2582
10198TIP3    H152085   1.701   1.140  10.785 -1.0657 -1.7574 -0.7666
10198TIP3    H252086   1.815   1.111  10.690  0.1574 -0.0296  0.1156
10199TIP3   OH252087   3.885   5.464  13.373 -0.2948 -0.3786 -0.0006
10199TIP3    H152088   3.890   5.373  13.343  0.6320 -0.0653 -0.8549
10199TIP3    H252089   3.816   5.503  13.320 -0.0220 -0.3355 -0.3241
10200TIP3   OH252090   3.100   4.906   5.740  0.4015  0.0690  0.6810
10200TIP3    H152091   3.053   4.886   5.659 -0.7227  0.4319  1.2220
10200TIP3    H252092   3.069   4.993   5.765  0.9475  0.0839  1.3536
10201TIP3   OH252093   4.320   4.939   9.997  0.0047 -0.1794  0.0013
10201TIP3    H152094   4.384   4.998   9.959  0.3861 -0.7890 -0.3170
10201TIP3    H252095   4.297   4.979  10.081 -2.2524  2.1893 -1.6023
10202TIP3   OH252096   4.587   2.555   2.146  0.1388 -0.0463  0.2969
10202TIP3    H152097   4.653   2.486   2.139  0.8124  0.7427 -3.2082
10202TIP3    H252098   4.507   2.517   2.110  0.7133  1.0737 -2.4013
10203TIP3   OH252099   5.602   0.078  11.561  0.1984  0.0785  0.7813
10203TIP3    H152100   5.606   0.174  11.557 -0.0591  0.0606 -0.3392
10203TIP3    H252101   5.530   0.060  11.622 -1.1503  0.6448 -0.5709
10204TIP3   OH252102   1.178   1.523  16.213  0.8446 -0.0326 -0.0325
10204TIP3    H152103   1.100   1.469  16.220  0.3390  0.0978 -3.1512
10204TIP3    H252104   1.145   1.612  16.202  1.4080  0.0611 -1.0900
10205TIP3   OH252105   6.153   4.466   0.993 -0.0116 -0.3811  0.4729
10205TIP3    H152106   6.220   4.415   0.949 -0.2525 -2.4705  2.3557
10205TIP3    H252107   6.134   4.538   0.933  1.6553 -1.4807 -1.4816
10206TIP3   OH252108   1.987   5.077   4.749  0.2561  0.1808  0.0198
10206TIP3    H152109   2.078   5.046   4.753  0.0690 -0.2711  1.0129
10206TIP3    H252110   1.984   5.150   4.810  0.5250  1.8169 -1.8208
10207TIP3   OH252111   1.791   4.043  10.750 -1.1130  0.1232  0.1864
10207TIP3    H152112   1.770   4.023  10.841  0.7709  1.6840  1.0381
10207TIP3    H252113   1.711   4.084  10.717 -1.8096 -0.4046  1.1377
10208TIP3   OH252114   1.201   3.045   4.476 -0.3405 -0.5048  0.6522
10208TIP3    H152115   1.129   3.083   4.426 -0.4532  0.3035  1.4062
10208TIP3    H252116   1.279   3.090   4.444 -0.5739  1.0668  2.1653
10209TIP3   OH252117   2.027   6.756  15.230 -0.2106  0.0686  0.0072
10209TIP3    H152118   1.967   6.822  15.265 -0.5608  0.3048 -1.0072
10209TIP3    H252119   1.970   6.690  15.192  0.1061  1.3595 -2.9543
10210TIP3   OH252120   2.523   5.402   5.827 -0.1346 -0.0065  0.3720
10210TIP3    H152121   2.506   5.333   5.762 -1.3949 -0.6864  1.3654
10210TIP3    H252122   2.558   5.355   5.903 -1.1334  0.3988  1.1068
10211TIP3   OH252123   6.591   6.811  13.955 -0.1896 -0.4936 -0.1835
10211TIP3    H152124   6.592   6.742  13.889 -1.4279 -0.7820  0.0628
10211TIP3    H252125   6.569   6.766  14.037  1.2838 -0.1365  0.4379
10212TIP3   OH252126   2.587   5.197  11.236  0.0734 -0.6625 -0.3201
10212TIP3    H152127   2.525   5.236  11.174 -0.0929  0.1197  0.3220
10212TIP3    H252128   2.557   5.107  11.246 -1.6064 -0.0302  0.7546
10213TIP3   OH252129   6.370   1.240  16.740 -0.5401  0.1887 -0.6443
10213TIP3    H152130   6.395   1.173  16.677  0.1607 -0.4526  0.2748
10213TIP3    H252131   6.305   1.198  16.795  0.6027 -0.1108  0.5415
10214TIP3   OH252132   5.167   6.266  11.921 -0.3425  0.6973 -0.3897
10214TIP3    H152133   5.159   6.177  11.886 -0.8282  0.2268  0.8325
10214TIP3    H252134   5.178   6.253  12.015  1.4277  1.8877 -0.4002
10215TIP3   OH252135   6.292   2.411   3.982 -0.4590 -0.0489 -0.1593
10215TIP3    H152136   6.350   2.485   4.002  0.6851 -0.5632 -1.4012
10215TIP3    H252137   6.232   2.446   3.916 -0.1752 -0.0893 -0.4471
10216TIP3   OH252138   5.446   0.692  15.352 -0.6335  0.3462  0.0011
10216TIP3    H152139   5.357   0.668  15.378 -0.7041 -1.2621 -1.4819
10216TIP3    H252140   5.492   0.708  15.434 -1.4616 -1.9993  1.0173
10217TIP3   OH252141   5.935   6.614   1.416 -0.3080  0.0935 -0.2793
10217TIP3    H152142   5.983   6.621   1.498  0.9869 -0.6681 -0.9372
10217TIP3    H252143   5.845   6.636   1.439 -0.0017 -0.2367  1.3737
10218TIP3   OH252144   6.817   6.570  13.874  0.0849  0.1640  0.2149
10218TIP3    H152145   6.747   6.509  13.897 -0.2739  1.1579  1.9615
10218TIP3    H252146   6.828   6.559  13.779 -0.0800 -2.4275  0.4280
10219TIP3   OH252147   4.752   4.120  13.937 -0.1199 -0.5907 -0.6450
10219TIP3    H152148   4.812   4.186  13.971 -2.5159  1.0660  0.6214
10219TIP3    H252149   4.790   4.037  13.966  2.5063  0.1988 -1.5317
10220TIP3   OH252150   3.211   2.349   6.281  0.3197 -0.1752  0.0106
10220TIP3    H152151   3.144   2.301   6.232 -0.5413  2.0316 -1.1222
10220TIP3    H252152   3.293   2.328   6.235 -0.0562 -0.4530 -0.5542
10221TIP3   OH252153   5.643   6.580  11.845  0.0500  0.0082  0.3300
10221TIP3    H152154   5.688   6.500  11.816 -0.5910 -0.4190  0.4983
10221TIP3    H252155   5.661   6.644  11.776  1.0836 -0.0885  0.4889
10222TIP3   OH252156   6.528   1.702  12.777  0.3605 -0.0942 -0.3498
10222TIP3    H152157   6.556   1.615  12.750  0.3143 -0.0802 -0.4442
10222TIP3    H252158   6.579   1.762  12.722 -0.4069 -0.0808 -1.0741
10223TIP3   OH252159   1.791   4.497   5.023  0.4650  0.5330 -0.4213
10223TIP3    H152160   1.752   4.499   4.936  2.3769 -1.6483 -1.4099
10223TIP3    H252161   1.722   4.461   5.079 -0.1394  0.1407 -1.3902
10224TIP3   OH252162   5.339   5.443   1.406  1.0064 -0.5919  0.1278
10224TIP3    H152163   5.410   5.503   1.383 -0.2073  0.2356 -1.6626
10224TIP3    H252164   5.259   5.495   1.400  0.1828 -1.5511  1.9078
10225TIP3   OH252165   4.094   1.688   0.474 -0.2964  0.5313  0.5141
10225TIP3    H152166   4.031   1.616   0.465 -3.0564  2.7509  0.6490
10225TIP3    H252167   4.122   1.707   0.384 -0.7225  0.2420  0.3185
10226TIP3   OH252168   6.268   6.702  15.601 -0.7214  0.2566 -0.0405
10226TIP3    H152169   6.296   6.793  15.602 -2.8797  0.9977 -1.3929
10226TIP3    H252170   6.273   6.675  15.693  0.3980  1.5504  0.3195
10227TIP3   OH252171   1.980   4.625  13.312  0.3930 -0.1989  0.1880
10227TIP3    H152172   1.908   4.620  13.376  0.1928  0.1154 -0.0056
10227TIP3    H252173   2.036   4.696  13.345 -0.7275  1.3161 -0.9722
10228TIP3   OH252174   6.482   5.817  14.935  0.4170 -0.0268  0.1087
10228TIP3    H152175   6.464   5.793  15.025 -0.4681 -1.2033 -0.3647
10228TIP3    H252176   6.574   5.845  14.935 -0.4302  3.2420  1.9985
10229TIP3   OH252177   2.893   3.358  15.450  0.1090 -0.7001  0.0821
10229TIP3    H152178   2.894   3.264  15.469  1.4974 -0.4447  1.5223
10229TIP3    H252179   2.970   3.372  15.396  0.8070 -0.1834  1.1765
10230TIP3   OH252180   4.361   4.434   3.167  0.0184  0.6182  0.2350
10230TIP3    H152181   4.317   4.515   3.143 -0.6409  0.5481  1.1694
10230TIP3    H252182   4.292   4.377   3.200  0.7486  0.4034  1.4821
10231TIP3   OH252183   1.650   1.980   0.898  0.6260 -0.4764  0.3632
10231TIP3    H152184   1.694   1.950   0.819  2.0289  0.4885  0.7455
10231TIP3    H252185   1.628   2.072   0.881  0.5301 -0.3912  0.9122
10232TIP3   OH252186   1.793   0.060   0.741 -0.1600  0.2627  0.3017
10232TIP3    H152187   1.736   0.063   0.664 -0.6589 -2.1234  0.5161
10232TIP3    H252188   1.881   0.050   0.705 -0.4218 -1.1522  0.0085
10233TIP3   OH252189   1.591   2.573  11.765 -0.3696 -0.6305 -0.3144
10233TIP3    H152190   1.686   2.562  11.773 -0.4022 -1.6500 -1.1949
10233TIP3    H252191   1.554   2.496  11.806 -0.8529  0.0804  0.6125
10234TIP3   OH252192   1.835   3.831  15.476 -0.5450  1.4215 -0.2169
10234TIP3    H152193   1.830   3.895  15.405 -1.0340  0.9331 -0.6268
10234TIP3    H252194   1.746   3.799  15.486 -0.8212  2.6232  1.7051
10235TIP3   OH252195   6.145   3.175  14.518  0.3289  0.4326 -0.0573
10235TIP3    H152196   6.152   3.249  14.457  1.4868  0.9172  0.6264
10235TIP3    H252197   6.073   3.122  14.483  0.1020  1.3792 -1.0985
10236TIP3   OH252198   5.679   4.969   4.132 -0.3362  0.9637 -0.0068
10236TIP3    H152199   5.732   5.048   4.120 -0.8810  1.3329 -0.0324
10236TIP3    H252200   5.589   4.998   4.117 -0.4997  0.2234 -0.5107
10237TIP3   OH252201   6.020   0.579   1.781 -0.0378  0.2446 -0.2560
10237TIP3    H152202   6.019   0.674   1.783 -0.1457  0.2317  1.0081
10237TIP3    H252203   6.076   0.554   1.854 -0.3837 -0.6679 -0.2869
10238TIP3   OH252204   1.399   2.445   5.023 -0.0460  0.2317 -0.1344
10238TIP3    H152205   1.341   2.417   5.094 -0.8185  0.7103 -0.5537
10238TIP3    H252206   1.369   2.396   4.946  0.0251  0.5623 -0.3796
10239TIP3   OH252207   6.838   2.246   0.305 -0.7795  0.4468 -0.1143
10239TIP3    H152208   6.923   2.208   0.281 -1.1630 -1.6968  1.6111
10239TIP3    H252209   6.856   2.299   0.382 -0.9124  0.5798 -0.1737
10240TIP3   OH252210   0.610   2.009   4.589  0.5576 -0.2073  0.1837
10240TIP3    H152211   0.634   1.989   4.679 -0.3619 -0.1302  0.4508
10240TIP3    H252212   0.542   2.075   4.596  1.0073  0.3524 -0.5957
10241TIP3   OH252213   0.677   2.036  14.071  0.1852  1.2243  0.9404
10241TIP3    H152214   0.626   2.029  13.990  2.3204 -1.9018 -0.3659
10241TIP3    H252215   0.612   2.029  14.141 -1.4525  0.3230 -0.5851
10242TIP3   OH252216   0.850   0.115  13.602 -0.2886  0.5047  0.2128
10242TIP3    H152217   0.758   0.132  13.619 -1.6138 -2.8571 -2.4298
10242TIP3    H252218   0.873   0.176  13.531 -1.3625 -0.4146 -0.9699
10243TIP3   OH252219   3.841   2.321   5.707 -0.1623  0.3752 -0.2907
10243TIP3    H152220   3.832   2.376   5.785 -2.4415 -0.0984 -0.1455
10243TIP3    H252221   3.874   2.237   5.740 -0.4617  0.4012  0.0802
10244TIP3   OH252222   6.351   6.182  15.715  0.5575  0.6854  0.2885
10244TIP3    H152223   6.441   6.190  15.685  0.9462  1.2897  1.5566
10244TIP3    H252224   6.321   6.098  15.681  1.7045  0.3382  0.1249
10245TIP3   OH252225   2.864   5.102  14.670  0.0673  0.3122  0.1465
10245TIP3    H152226   2.852   5.155  14.748 -1.2048 -0.1570  0.3025
10245TIP3    H252227   2.817   5.149  14.601  2.0721  1.2771 -0.6381
10246TIP3   OH252228   2.502   5.454  12.727  0.2331 -0.1773 -0.2635
10246TIP3    H152229   2.586   5.427  12.689  0.0065 -1.3984  0.0715
10246TIP3    H252230   2.452   5.489  12.654 -0.2473 -2.5950 -1.1832
10247TIP3   OH252231   3.848   3.426   0.796  0.5832  0.4363  0.0906
10247TIP3    H152232   3.800   3.436   0.878  1.7174  1.9276  0.6172
10247TIP3    H252233   3.869   3.333   0.792 -2.4166 -0.3155 -0.2550
10248TIP3   OH252234   2.409   4.571   0.571 -0.3069  0.3678 -0.1091
10248TIP3    H152235   2.433   4.642   0.631 -0.7329  1.0771 -0.7712
10248TIP3    H252236   2.315   4.580   0.558 -0.3017 -0.0838 -0.4936
10249TIP3   OH252237   3.645   2.457  16.870  0.1095 -0.5208 -0.4690
10249TIP3    H152238   3.670   2.541  16.831  0.6765 -0.8068 -0.7262
10249TIP3    H252239   3.552   2.467  16.889  0.0844  0.0336 -0.8504
10250TIP3   OH252240   3.907   3.959   3.813  0.2579 -0.0077 -0.0870
10250TIP3    H152241   3.827   3.923   3.852  0.4171  0.1666  0.4100
10250TIP3    H252242   3.969   3.886   3.814  0.0824 -0.1705 -0.5594
10251TIP3   OH252243   4.551   6.411  14.115  0.8758 -0.1293  0.2803
10251TIP3    H152244   4.536   6.460  14.035  1.4877 -1.1312 -0.4645
10251TIP3    H252245   4.570   6.478  14.181  0.9707  0.6607 -0.5384
10252TIP3   OH252246   3.816   6.346  14.307 -0.1329 -0.0974 -0.3485
10252TIP3    H152247   3.869   6.421  14.282 -1.6359  1.0517 -0.2537
10252TIP3    H252248   3.866   6.303  14.376  1.3000  0.1122 -1.2051
10253TIP3   OH252249   5.411   5.978  11.324 -0.2296  0.4267  0.3239
10253TIP3    H152250   5.330   5.937  11.297  0.9197 -0.8609 -1.3936
10253TIP3    H252251   5.399   6.071  11.304 -1.1347  0.1970 -0.2442
10254TIP3   OH252252   2.944   4.408   2.570 -0.1137  0.2637  0.4809
10254TIP3    H152253   2.858   4.387   2.535 -0.2200 -1.5168  1.6964
10254TIP3    H252254   2.993   4.442   2.494 -1.7071  0.8849 -0.3210
10255TIP3   OH252255   4.172   1.000   3.760  0.9391  0.3462 -0.0835
10255TIP3    H152256   4.171   0.908   3.789  1.0167  0.1889 -0.5647
10255TIP3    H252257   4.194   1.050   3.839  0.5322 -0.0186  0.2629
10256TIP3   OH252258   2.019   6.220  16.279 -0.3889 -0.3224  0.5773
10256TIP3    H152259   2.044   6.263  16.197 -1.3250  0.8006  0.8450
10256TIP3    H252260   2.085   6.249  16.342  0.2209 -1.0314  0.2736
10257TIP3   OH252261   6.101   2.606   3.805 -0.0307  0.1990 -0.1469
10257TIP3    H152262   6.089   2.636   3.715  0.3781  0.9864  0.0462
10257TIP3    H252263   6.120   2.686   3.854  3.6925 -0.5945 -0.0381
10258TIP3   OH252264   1.958   3.136   1.839  0.2042 -0.2215  0.4429
10258TIP3    H152265   1.893   3.170   1.900  0.2945  1.6556 -0.4575
10258TIP3    H252266   2.015   3.081   1.894 -0.0716  0.9021  1.9390
10259TIP3   OH252267   2.762   5.502  10.542 -0.0541  0.2171  0.0019
10259TIP3    H152268   2.667   5.508  10.548 -0.2218 -0.0725 -1.9019
10259TIP3    H252269   2.787   5.570  10.479  0.8050 -0.8523 -0.8452
10260TIP3   OH252270   2.826   0.764  16.266  0.7365 -0.5251  0.1227
10260TIP3    H152271   2.777   0.683  16.251 -0.7547  0.2556  0.4938
10260TIP3    H252272   2.848   0.763  16.359 -0.3192  0.0014  0.3994
10261TIP3   OH252273   0.351   0.419  10.826  0.0386 -0.5962 -0.3260
10261TIP3    H152274   0.269   0.428  10.776  0.0406  1.3189 -0.0749
10261TIP3    H252275   0.407   0.488  10.791  0.7410 -0.4557  1.0157
10262TIP3   OH252276   4.621   2.778  16.425  0.2932  0.5911 -1.2651
10262TIP3    H152277   4.643   2.685  16.427  0.0621  0.5005  1.3799
10262TIP3    H252278   4.691   2.819  16.374  3.0298 -0.5136  1.2796
10263TIP3   OH252279   3.940   4.809   3.320 -0.7187 -0.7365  0.3496
10263TIP3    H152280   3.946   4.845   3.232  0.3105  0.5701  0.9179
10263TIP3    H252281   3.863   4.851   3.359  0.8008  1.4594  1.2076
10264TIP3   OH252282   2.100   2.807  12.397  0.0939  0.2746  0.5237
10264TIP3    H152283   2.192   2.781  12.406  0.7972  0.8908 -3.0425
10264TIP3    H252284   2.103   2.902  12.393 -1.0816  0.4529  2.7573
10265TIP3   OH252285   3.312   0.600   5.872  0.1967 -0.5159  0.0976
10265TIP3    H152286   3.370   0.558   5.935  0.9051  1.2155  0.6556
10265TIP3    H252287   3.318   0.693   5.891 -2.4403 -0.2111 -0.1350
10266TIP3   OH252288   6.453   2.640  16.153  0.7174 -0.2264 -0.3898
10266TIP3    H152289   6.382   2.669  16.211  0.4050 -1.5383 -0.0882
10266TIP3    H252290   6.437   2.546  16.140  1.5319 -0.2306 -1.5534
10267TIP3   OH252291   0.239   1.228   5.143  0.1965 -0.0275  0.2407
10267TIP3    H152292   0.272   1.294   5.204  0.7777 -1.0088  1.0279
10267TIP3    H252293   0.194   1.164   5.199 -3.5504  1.4429 -0.7906
10268TIP3   OH252294   6.352   6.156  11.684 -0.7278  0.2113 -0.3767
10268TIP3    H152295   6.387   6.239  11.717  1.4841  0.2914 -2.6710
10268TIP3    H252296   6.260   6.175  11.667 -0.5231  1.8756  0.1232
10269TIP3   OH252297   1.352   5.267  15.082  0.0720  0.3875 -0.0461
10269TIP3    H152298   1.356   5.362  15.094 -1.3895  0.2145  2.2965
10269TIP3    H252299   1.270   5.240  15.124  0.4695 -1.9350 -0.5966
10270TIP3   OH252300   6.824   5.772  12.288  0.2849 -0.2961  0.1479
10270TIP3    H152301   6.746   5.731  12.327 -0.3332  0.4959 -0.2273
10270TIP3    H252302   6.896   5.716  12.315 -0.7086 -2.6895 -1.7449
10271TIP3   OH252303   5.519   6.118   1.761  0.4905 -0.0118  0.0531
10271TIP3    H152304   5.499   6.202   1.801  1.6667 -0.4979  1.7968
10271TIP3    H252305   5.497   6.129   1.669 -0.9197  1.6578  0.5464
10272TIP3   OH252306   6.839   5.460   4.335 -0.5950 -0.3384 -0.7281
10272TIP3    H152307   6.925   5.423   4.356 -0.6232 -0.8448 -1.4909
10272TIP3    H252308   6.855   5.555   4.328 -0.3504 -0.2855  0.3358
10273TIP3   OH252309   1.650   2.853  12.377  0.0630  0.3447  0.1198
10273TIP3    H152310   1.569   2.886  12.414  0.0507  0.5085 -0.0524
10273TIP3    H252311   1.711   2.851  12.450  0.0186  0.6007  0.1646
10274TIP3   OH252312   3.790   1.319   3.863 -0.6132 -0.2275 -0.5604
10274TIP3    H152313   3.878   1.356   3.860 -1.0841  1.1315  1.0518
10274TIP3    H252314   3.791   1.250   3.796  2.0778 -1.1630  0.2865
10275TIP3   OH252315   4.401   2.904  16.562 -0.0016 -0.0061 -0.0701
10275TIP3    H152316   4.453   2.834  16.522 -0.9110 -1.2516  0.8603
10275TIP3    H252317   4.337   2.928  16.495 -0.3791 -0.8320 -0.0081
10276TIP3   OH252318   1.354   0.526   0.881  0.1967 -0.8459  0.0695
10276TIP3    H152319   1.431   0.510   0.936 -0.5315  0.8374  1.6965
10276TIP3    H252320   1.361   0.618   0.856 -0.7757 -0.9410 -0.6162
10277TIP3   OH252321   6.465   2.934  11.043 -0.1820 -0.5395  1.1417
10277TIP3    H152322   6.412   2.889  10.977 -2.1556 -0.8324  2.8069
10277TIP3    H252323   6.500   2.864  11.097  0.7614 -0.2614  0.9132
10278TIP3   OH252324   3.059   3.618   2.689  0.2028  0.2764 -0.8039
10278TIP3    H152325   3.141   3.568   2.682 -0.1877 -0.6649  0.9269
10278TIP3    H252326   3.022   3.592   2.773 -1.1546  1.8170 -0.8848
10279TIP3   OH252327   6.235   6.809   5.351  0.2285 -0.0391 -0.3134
10279TIP3    H152328   6.294   6.741   5.383 -2.6099 -2.6126 -0.0597
10279TIP3    H252329   6.221   6.867   5.426 -0.8687 -1.9393  1.0358
10280TIP3   OH252330   0.611   3.765  14.283  0.2224  0.2929 -0.2000
10280TIP3    H152331   0.703   3.769  14.309  0.0401  0.6415  0.3950
10280TIP3    H252332   0.563   3.747  14.364 -0.2927  0.7655 -0.3941
10281TIP3   OH252333   0.970   6.626  13.277  0.0735  0.1165 -0.7129
10281TIP3    H152334   0.929   6.706  13.244 -2.4464  0.5690  2.8853
10281TIP3    H252335   1.046   6.657  13.327  0.1065  0.0844 -0.7430
10282TIP3   OH252336   3.292   3.444   2.645  0.1232  0.3225 -0.3399
10282TIP3    H152337   3.337   3.490   2.575  0.0396  1.2871  0.2275
10282TIP3    H252338   3.353   3.445   2.718 -1.5642  3.7630  1.2587
10283TIP3   OH252339   5.423   0.850  16.626  0.4231 -0.3790 -0.0408
10283TIP3    H152340   5.354   0.836  16.691  0.9166 -1.7228  0.2298
10283TIP3    H252341   5.441   0.944  16.630 -0.6934 -0.1733  0.5861
10284TIP3   OH252342   0.489   1.209   5.943 -0.0005 -0.7593 -0.2004
10284TIP3    H152343   0.556   1.227   6.009  0.0352 -0.3112 -0.3540
10284TIP3    H252344   0.430   1.284   5.949  0.3433 -0.3970 -1.0979
10285TIP3   OH252345   3.032   3.673   5.693  0.0204 -0.0063 -0.4027
10285TIP3    H152346   3.125   3.662   5.713 -0.8571 -3.0511  3.3106
10285TIP3    H252347   3.008   3.754   5.737  0.4091 -0.8612  1.5062
10286TIP3   OH252348   1.071   4.803   9.941  0.2187  0.2374  0.2792
10286TIP3    H152349   0.999   4.777   9.883 -0.6634  0.6902  1.1388
10286TIP3    H252350   1.065   4.743  10.016  1.7623 -0.7790 -0.3628
10287TIP3   OH252351   2.138   3.600  16.281 -0.9276  0.2916 -0.3679
10287TIP3    H152352   2.228   3.624  16.261 -1.0959  1.8812  0.5872
10287TIP3    H252353   2.095   3.592  16.196 -0.3744  1.6017 -0.7984
10288TIP3   OH252354   1.574   6.300   3.435  0.2142  0.0588 -0.1810
10288TIP3    H152355   1.574   6.394   3.455 -1.8411 -0.2284  1.5104
10288TIP3    H252356   1.598   6.259   3.518  1.7311 -0.9525 -1.0651
10289TIP3   OH252357   2.544   0.184  13.693 -0.3982  0.3472  0.0865
10289TIP3    H152358   2.569   0.267  13.653 -0.8828  1.4590  1.9971
10289TIP3    H252359   2.452   0.195  13.716  0.1940  0.3594  2.8007
10290TIP3   OH252360   1.454   3.306   5.548 -0.1268  0.1201  0.2941
10290TIP3    H152361   1.547   3.325   5.565  0.3055  0.1839 -1.8250
10290TIP3    H252362   1.439   3.222   5.592  0.7518  0.4116  1.2051
10291TIP3   OH252363   1.136   5.838  10.910  0.5301  0.2977 -0.5511
10291TIP3    H152364   1.112   5.914  10.964  0.4064  0.2360 -0.5174
10291TIP3    H252365   1.230   5.828  10.923  0.1582 -1.1103  1.4672
10292TIP3   OH252366   2.679   5.977  14.032 -0.2102 -0.2935 -0.1705
10292TIP3    H152367   2.772   5.990  14.014 -0.5995  1.0433 -1.3896
10292TIP3    H252368   2.672   5.984  14.127  0.5528  2.6328 -0.2539
10293TIP3   OH252369   2.949   4.204  14.426 -0.3176 -0.0900  0.2012
10293TIP3    H152370   3.027   4.164  14.386 -0.7509 -0.5224 -0.2200
10293TIP3    H252371   2.966   4.201  14.520 -0.4365 -1.4839  0.1900
10294TIP3   OH252372   4.478   3.643  13.106 -0.8678 -0.2360 -0.0102
10294TIP3    H152373   4.516   3.632  13.019  0.4348  1.4625  0.3125
10294TIP3    H252374   4.394   3.597  13.101 -0.5890 -0.6010 -1.9941
10295TIP3   OH252375   1.552   0.124   5.383  0.5344 -0.5545  0.1419
10295TIP3    H152376   1.500   0.045   5.396  0.9733 -0.9446 -0.4475
10295TIP3    H252377   1.643   0.096   5.397  0.7328 -0.2679 -0.5529
10296TIP3   OH252378   1.382   2.534  10.480 -0.0365  0.6674 -0.3752
10296TIP3    H152379   1.390   2.448  10.522 -3.4246 -0.0245 -0.9031
10296TIP3    H252380   1.436   2.526  10.400  0.6090 -0.5386  0.1477
10297TIP3   OH252381   0.477   3.694   4.230 -0.2602 -0.2529  0.2711
10297TIP3    H152382   0.438   3.674   4.315 -1.8204  2.5311  0.3461
10297TIP3    H252383   0.567   3.719   4.250 -0.1522 -1.0817  0.8785
10298TIP3   OH252384   3.307   2.901  12.349  0.2522 -0.0544 -0.5895
10298TIP3    H152385   3.357   2.927  12.272  0.2676 -0.8559 -0.8583
10298TIP3    H252386   3.345   2.817  12.375  0.3789  0.2920  0.4093
10299TIP3   OH252387   0.953   6.756  11.925 -0.4481  0.0630 -0.0819
10299TIP3    H152388   0.947   6.842  11.884  0.0474 -0.7541 -2.0136
10299TIP3    H252389   0.877   6.751  11.983 -0.2158  1.9553  0.4423
10300TIP3   OH252390   1.280   5.085   2.131  0.2106 -0.0801 -0.5845
10300TIP3    H152391   1.264   4.996   2.098  1.7482 -0.2753 -0.9008
10300TIP3    H252392   1.350   5.074   2.195 -1.3876  0.5791  1.3753
10301TIP3   OH252393   2.282   1.452   4.027 -0.3368  0.2447 -0.4503
10301TIP3    H152394   2.323   1.539   4.032 -1.6161  1.0645 -2.7460
10301TIP3    H252395   2.204   1.461   4.082 -0.4283  0.5194 -0.6219
10302TIP3   OH252396   1.139   2.911  11.940 -0.3234  0.4280  0.2212
10302TIP3    H152397   1.089   2.872  12.012 -0.1183  0.2279  0.2551
10302TIP3    H252398   1.104   2.999  11.932 -1.8773 -0.2361 -0.8564
10303TIP3   OH252399   4.840   1.265  15.189  0.0770 -0.4016  0.2966
10303TIP3    H152400   4.765   1.297  15.140 -0.6580 -2.2898  0.1011
10303TIP3    H252401   4.904   1.336  15.185 -0.8961  0.4358 -1.2943
10304TIP3   OH252402   6.119   1.654  16.124 -0.2751 -0.3116 -0.6437
10304TIP3    H152403   6.053   1.656  16.054  0.6241 -0.1827 -1.5162
10304TIP3    H252404   6.069   1.645  16.205 -1.4025  0.5435 -1.2242
10305TIP3   OH252405   3.994   5.989  14.048 -0.2760  0.7237  0.2944
10305TIP3    H152406   3.979   6.082  14.062 -3.1208  0.4635 -0.4360
10305TIP3    H252407   3.979   5.976  13.954  1.6960 -0.2469  0.0678
10306TIP3   OH252408   3.090   2.473  14.718  0.3544  0.2664 -0.5513
10306TIP3    H152409   3.093   2.424  14.637  1.4356  0.0321 -0.3787
10306TIP3    H252410   3.070   2.408  14.785  1.3848  0.1079 -0.3788
10307TIP3   OH252411   2.901   4.816   5.999  0.7050 -0.7547 -0.0425
10307TIP3    H152412   2.847   4.893   5.981  0.8127 -0.3113  1.3392
10307TIP3    H252413   2.984   4.834   5.954 -0.2759 -1.4998 -2.2769
10308TIP3   OH252414   2.672   4.264   1.985 -0.3284  0.7741  0.5971
10308TIP3    H152415   2.759   4.304   1.979 -0.1719  0.4295  0.5337
10308TIP3    H252416   2.681   4.199   2.054 -0.2398  0.0056 -0.1244
10309TIP3   OH252417   2.522   2.981  11.026  0.1396 -0.2403 -0.1596
10309TIP3    H152418   2.566   2.902  10.994 -0.4766 -1.5788  2.0097
10309TIP3    H252419   2.571   3.005  11.105 -0.9591  0.2634  0.3959
10310TIP3   OH252420   0.079   1.624  15.288  0.1402 -0.1183  0.1252
10310TIP3    H152421   0.044   1.713  15.296  0.0157  0.1256 -2.2438
10310TIP3    H252422   0.166   1.636  15.249  0.3434 -1.0008  0.2934
10311TIP3   OH252423   4.652   4.792   6.247 -0.8040  0.2418 -0.1179
10311TIP3    H152424   4.717   4.745   6.195 -1.0454  1.5050 -1.6202
10311TIP3    H252425   4.583   4.727   6.263  0.2117 -0.7401  0.4011
10312TIP3   OH252426   5.332   5.023  16.008  0.2513  0.6579  0.2801
10312TIP3    H152427   5.290   5.020  15.922 -1.0350  1.6971  0.8232
10312TIP3    H252428   5.260   5.015  16.070  1.2097 -0.5806  1.2844
10313TIP3   OH252429   0.040   5.293  13.465 -0.3760 -0.1955 -0.4763
10313TIP3    H152430  -0.008   5.375  13.460 -0.1632  0.0056  0.4652
10313TIP3    H252431  -0.004   5.244  13.535  0.2316 -0.3799 -0.2184
10314TIP3   OH252432   5.548   4.932  10.258  0.0976  0.0897 -0.2554
10314TIP3    H152433   5.460   4.923  10.296  0.4258  1.0273  0.7792
10314TIP3    H252434   5.606   4.901  10.327  0.6193 -0.1896 -0.8084
10315TIP3   OH252435   1.742   0.394   0.190 -0.2067 -0.2864 -0.2856
10315TIP3    H152436   1.730   0.427   0.101 -1.0319  0.2326  0.0127
10315TIP3    H252437   1.822   0.438   0.220  0.8783 -1.5258 -1.2392
10316TIP3   OH252438   0.107   4.917   4.523 -0.1795  0.2822  0.1520
10316TIP3    H152439   0.162   4.992   4.502  0.0478 -0.0060 -0.2924
10316TIP3    H252440   0.024   4.935   4.478  0.2765 -0.2916 -0.9426
10317TIP3   OH252441   6.505   4.497  12.748  0.5201  0.7953 -0.2393
10317TIP3    H152442   6.538   4.517  12.835 -0.3542 -2.0562  0.8374
10317TIP3    H252443   6.450   4.572  12.725 -2.6614 -0.1073  3.5227
10318TIP3   OH252444   0.338   0.875   4.263  0.8337  0.1518 -0.4797
10318TIP3    H152445   0.244   0.883   4.276  0.9158  0.6726 -0.1781
10318TIP3    H252446   0.363   0.796   4.312  0.5518 -0.0111 -0.5966
10319TIP3   OH252447   1.281   0.448  15.734  0.4322  0.5691 -0.0668
10319TIP3    H152448   1.203   0.503  15.741 -1.0636 -1.4138 -0.2829
10319TIP3    H252449   1.274   0.388  15.808  0.0662 -1.6284 -1.7809
10320TIP3   OH252450   2.350   2.940  12.614 -0.4915  0.2156 -0.5452
10320TIP3    H152451   2.436   2.944  12.571  0.2709 -0.6184  0.8437
10320TIP3    H252452   2.339   2.848  12.637 -0.6294  0.6881  1.4779
10321TIP3   OH252453   5.979   3.816  13.875 -0.4476 -0.4294 -0.9584
10321TIP3    H152454   5.923   3.824  13.798  0.6115 -0.4397 -1.7452
10321TIP3    H252455   6.051   3.759  13.847  0.9881  1.1254 -0.5884
10322TIP3   OH252456   5.832   0.718  14.181  0.1275 -0.5501  0.0898
10322TIP3    H152457   5.896   0.749  14.245  0.2925 -1.8220  0.5768
10322TIP3    H252458   5.758   0.689  14.234  0.2964 -1.6885 -0.2634
10323TIP3   OH252459   2.143   4.010  16.299 -0.3949  0.3427 -0.4239
10323TIP3    H152460   2.217   3.957  16.329 -0.1831  0.3318 -0.9544
10323TIP3    H252461   2.181   4.096  16.281 -0.5012  0.3269 -0.7319
10324TIP3   OH252462   4.523   1.522   0.818 -0.3138 -0.6639 -0.6105
10324TIP3    H152463   4.600   1.552   0.770  1.3493 -2.4527  0.7545
10324TIP3    H252464   4.472   1.472   0.753  0.0904 -0.1520 -1.3336
10325TIP3   OH252465   1.509   2.460  15.806 -0.2703 -0.3638  0.2340
10325TIP3    H152466   1.534   2.513  15.731 -1.4756  0.4436  0.3890
10325TIP3    H252467   1.577   2.392  15.810 -0.9201 -1.2757 -2.4105
10326TIP3   OH252468   0.608   3.272   1.448 -0.3138 -0.5084  0.3765
10326TIP3    H152469   0.581   3.234   1.531 -0.9077 -0.0780  0.3867
10326TIP3    H252470   0.573   3.212   1.382  0.5736 -1.1142  0.4348
10327TIP3   OH252471   2.842   5.690  11.865 -0.2282 -0.2287 -0.2229
10327TIP3    H152472   2.901   5.671  11.792 -0.0020  2.3167 -0.7925
10327TIP3    H252473   2.866   5.778  11.893 -1.6279 -0.3919  1.6688
10328TIP3   OH252474   1.305   1.985   1.632 -0.0443  0.2324 -0.4988
10328TIP3    H152475   1.227   1.980   1.688  0.6158  2.0240  0.6808
10328TIP3    H252476   1.333   2.076   1.639  1.7331 -0.1892 -1.5262
10329TIP3   OH252477   5.337   0.572  14.179  0.2239  0.2852 -0.5014
10329TIP3    H152478   5.405   0.538  14.120 -1.3752  0.8114 -2.7668
10329TIP3    H252479   5.291   0.493  14.209  0.0659  0.0903 -1.2303
10330TIP3   OH252480   3.496   2.751   2.442 -0.1581  0.5319 -0.2951
10330TIP3    H152481   3.546   2.673   2.419 -1.8351 -0.5954 -0.2960
10330TIP3    H252482   3.473   2.739   2.534  1.1785  1.9909  0.2811
10331TIP3   OH252483   1.993   0.006   0.374 -0.2233 -0.3535  0.4988
10331TIP3    H152484   1.911   0.045   0.345  0.1975  1.8015  1.8681
10331TIP3    H252485   1.984   0.001   0.470  0.4987 -1.9805  0.5162
10332TIP3   OH252486   4.538   4.877  13.028  0.0907 -0.3003  0.1468
10332TIP3    H152487   4.509   4.785  13.030  0.9282 -0.5821  2.7262
10332TIP3    H252488   4.463   4.926  13.062  0.2544 -0.2147  0.3767
10333TIP3   OH252489   3.708   5.677  10.987  1.3263  0.2292 -0.4145
10333TIP3    H152490   3.715   5.609  11.054 -1.1737  2.0241  1.8919
10333TIP3    H252491   3.641   5.645  10.927  1.0357  0.1262 -0.0367
10334TIP3   OH252492   2.591   6.128   9.776  0.3267 -0.6540  0.4864
10334TIP3    H152493   2.558   6.101   9.691 -2.4647  0.6007  1.0519
10334TIP3    H252494   2.622   6.047   9.817 -1.2631 -1.8161 -0.5042
10335TIP3   OH252495   0.287   4.255  16.467  0.3248  0.0347 -0.3595
10335TIP3    H152496   0.260   4.346  16.457 -0.0712 -0.0480 -0.0585
10335TIP3    H252497   0.383   4.257  16.458  0.2984  0.4444 -0.5802
10336TIP3   OH252498   6.207   2.736  12.363 -0.0478  0.4072 -0.3654
10336TIP3    H152499   6.246   2.651  12.343 -0.6550  0.1650 -0.5321
10336TIP3    H252500   6.279   2.787  12.401  0.8982  0.5451 -2.2022
10337TIP3   OH252501   0.173   4.782  13.836  0.3980 -0.1186 -0.5290
10337TIP3    H152502   0.126   4.813  13.758 -1.6060  1.8719  1.3258
10337TIP3    H252503   0.225   4.857  13.864 -2.3027  0.8508  2.4286
10338TIP3   OH252504   5.250   6.826   4.176  0.1411 -0.1004  0.1586
10338TIP3    H152505   5.308   6.841   4.250 -2.1867  1.5591  1.7945
10338TIP3    H252506   5.276   6.740   4.141  1.6676 -0.6940  2.5578
10339TIP3   OH252507   6.285   0.001  12.867 -0.3700 -0.3226  0.1002
10339TIP3    H152508   6.370  -0.024  12.829 -0.0641 -0.4290  0.8469
10339TIP3    H252509   6.231  -0.078  12.858  0.0554 -0.7167  0.8871
10340TIP3   OH252510   5.099   2.695  16.402 -0.0212 -0.0929  0.1284
10340TIP3    H152511   5.139   2.607  16.405  1.4543  0.5566  1.3277
10340TIP3    H252512   5.046   2.695  16.323  0.3146 -1.9174 -0.1474
10341TIP3   OH252513   3.681   2.646  13.460  0.0737  0.1538  0.2168
10341TIP3    H152514   3.747   2.671  13.395 -0.0764  1.2881  0.4826
10341TIP3    H252515   3.729   2.590  13.522  0.3625 -0.4308 -0.5183
10342TIP3   OH252516   3.980   2.847  15.990 -0.2186 -0.0321 -0.1966
10342TIP3    H152517   3.889   2.818  15.997  0.4047 -2.3214 -0.7061
10342TIP3    H252518   4.008   2.862  16.081 -0.7281 -0.5628  0.0493
10343TIP3   OH252519   2.686   0.155  13.346  0.5739  0.3015 -0.0913
10343TIP3    H152520   2.666   0.202  13.428 -0.5219 -0.4377  0.0928
10343TIP3    H252521   2.769   0.193  13.316  1.6802 -0.2985  2.0258
10344TIP3   OH252522   1.214   1.873   3.485  0.2561 -0.0315  0.2187
10344TIP3    H152523   1.210   1.788   3.441  0.7974 -0.7325  1.4541
10344TIP3    H252524   1.176   1.857   3.572  1.0801  0.7878  0.7497
10345TIP3   OH252525   1.984   1.530  11.085  0.1909  0.3580  1.1925
10345TIP3    H152526   2.021   1.487  11.007 -0.8515 -0.4896  1.1463
10345TIP3    H252527   2.050   1.517  11.153  2.0439  2.8100  0.0196
10346TIP3   OH252528   2.148   4.813  13.434  0.0828 -0.5016  0.1187
10346TIP3    H152529   2.220   4.818  13.496  0.7074  1.1992 -0.6827
10346TIP3    H252530   2.184   4.849  13.353 -1.6405  0.3253 -0.3236
10347TIP3   OH252531   3.285   5.298  11.654 -0.3285 -0.0342  0.0613
10347TIP3    H152532   3.208   5.244  11.669 -0.0187 -0.9128 -1.3445
10347TIP3    H252533   3.302   5.340  11.738 -0.0091 -2.8466  1.5099
10348TIP3   OH252534   4.221   5.869  13.663  0.3224 -0.2561 -0.1002
10348TIP3    H152535   4.205   5.961  13.644 -1.2548 -0.6639 -0.9013
10348TIP3    H252536   4.308   5.852  13.629  0.5067  0.8609 -0.2160
10349TIP3   OH252537   3.348   5.974  11.347  0.4891  0.1270 -0.0998
10349TIP3    H152538   3.339   5.898  11.404 -1.4442  1.0784  0.9690
10349TIP3    H252539   3.264   5.980  11.301  1.3347  0.4933 -1.6418
10350TIP3   OH252540   0.064   3.314   5.005 -0.5541 -0.5566 -0.1318
10350TIP3    H152541   0.069   3.324   5.100  0.3355 -1.3937 -0.0767
10350TIP3    H252542   0.101   3.228   4.988  1.1707  0.3867 -1.4178
10351TIP3   OH252543   1.220   5.201  14.377 -0.0991 -0.0030 -0.0597
10351TIP3    H152544   1.279   5.129  14.396  0.6996  0.5657 -0.3114
10351TIP3    H252545   1.266   5.253  14.310 -0.4529  0.9685  0.4217
10352TIP3   OH252546   6.144   6.472   5.353  0.3461 -0.0713 -0.1645
10352TIP3    H152547   6.178   6.439   5.270  0.3916  1.8523 -0.9639
10352TIP3    H252548   6.201   6.545   5.375 -1.1727  1.0464  0.2530
10353TIP3   OH252549   2.278   4.018  10.623 -0.0964 -0.0046 -0.9149
10353TIP3    H152550   2.251   3.943  10.570  0.1171  0.8205 -2.2069
10353TIP3    H252551   2.197   4.065  10.642 -0.5932 -1.7505  1.8851
10354TIP3   OH252552   1.397   0.805   5.044  0.1670  0.0961  0.7296
10354TIP3    H152553   1.423   0.749   4.971 -0.8322  1.1046 -0.4547
10354TIP3    H252554   1.343   0.749   5.100  0.7531 -0.6310  0.5729
10355TIP3   OH252555   1.245   6.029   4.353  0.1605 -0.1456  0.1363
10355TIP3    H152556   1.192   6.007   4.429 -0.9618 -1.0007 -0.8633
10355TIP3    H252557   1.309   6.092   4.386 -0.9254  0.2577  1.5699
10356TIP3   OH252558   5.594   4.368  10.657 -0.3241  0.0091  0.8081
10356TIP3    H152559   5.640   4.451  10.645 -0.1677 -0.0414  1.0577
10356TIP3    H252560   5.654   4.302  10.623 -0.5920  0.0278  0.2857
10357TIP3   OH252561   6.404   4.002  15.654 -0.3961  0.1650 -0.0105
10357TIP3    H152562   6.491   3.988  15.616  0.4701 -0.1579  1.9654
10357TIP3    H252563   6.409   4.090  15.692 -1.7674  1.1181 -1.9010
10358TIP3   OH252564   0.380   0.109  13.310  0.8407  0.3315 -0.0245
10358TIP3    H152565   0.327   0.189  13.314 -1.5734 -1.1707 -0.4715
10358TIP3    H252566   0.433   0.121  13.230  0.4295  1.4201 -0.1579
10359TIP3   OH252567   6.365   5.666  15.135  0.0333  0.4285 -0.1894
10359TIP3    H152568   6.337   5.610  15.062  0.4863  0.9148 -0.7486
10359TIP3    H252569   6.326   5.626  15.213 -2.1522  1.0154 -0.9057
10360TIP3   OH252570   3.415   6.223  16.322  0.0380 -0.7072 -0.7878
10360TIP3    H152571   3.474   6.284  16.277 -1.0743  0.3109 -0.9207
10360TIP3    H252572   3.444   6.137  16.294  1.2399 -0.2201 -1.1250
10361TIP3   OH252573   3.340   6.797   0.117 -0.2397  0.1025 -0.3959
10361TIP3    H152574   3.432   6.818   0.100 -0.5600  1.4653 -0.5897
10361TIP3    H252575   3.318   6.730   0.052  0.8173 -0.8249  0.1701
10362TIP3   OH252576   0.463   0.181  11.863  0.4305  0.2116 -0.4905
10362TIP3    H152577   0.476   0.161  11.956  0.3455  1.4909 -0.1850
10362TIP3    H252578   0.458   0.096  11.821 -0.1159 -0.4091  0.7628
10363TIP3   OH252579   4.632   0.524  14.326  0.7163 -0.3844 -0.4903
10363TIP3    H152580   4.576   0.556  14.255 -0.5167  0.1703  0.7078
10363TIP3    H252581   4.646   0.600  14.382  3.2789 -0.3156 -1.0884
10364TIP3   OH252582   0.866   0.482   2.999 -0.3544 -0.4988  0.3887
10364TIP3    H152583   0.863   0.387   2.985 -1.3929 -0.5347  0.7655
10364TIP3    H252584   0.788   0.515   2.954 -0.4966  0.0714  1.0343
10365TIP3   OH252585   4.322   1.248  16.173 -0.0790  0.0338  0.1987
10365TIP3    H152586   4.365   1.168  16.202 -1.8851 -0.9573  0.2742
10365TIP3    H252587   4.393   1.310  16.159  1.4317 -1.8393 -0.6986
10366TIP3   OH252588   2.631   1.963  13.866 -0.0669 -0.5152 -0.2779
10366TIP3    H152589   2.554   1.979  13.811 -0.1914 -0.9641 -0.2449
10366TIP3    H252590   2.630   1.868  13.881 -0.6472 -0.2845  1.3802
10367TIP3   OH252591   3.769   5.857   3.470  0.4810 -0.8483  0.5310
10367TIP3    H152592   3.678   5.839   3.494  0.3899 -1.1453  0.0008
10367TIP3    H252593   3.766   5.867   3.374  1.0677 -1.2767  0.4626
10368TIP3   OH252594   3.134   3.270  13.919 -0.1711  0.5660 -0.0389
10368TIP3    H152595   3.117   3.180  13.946 -2.3100  0.5882 -1.0445
10368TIP3    H252596   3.170   3.262  13.831  2.3683  0.6520  0.9236
10369TIP3   OH252597   0.218   0.765   0.981  0.0777  0.3285 -1.0586
10369TIP3    H152598   0.280   0.771   0.909  2.4543 -0.4125  0.7970
10369TIP3    H252599   0.139   0.729   0.942  1.8659 -1.8066 -2.9904
10370TIP3   OH252600   0.608   1.394  12.476  0.5777  0.4442  0.5168
10370TIP3    H152601   0.668   1.468  12.487  0.9266 -0.0010  1.7479
10370TIP3    H252602   0.649   1.323  12.524 -0.1264 -0.3439 -0.0272
10371TIP3   OH252603   0.074   2.667   5.654 -0.2978  0.2656 -0.3435
10371TIP3    H152604   0.087   2.756   5.622  0.8249  1.1487  2.2310
10371TIP3    H252605   0.135   2.660   5.728 -1.0409 -2.3248  0.1178
10372TIP3   OH252606   6.484   4.159  10.364  0.4422 -0.4153 -0.1869
10372TIP3    H152607   6.553   4.158  10.297 -0.2927  0.3944 -0.9828
10372TIP3    H252608   6.406   4.127  10.318 -0.0010 -0.1347  0.3621
10373TIP3   OH252609   4.493   0.307   5.593 -0.5143 -0.0368 -0.1804
10373TIP3    H152610   4.485   0.377   5.658 -1.3326  0.7464 -1.1064
10373TIP3    H252611   4.585   0.280   5.600 -0.9335 -1.1187  2.4230
10374TIP3   OH252612   6.502   0.245  13.430 -0.6288 -0.1183 -0.4215
10374TIP3    H152613   6.594   0.268  13.420 -0.5379 -0.2767  0.0200
10374TIP3    H252614   6.460   0.277  13.350 -0.4085  1.1040 -0.0715
10375TIP3   OH252615   6.164   2.261  13.859  0.4796  0.1568 -0.4292
10375TIP3    H152616   6.192   2.170  13.845 -0.1522 -0.0050 -0.6973
10375TIP3    H252617   6.120   2.259  13.944 -0.8267 -0.1178 -1.0796
10376TIP3   OH252618   0.539   1.844  16.870 -0.6171  0.2951 -0.3881
10376TIP3    H152619   0.559   1.759  16.909 -1.4871 -0.3649 -1.3350
10376TIP3    H252620   0.510   1.898  16.943  2.6326  0.7298  0.7602
10377TIP3   OH252621   4.374   5.478   5.640 -0.3306 -0.1144 -0.2112
10377TIP3    H152622   4.316   5.543   5.680  1.4981  1.0904  0.6317
10377TIP3    H252623   4.449   5.529   5.609  0.1518 -1.5742 -1.5584
10378TIP3   OH252624   3.677   0.957   0.188  0.0406  0.0794 -0.4486
10378TIP3    H152625   3.702   0.875   0.231 -0.1813 -0.1526 -0.7603
10378TIP3    H252626   3.594   0.937   0.144  0.4001  0.2447 -1.2092
10379TIP3   OH252627   5.378   6.719  15.750  0.2048  0.2343  0.3469
10379TIP3    H152628   5.463   6.733  15.791  2.2200 -1.9978 -2.6132
10379TIP3    H252629   5.336   6.653  15.806  2.1634 -1.5400 -0.1290
10380TIP3   OH252630   3.162   5.116   6.108 -0.2740 -0.0070 -0.1739
10380TIP3    H152631   3.225   5.053   6.071  0.9932  1.6351 -0.9353
10380TIP3    H252632   3.091   5.118   6.044 -1.0569 -1.7189  0.5835
10381TIP3   OH252633   2.801   4.256  14.091  0.4920  0.1707 -0.1932
10381TIP3    H152634   2.792   4.314  14.166  3.2560  1.2821 -0.6179
10381TIP3    H252635   2.808   4.315  14.016 -1.0855 -0.8889 -1.2441
10382TIP3   OH252636   2.103   3.698   1.717 -0.1249 -0.1744  0.0118
10382TIP3    H152637   2.041   3.751   1.767 -0.7076 -0.1861 -0.6792
10382TIP3    H252638   2.189   3.732   1.742 -0.3788 -0.3987  1.2618
10383TIP3   OH252639   2.521   6.602   2.044  0.2037 -0.2326 -0.0849
10383TIP3    H152640   2.576   6.681   2.035 -0.1667 -0.0707 -1.0630
10383TIP3    H252641   2.581   6.530   2.025 -0.2762  0.0337 -3.1711
10384TIP3   OH252642   6.647   2.181  16.082 -0.8669 -0.3869  1.1150
10384TIP3    H152643   6.595   2.167  16.003 -0.8509 -0.5418  1.1323
10384TIP3    H252644   6.737   2.190  16.051 -0.5465 -2.4820  1.2726
10385TIP3   OH252645   5.616   5.947   3.777  0.1356  0.1201 -0.1109
10385TIP3    H152646   5.571   6.024   3.741  1.1152  0.5617 -0.4343
10385TIP3    H252647   5.709   5.970   3.774  0.3285 -0.3065  1.6355
10386TIP3   OH252648   0.709   1.974   1.621  0.1630  0.1277  0.0596
10386TIP3    H152649   0.703   2.069   1.629 -3.8278  0.2143 -1.4443
10386TIP3    H252650   0.702   1.957   1.527 -1.3318 -1.6534  0.4325
10387TIP3   OH252651   0.608   1.487  14.429 -0.0751 -0.2136  0.2220
10387TIP3    H152652   0.530   1.437  14.452  0.1773 -0.7652 -0.0884
10387TIP3    H252653   0.598   1.570  14.474 -0.1997 -0.7855  1.2864
10388TIP3   OH252654   2.069   3.715   5.239 -0.0616 -0.2159 -0.4123
10388TIP3    H152655   2.095   3.623   5.232 -2.1020 -0.8041 -0.8877
10388TIP3    H252656   2.041   3.726   5.329  2.0291  0.5347  0.2238
10389TIP3   OH252657   4.947   0.223   2.768  0.0311 -0.5139  0.2178
10389TIP3    H152658   4.980   0.236   2.680  0.0543 -0.4203  0.2404
10389TIP3    H252659   4.978   0.299   2.818  0.5268 -0.8707  0.4558
10390TIP3   OH252660   6.084   5.090   2.474  0.0465  0.0527  1.1632
10390TIP3    H152661   6.074   5.168   2.528  0.6573  0.5120  0.6265
10390TIP3    H252662   6.081   5.121   2.384  0.8558 -0.4482  0.9449
10391TIP3   OH252663   6.873   3.857  12.571 -0.3820 -0.0280  0.0721
10391TIP3    H152664   6.864   3.950  12.549  1.1454 -0.0391 -0.7815
10391TIP3    H252665   6.798   3.815  12.529 -0.1650  0.6112 -0.9970
10392TIP3   OH252666   3.464   3.005  12.139 -0.4932 -0.0843 -0.7314
10392TIP3    H152667   3.436   3.092  12.168 -0.2881 -0.4421  0.6029
10392TIP3    H252668   3.454   3.007  12.044 -1.2906  1.1138 -0.6435
10393TIP3   OH252669   3.334   3.515   1.246 -0.3814  0.0457 -0.3028
10393TIP3    H152670   3.372   3.488   1.329  1.2069 -0.1647 -1.0552
10393TIP3    H252671   3.287   3.596   1.265  1.9319  1.3193  0.3962
10394TIP3   OH252672   0.519   3.982   1.634 -0.1055  0.0538  0.5446
10394TIP3    H152673   0.435   4.028   1.639 -1.0259 -1.6503  2.6233
10394TIP3    H252674   0.507   3.917   1.564 -0.8085 -0.6253  1.2693
10395TIP3   OH252675   1.238   1.712  13.010 -0.3036 -0.1871  0.3915
10395TIP3    H152676   1.179   1.661  13.066 -0.1997 -0.0567  0.6165
10395TIP3    H252677   1.198   1.799  13.006 -0.2231 -0.1503  0.3936
10396TIP3   OH252678   0.324   6.757   3.626 -0.3224 -0.0204  0.4181
10396TIP3    H152679   0.403   6.800   3.592  0.7067 -1.5459  0.7782
10396TIP3    H252680   0.350   6.666   3.636 -2.8574 -1.1240 -1.7826
10397TIP3   OH252681   1.855   1.828  13.432  0.2058 -0.0823  0.0820
10397TIP3    H152682   1.807   1.767  13.376 -1.3873  2.4262 -1.4425
10397TIP3    H252683   1.934   1.779  13.456 -0.8877 -2.6807 -1.1257
10398TIP3   OH252684   3.363   2.339   5.727 -0.6092 -0.0040  0.2130
10398TIP3    H152685   3.353   2.262   5.672 -0.0435 -0.5945  0.9131
10398TIP3    H252686   3.286   2.337   5.784 -1.2163  0.6303 -0.5592
10399TIP3   OH252687   0.858   0.911  15.466 -0.0845  0.1949  0.0180
10399TIP3    H152688   0.850   0.867  15.381 -1.5536  0.0929  0.1821
10399TIP3    H252689   0.951   0.932  15.473  0.2332 -0.6678 -1.1776
10400TIP3   OH252690   2.055   0.002  11.405  0.0263 -0.1321  0.5576
10400TIP3    H152691   2.032   0.095  11.397  2.2926  0.3435 -1.5694
10400TIP3    H252692   2.109  -0.003  11.484  1.7534  0.8324 -0.5187
10401TIP3   OH252693   6.514   5.007  15.178 -0.4293 -0.1493  0.7067
10401TIP3    H152694   6.509   4.947  15.252 -1.1178  0.7109  1.3897
10401TIP3    H252695   6.604   5.037  15.177 -0.5894  0.4280  1.7074
10402TIP3   OH252696   2.662   6.559  11.773  0.3809  0.7825  0.4770
10402TIP3    H152697   2.718   6.482  11.783 -0.6528  0.3267  3.6504
10402TIP3    H252698   2.690   6.618  11.843 -1.1055  1.8376  0.2219
10403TIP3   OH252699   4.374   0.701  16.629  0.0132  0.3503 -0.1075
10403TIP3    H152700   4.344   0.656  16.550 -0.8821  1.2223 -0.2901
10403TIP3    H252701   4.434   0.768  16.597  0.4861  0.0153  0.0633
10404TIP3   OH252702   2.529   1.543  10.795  0.3384 -0.1780 -0.0425
10404TIP3    H152703   2.623   1.524  10.789  0.1583 -1.8652  1.5241
10404TIP3    H252704   2.524   1.626  10.841  1.0547  0.4607 -1.0680
10405TIP3   OH252705   1.835   1.300   0.517  0.3383  0.7275 -0.2941
10405TIP3    H152706   1.874   1.325   0.434  0.4459  0.8513 -0.2068
10405TIP3    H252707   1.854   1.373   0.576 -1.0141  1.3122 -0.5582
10406TIP3   OH252708   3.840   1.731  12.310  0.3962 -0.2766  1.1352
10406TIP3    H152709   3.917   1.690  12.350  0.6569  0.0244  0.9461
10406TIP3    H252710   3.795   1.659  12.267  1.6421 -0.1607 -0.4655
10407TIP3   OH252711   4.259   3.054  14.400  0.1208  0.0936 -0.0952
10407TIP3    H152712   4.185   3.047  14.461  1.0719  0.5199  1.1643
10407TIP3    H252713   4.272   3.148  14.389 -0.7107  0.0306 -1.8477
10408TIP3   OH252714   3.411   1.447  13.036  0.0999 -0.1636 -0.0244
10408TIP3    H152715   3.405   1.389  13.112 -1.1592  0.3941  0.3406
10408TIP3    H252716   3.363   1.401  12.967  0.6222 -0.3448 -0.2704
10409TIP3   OH252717   5.375   6.310   0.479  0.7454 -0.5213 -0.5686
10409TIP3    H152718   5.409   6.357   0.403  0.6088 -1.4474 -1.2281
10409TIP3    H252719   5.339   6.229   0.443 -0.2337 -0.5338  0.3702
10410TIP3   OH252720   4.221   5.175  10.570 -0.0547  0.1721  0.5867
10410TIP3    H152721   4.316   5.163  10.561 -0.1073 -0.2468  0.5508
10410TIP3    H252722   4.197   5.228  10.494  0.0705 -0.2018  0.2784
10411TIP3   OH252723   1.022   4.805  16.793 -0.5426 -0.3535  0.3226
10411TIP3    H152724   0.963   4.734  16.766  1.1783 -1.6033 -0.3416
10411TIP3    H252725   1.078   4.819  16.717 -0.6023  1.4919  0.5859
10412TIP3   OH252726   6.615   4.137  10.731  0.2686 -0.4516  0.7411
10412TIP3    H152727   6.597   4.210  10.673 -2.5420 -1.3692  0.2907
10412TIP3    H252728   6.627   4.062  10.673 -1.2444 -1.1235  1.2300
10413TIP3   OH252729   0.713   3.972   5.438  0.5316  0.0846  0.3992
10413TIP3    H152730   0.765   3.898   5.405 -0.1783 -1.1376  1.9104
10413TIP3    H252731   0.768   4.012   5.505 -0.1489 -0.7618  1.4851
10414TIP3   OH252732   3.921   5.497  12.800  0.6624 -0.0665  0.2837
10414TIP3    H152733   3.967   5.441  12.863 -1.2527 -0.9123  0.9949
10414TIP3    H252734   3.923   5.448  12.718  0.6472 -0.2966  0.4206
10415TIP3   OH252735   4.446   4.131  11.877  0.2162  0.0698 -0.9113
10415TIP3    H152736   4.422   4.095  11.962  2.3195 -1.5525 -0.9234
10415TIP3    H252737   4.411   4.220  11.878 -0.3218 -0.0993  1.4013
10416TIP3   OH252738   5.752   0.084  14.913  0.4663  0.5596  0.4655
10416TIP3    H152739   5.816   0.155  14.918  1.1099  0.1296 -1.0596
10416TIP3    H252740   5.693   0.109  14.842  0.3507 -0.1507  0.3053
10417TIP3   OH252741   4.362   2.145   5.495  0.1400 -0.1920 -0.1884
10417TIP3    H152742   4.408   2.186   5.421 -1.4956 -0.2375 -1.2844
10417TIP3    H252743   4.374   2.051   5.482 -1.2062 -0.2584 -1.1680
10418TIP3   OH252744   6.804   5.584   3.580  0.6236 -0.0736  0.5289
10418TIP3    H152745   6.822   5.497   3.544 -0.4586 -0.2757  0.4506
10418TIP3    H252746   6.765   5.632   3.507 -2.4301 -0.7637  1.5821
10419TIP3   OH252747   0.366   3.792  11.165  0.0504 -0.1870 -0.3495
10419TIP3    H152748   0.351   3.726  11.234 -0.9762  0.9684  0.5782
10419TIP3    H252749   0.457   3.819  11.177  1.0747 -2.5887 -1.8363
10420TIP3   OH252750   1.043   0.153   1.266 -0.2920 -0.1914 -0.0841
10420TIP3    H152751   1.018   0.244   1.251  0.2002  0.1976  1.2811
10420TIP3    H252752   0.971   0.116   1.317  0.9679  0.4243  2.2880
10421TIP3   OH252753   4.849   3.319  15.157 -0.3984  0.4371  1.0302
10421TIP3    H152754   4.814   3.263  15.227  0.8571 -1.4089  0.2393
10421TIP3    H252755   4.797   3.296  15.080  1.6379 -1.5005  0.1216
10422TIP3   OH252756   6.496   2.255   2.898  0.1942  0.9112  0.4906
10422TIP3    H152757   6.499   2.280   2.805  0.7944 -0.6377  0.0541
10422TIP3    H252758   6.449   2.326   2.941 -0.0429  1.6898 -0.9948
10423TIP3   OH252759   3.081   0.485  11.010  0.0259 -0.5982 -0.2240
10423TIP3    H152760   3.148   0.478  11.077  1.1009  0.4601 -1.1471
10423TIP3    H252761   3.038   0.399  11.010  0.3275 -0.7836  1.4430
10424TIP3   OH252762   0.780   4.295  10.200  0.3050 -0.4476  0.2827
10424TIP3    H152763   0.840   4.251  10.141  0.0692 -0.5504  0.1170
10424TIP3    H252764   0.832   4.366  10.239  0.4667 -0.3923 -0.0308
10425TIP3   OH252765   3.528   3.686   5.305  0.1964  0.0871 -0.2485
10425TIP3    H152766   3.438   3.692   5.273  0.8114  2.6025 -1.7681
10425TIP3    H252767   3.521   3.700   5.399 -1.0614 -0.6038 -0.2145
10426TIP3   OH252768   1.722   1.113  16.050  0.7099  0.4891  0.5000
10426TIP3    H152769   1.731   1.205  16.077  1.7398  0.1360  1.4142
10426TIP3    H252770   1.770   1.109  15.967  0.5770  0.8005  0.4054
10427TIP3   OH252771   4.422   2.531  16.168 -0.1972 -0.5372 -0.3616
10427TIP3    H152772   4.415   2.528  16.263 -1.2622 -3.0720 -0.4601
10427TIP3    H252773   4.375   2.611  16.143 -1.1008 -0.5661  1.1407
10428TIP3   OH252774   5.779   2.885  14.960  0.0789 -0.5730 -0.2518
10428TIP3    H152775   5.720   2.847  14.895  0.2416  0.6902 -1.1698
10428TIP3    H252776   5.866   2.874  14.923  0.1770  0.1051 -0.2311
10429TIP3   OH252777   4.893   0.150  13.819 -0.2715 -0.0243  0.4900
10429TIP3    H152778   4.894   0.113  13.907  2.0263 -0.8996  0.1784
10429TIP3    H252779   4.802   0.143  13.791 -0.5772 -2.3651  1.7667
10430TIP3   OH252780   1.591   4.618  12.511 -0.3876 -0.6468 -0.3687
10430TIP3    H152781   1.538   4.574  12.443 -2.2467  0.2198  0.4520
10430TIP3    H252782   1.643   4.682  12.463 -2.1949  0.4465 -0.9718
10431TIP3   OH252783   0.614   0.191  13.708 -0.1455 -0.6345  0.3906
10431TIP3    H152784   0.631   0.193  13.802  0.6752  2.5439  0.2959
10431TIP3    H252785   0.638   0.278  13.677 -1.0147 -1.3434 -2.6928
10432TIP3   OH252786   0.415   6.030  11.155 -0.2488  0.1168 -0.2644
10432TIP3    H152787   0.441   6.122  11.152 -0.1304  0.1021  0.2785
10432TIP3    H252788   0.446   5.994  11.072 -0.2242  0.5463 -0.4452
10433TIP3   OH252789   3.319   2.659   5.765 -0.0438  0.1999  0.4670
10433TIP3    H152790   3.386   2.590   5.756 -0.5588 -0.2409 -0.0850
10433TIP3    H252791   3.256   2.623   5.828  0.5747  0.8944  1.5020
10434TIP3   OH252792   2.098   5.514  10.935  0.2560 -0.1859  0.0143
10434TIP3    H152793   2.026   5.546  10.990  0.3385 -0.2442  0.1565
10434TIP3    H252794   2.090   5.419  10.938  1.1696 -0.2499  1.1575
10435TIP3   OH252795   6.027   4.532  16.027 -0.1620 -0.2169 -0.4920
10435TIP3    H152796   5.937   4.543  15.997  0.2006  0.5159 -1.3694
10435TIP3    H252797   6.064   4.464  15.969  0.1123  0.1422 -0.7414
10436TIP3   OH252798   4.467   5.853   1.050 -0.0534  0.3718  0.1943
10436TIP3    H152799   4.446   5.941   1.082 -0.4398 -0.1198  1.3607
10436TIP3    H252800   4.407   5.795   1.097  1.3721 -0.6876  0.7841
10437TIP3   OH252801   2.893   4.127   0.650 -0.1482  0.0867  0.2769
10437TIP3    H152802   2.887   4.032   0.648  0.7379  0.0261  0.0815
10437TIP3    H252803   2.822   4.155   0.708 -1.3200 -0.5997 -0.7688
10438TIP3   OH252804   1.521   2.888  14.159  0.2908  0.2329  0.6128
10438TIP3    H152805   1.520   2.939  14.078  2.2833 -1.2992 -0.4800
10438TIP3    H252806   1.451   2.824  14.148 -0.1818  0.7410  0.6216
10439TIP3   OH252807   4.391   3.915   1.677 -0.3528 -0.7349  0.3916
10439TIP3    H152808   4.471   3.914   1.729  0.0222  2.2480  0.0595
10439TIP3    H252809   4.422   3.918   1.586 -0.8771 -1.0993  0.2012
10440TIP3   OH252810   3.291   3.065   3.493  0.2723 -0.0371 -0.2041
10440TIP3    H152811   3.355   3.063   3.565 -0.8341  0.6916  0.8456
10440TIP3    H252812   3.333   3.015   3.423  1.1768 -1.2723  1.1349
10441TIP3   OH252813   5.749   2.797   0.439 -0.0899 -0.7288 -0.8706
10441TIP3    H152814   5.817   2.752   0.489 -1.2518 -0.5719  0.9514
10441TIP3    H252815   5.796   2.867   0.393  0.8098  0.6816  1.9246
10442TIP3   OH252816   4.423   5.548  12.849  0.4201  0.0171 -0.9517
10442TIP3    H152817   4.506   5.541  12.896 -0.3649  0.1726  0.5248
10442TIP3    H252818   4.360   5.501  12.904 -0.4549 -0.2155 -2.1077
10443TIP3   OH252819   1.778   5.278   2.142 -0.0973 -0.1000  0.2812
10443TIP3    H152820   1.694   5.258   2.101 -0.5922  0.8973  0.7706
10443TIP3    H252821   1.771   5.370   2.168  0.3684 -0.5377  2.1450
10444TIP3   OH252822   3.306   0.836  16.167 -0.4675 -0.1614 -0.6696
10444TIP3    H152823   3.332   0.744  16.159  0.4801 -0.0372  0.6518
10444TIP3    H252824   3.262   0.841  16.252 -1.1485  0.4784 -1.0482
10445TIP3   OH252825   4.760   6.246  13.946 -0.7708  0.6507 -0.3672
10445TIP3    H152826   4.820   6.181  13.909  0.0724  1.7706 -1.0604
10445TIP3    H252827   4.690   6.195  13.986 -0.0024 -0.6772 -0.6564
10446TIP3   OH252828   0.423   1.738  14.037  0.2728 -0.1953 -0.0359
10446TIP3    H152829   0.348   1.687  14.006  0.5797  0.6472 -2.3380
10446TIP3    H252830   0.443   1.797  13.965  1.5161  1.4426  1.5727
10447TIP3   OH252831   0.961   0.421   4.394 -0.7108  0.3421 -0.1436
10447TIP3    H152832   1.042   0.447   4.349 -0.4362  0.0792  0.1913
10447TIP3    H252833   0.936   0.339   4.350 -0.6788  0.3136 -0.1093
10448TIP3   OH252834   3.413   2.134  16.586 -0.0871  0.2876 -0.2067
10448TIP3    H152835   3.324   2.146  16.553 -0.6645 -1.5298  0.6069
10448TIP3    H252836   3.466   2.122  16.507 -0.5523  1.2792 -0.6877
10449TIP3   OH252837   1.802   3.519  16.530  0.0958  0.2186 -1.0541
10449TIP3    H152838   1.708   3.505  16.543  0.0914  1.8617  1.3674
10449TIP3    H252839   1.813   3.614  16.536  1.8998  0.0701 -1.4849
10450TIP3   OH252840   1.415   3.231   3.050 -0.0223  0.3818 -0.0455
10450TIP3    H152841   1.377   3.164   3.108 -0.5279  1.5188  0.9857
10450TIP3    H252842   1.489   3.266   3.099  0.8001 -0.0321 -0.9657
10451TIP3   OH252843   5.170   2.931  12.304 -0.5550  0.3625 -0.0601
10451TIP3    H152844   5.218   2.988  12.243 -1.7532  0.0396 -1.3563
10451TIP3    H252845   5.122   2.871  12.248 -2.2621  0.4958  1.1706
10452TIP3   OH252846   4.551   2.175   4.234  0.0403  0.5434 -0.0500
10452TIP3    H152847   4.484   2.239   4.211 -1.0564 -0.1295  1.1197
10452TIP3    H252848   4.518   2.135   4.315  2.3012  0.8544  1.1173
10453TIP3   OH252849   5.488   3.978  12.634 -0.0703 -0.8444 -0.7022
10453TIP3    H152850   5.537   4.012  12.560 -2.9556 -0.3953 -2.5699
10453TIP3    H252851   5.478   3.884  12.616  2.4381 -1.5973  1.1957
10454TIP3   OH252852   1.667   0.359  15.684  0.6743 -0.4330  0.1330
10454TIP3    H152853   1.761   0.363  15.665  0.8277  1.1899  1.0248
10454TIP3    H252854   1.635   0.446  15.661 -0.5863 -0.9272 -0.0106
10455TIP3   OH252855   1.295   5.428  15.595 -0.1931  0.1812  0.4738
10455TIP3    H152856   1.386   5.424  15.565 -0.4029 -0.5943 -0.0856
10455TIP3    H252857   1.280   5.344  15.638 -0.3338  0.7208  1.5061
10456TIP3   OH252858   4.983   3.469   3.079  0.3850 -0.3576 -0.1206
10456TIP3    H152859   4.888   3.474   3.083  0.4760  1.5969  0.8450
10456TIP3    H252860   5.009   3.545   3.026  1.4285 -0.5369  0.1060
10457TIP3   OH252861   6.250   3.988  12.055 -0.4151  0.3160  0.4171
10457TIP3    H152862   6.186   3.917  12.051  0.4793 -0.7731  3.1303
10457TIP3    H252863   6.333   3.945  12.073  0.9299  1.8020 -1.8317
10458TIP3   OH252864   3.649   1.331  11.560  0.0812  0.1300  0.0871
10458TIP3    H152865   3.613   1.284  11.485  1.6223 -1.8390  0.4856
10458TIP3    H252866   3.621   1.279  11.636  0.8762  0.4887  0.6358
10459TIP3   OH252867   2.987   4.952   2.944 -0.4716 -0.2833  0.0205
10459TIP3    H152868   3.006   4.884   2.879  0.6495 -0.1078  0.1383
10459TIP3    H252869   3.012   4.913   3.028 -1.1989 -0.2329  0.2709
10460TIP3   OH252870   6.608   4.532   1.197  0.3994 -0.4553  0.3974
10460TIP3    H152871   6.606   4.436   1.195  1.1554 -0.4630 -0.4037
10460TIP3    H252872   6.526   4.556   1.241 -1.0051 -1.4088 -1.5115
10461TIP3   OH252873   4.727   6.592   0.799  0.0493  0.2635  0.3339
10461TIP3    H152874   4.646   6.607   0.848  0.1826  0.1202  0.6014
10461TIP3    H252875   4.791   6.651   0.840 -0.3585  1.7408 -1.0452
10462TIP3   OH252876   0.257   5.328  15.872 -0.4668  0.1846 -0.2848
10462TIP3    H152877   0.326   5.340  15.937 -0.8031  1.1098 -0.0792
10462TIP3    H252878   0.231   5.237  15.881 -0.3992  0.2545  0.7863
10463TIP3   OH252879   5.522   2.994   2.012 -0.4531 -0.5075 -0.1940
10463TIP3    H152880   5.610   3.011   1.977 -1.2587  3.3475 -0.8751
10463TIP3    H252881   5.537   2.947   2.094  2.3488  0.7345  0.1310
10464TIP3   OH252882   6.590   0.609  11.213 -0.1386  0.2815  0.2176
10464TIP3    H152883   6.593   0.682  11.151 -1.3473  0.5463  0.4510
10464TIP3    H252884   6.664   0.624  11.272  1.4325 -0.3045 -1.4755
10465TIP3   OH252885   3.829   6.508  15.406 -0.1497 -0.6782  0.2596
10465TIP3    H152886   3.868   6.591  15.435 -2.3968  1.0092 -1.1365
10465TIP3    H252887   3.790   6.471  15.485  0.1288  0.0525  0.7562
10466TIP3   OH252888   2.125   4.568   0.598 -0.1521 -0.1300  0.0449
10466TIP3    H152889   2.037   4.544   0.566  0.5043 -1.2783 -1.0066
10466TIP3    H252890   2.144   4.502   0.664 -0.3223  0.5033  0.7357
10467TIP3   OH252891   1.092   0.262   0.342 -0.4437  0.2406 -0.2899
10467TIP3    H152892   1.155   0.204   0.300  1.2422  0.2963  2.0016
10467TIP3    H252893   1.136   0.293   0.421 -2.0464  3.0454 -0.3507
10468TIP3   OH252894   1.287   1.835   5.787 -0.2485  0.3150 -0.3583
10468TIP3    H152895   1.372   1.834   5.830 -0.2766 -0.8802 -0.2950
10468TIP3    H252896   1.229   1.879   5.850 -0.4067 -1.8608  1.1433
10469TIP3   OH252897   2.726   4.844   2.390  0.5665 -0.0396 -0.5147
10469TIP3    H152898   2.790   4.780   2.358 -0.8366 -0.7020 -2.0982
10469TIP3    H252899   2.726   4.913   2.324 -0.5628 -0.2004 -0.6974
10470TIP3   OH252900   3.961   0.119  12.433  0.3893 -0.5155 -0.6710
10470TIP3    H152901   3.917   0.079  12.507  1.2206  1.7812  1.1915
10470TIP3    H252902   3.898   0.184  12.400  1.2611  0.8630  0.2722
10471TIP3   OH252903   0.216   4.746  12.674 -0.0052  0.0929 -0.0976
10471TIP3    H152904   0.192   4.837  12.660 -0.0404 -0.1395 -1.6500
10471TIP3    H252905   0.163   4.696  12.612  0.5224 -0.9276  0.2312
10472TIP3   OH252906   3.890   3.175   0.889 -0.9148 -0.2243  0.0090
10472TIP3    H152907   3.969   3.140   0.847  0.6754  0.2826  2.3895
10472TIP3    H252908   3.820   3.117   0.859  1.2202 -4.3463  2.1050
10473TIP3   OH252909   2.704   2.916   0.647 -0.7442  0.0398  0.3074
10473TIP3    H152910   2.748   2.975   0.586 -0.0578 -0.2331  0.5299
10473TIP3    H252911   2.690   2.968   0.726  2.3944 -0.8255  1.5610
10474TIP3   OH252912   1.896   5.775   1.700  0.0231  0.4730 -0.6081
10474TIP3    H152913   1.952   5.819   1.635  0.5696 -2.1774 -2.0940
10474TIP3    H252914   1.818   5.750   1.650 -0.0606 -0.6101  0.0484
10475TIP3   OH252915   5.080   3.168   1.810  0.2438  0.3141 -0.0848
10475TIP3    H152916   5.175   3.164   1.807  0.3049  0.9688  0.6844
10475TIP3    H252917   5.051   3.083   1.776  1.0536  0.7654 -1.9837
10476TIP3   OH252918   5.323   4.943  16.342  0.4628 -0.0882 -0.8970
10476TIP3    H152919   5.361   4.938  16.255 -0.5434  0.8977 -1.4107
10476TIP3    H252920   5.251   4.880  16.341 -1.2562  1.8014 -1.7006
10477TIP3   OH252921   1.062   0.920  13.195 -0.2429  0.4556 -0.3300
10477TIP3    H152922   1.025   1.000  13.234  1.7671  1.1157  0.3647
10477TIP3    H252923   1.023   0.916  13.108 -0.0726  2.4622 -0.5562
10478TIP3   OH252924   0.287   6.881  14.222  0.8686  0.0546 -0.0516
10478TIP3    H152925   0.216   6.896  14.160 -0.1618 -4.1785 -0.2168
10478TIP3    H252926   0.247   6.891  14.308  1.2464  1.8659 -0.0564
10479TIP3   OH252927   1.114   6.753   0.798 -0.1532 -0.1408  0.0578
10479TIP3    H152928   1.195   6.802   0.811 -0.1051  0.2581 -1.4780
10479TIP3    H252929   1.046   6.809   0.836  0.2619 -0.4682  1.3313
10480TIP3   OH252930   1.229   4.864  15.762 -0.0592  0.4142  0.0540
10480TIP3    H152931   1.224   4.849  15.667  2.1079  0.5574 -0.1396
10480TIP3    H252932   1.244   4.777  15.798 -0.1647  0.4565  0.1985
10481TIP3   OH252933   3.212   1.495   2.618 -0.3129 -0.3476  0.6094
10481TIP3    H152934   3.123   1.518   2.644 -0.3583 -0.8043  0.8749
10481TIP3    H252935   3.267   1.529   2.689 -0.5128 -2.4003  1.8458
10482TIP3   OH252936   5.600   3.739  14.991 -0.4217  0.1209 -0.2834
10482TIP3    H152937   5.507   3.742  14.968 -1.4184 -1.4737  2.8309
10482TIP3    H252938   5.613   3.814  15.049 -0.1358 -0.3852  0.3205
10483TIP3   OH252939   5.456   2.952  15.204  0.4566  0.4178  0.4806
10483TIP3    H152940   5.492   2.933  15.291  0.4910 -1.6303  0.0594
10483TIP3    H252941   5.530   2.990  15.156  0.8379  0.2393  0.9168
10484TIP3   OH252942   6.602   6.518   4.663  0.0126  0.2028  0.1400
10484TIP3    H152943   6.666   6.448   4.653 -1.0243 -0.7377 -0.1016
10484TIP3    H252944   6.521   6.482   4.626 -0.8106  1.1445  0.9734
10485TIP3   OH252945   4.005   0.843   4.550 -0.1632  0.0672 -0.2995
10485TIP3    H152946   4.069   0.788   4.504  0.6369  1.2619 -0.6764
10485TIP3    H252947   4.000   0.807   4.638  1.6230  0.3704 -0.0309
10486TIP3   OH252948   3.534   0.100  11.490  0.2230 -0.5880  0.2299
10486TIP3    H152949   3.583   0.139  11.563 -0.1399 -0.6204  0.4897
10486TIP3    H252950   3.591   0.029  11.459  1.3392  0.7183 -0.8609
10487TIP3   OH252951   0.019   5.723   4.391  0.4638 -0.5469  0.5943
10487TIP3    H152952  -0.031   5.723   4.472  1.4097  0.0185  1.2000
10487TIP3    H252953   0.087   5.789   4.405 -0.7578  1.2858 -1.5638
10488TIP3   OH252954   3.095   6.088  13.319 -0.0367  0.0805 -0.1145
10488TIP3    H152955   3.156   6.037  13.265 -0.6727 -1.2985  0.4070
10488TIP3    H252956   3.050   6.144  13.257 -0.0112 -0.7167 -0.8829
10489TIP3   OH252957   4.224   5.481  14.141  0.3718 -0.4750 -0.7415
10489TIP3    H152958   4.289   5.528  14.193 -2.7745  2.7947  0.7145
10489TIP3    H252959   4.224   5.526  14.056 -1.5519  1.3236  0.1202
10490TIP3   OH252960   4.371   3.835   2.446 -0.4244  0.4927 -0.0694
10490TIP3    H152961   4.406   3.749   2.424  0.0427  0.4643  0.7691
10490TIP3    H252962   4.303   3.818   2.511  1.3737  0.9145  2.0319
10491TIP3   OH252963   5.181   6.873  16.002  0.3252 -0.9532  0.2435
10491TIP3    H152964   5.163   6.834  16.088  0.7544 -4.4424 -1.0943
10491TIP3    H252965   5.275   6.890  16.002  0.2225 -0.3361  0.6432
10492TIP3   OH252966   0.872   0.221   6.363  0.0961 -0.0528  0.2160
10492TIP3    H152967   0.880   0.186   6.452  0.0756  0.6393  0.4968
10492TIP3    H252968   0.798   0.281   6.367  0.1235  0.0188 -0.2639
10493TIP3   OH252969   0.257   3.448  15.526 -0.0119  0.1156  0.3599
10493TIP3    H152970   0.175   3.416  15.564 -0.0802 -0.1468 -0.0061
10493TIP3    H252971   0.313   3.370  15.521  0.2951  0.3082  0.6874
10494TIP3   OH252972   3.500   1.612  11.865  0.1256  0.2398 -0.1097
10494TIP3    H152973   3.546   1.638  11.785  0.0178 -1.4887 -0.7932
10494TIP3    H252974   3.423   1.563  11.833 -1.1225  1.3858  1.0378
10495TIP3   OH252975   5.398   6.283   1.123  0.1657 -0.1307  0.1623
10495TIP3    H152976   5.492   6.302   1.125  0.2821 -0.6997  0.3852
10495TIP3    H252977   5.391   6.194   1.158 -0.2894 -0.7638 -1.4505
10496TIP3   OH252978   2.060   2.345   3.581  0.0437 -0.2768  0.4073
10496TIP3    H152979   2.044   2.314   3.492  3.3875  1.8508 -1.1345
10496TIP3    H252980   1.994   2.413   3.595 -1.4208 -1.6079  0.1892
10497TIP3   OH252981   0.668   3.725  11.734 -0.2105 -0.5365 -0.4021
10497TIP3    H152982   0.654   3.634  11.707  0.4986 -0.7101 -0.2114
10497TIP3    H252983   0.591   3.772  11.702  0.6968 -0.6701 -3.0192
10498TIP3   OH252984   5.022   3.351   3.938 -0.1631  0.5682 -0.6469
10498TIP3    H152985   5.084   3.295   3.891 -0.4975  1.0212 -1.6639
10498TIP3    H252986   5.025   3.320   4.028 -0.1848 -0.9611 -1.1428
10499TIP3   OH252987   0.839   1.621   0.333  0.3141  0.1995 -0.2540
10499TIP3    H152988   0.847   1.634   0.427 -1.1506  1.1134 -0.2356
10499TIP3    H252989   0.826   1.708   0.297 -0.2254 -0.2466 -1.1797
10500TIP3   OH252990   2.433   4.055  13.899  0.0930  0.5031 -0.2396
10500TIP3    H152991   2.359   4.040  13.957  1.0279  0.8971  1.0996
10500TIP3    H252992   2.427   3.985  13.834  0.4726 -1.5984  1.8589
10501TIP3   OH252993   4.547   1.107  16.258  0.0742 -0.1674 -0.0272
10501TIP3    H152994   4.625   1.062  16.225  0.3084 -1.1229  1.7177
10501TIP3    H252995   4.562   1.115  16.353 -1.3481  0.8564  0.1475
10502TIP3   OH252996   1.908   5.382  10.504 -0.0353  0.0887  0.2675
10502TIP3    H152997   1.991   5.356  10.465  0.0289  0.3595  0.2266
10502TIP3    H252998   1.860   5.300  10.514  0.5702 -0.1764  1.0767
10503TIP3   OH252999   3.151   0.281  11.185  0.0127  0.0018 -0.2869
10503TIP3    H153000   3.226   0.268  11.244  0.5895  1.7738 -0.5578
10503TIP3    H253001   3.092   0.338  11.234 -0.6564 -0.4872 -0.5073
10504TIP3   OH253002   1.886   4.846  14.737 -0.5207 -0.6639 -0.0718
10504TIP3    H153003   1.835   4.766  14.748  0.2014 -0.8369  2.8972
10504TIP3    H253004   1.834   4.914  14.780 -0.1825  0.0361 -0.7417
10505TIP3   OH253005   5.536   2.917   6.060  0.0309  0.5582  0.0339
10505TIP3    H153006   5.579   2.910   6.145  3.0194  0.2743 -1.3746
10505TIP3    H253007   5.568   2.998   6.023 -0.7792  0.3925 -1.0831
10506TIP3   OH253008   2.869   1.475   5.165  0.5908 -0.6180 -0.0488
10506TIP3    H153009   2.846   1.397   5.115  0.7257 -1.3222  0.9673
10506TIP3    H253010   2.786   1.509   5.197  0.7049 -1.7388  1.5266
10507TIP3   OH253011   2.120   4.729  10.516  0.1557 -0.6162  0.1385
10507TIP3    H153012   2.155   4.641  10.526  0.3011 -0.6479 -0.6282
10507TIP3    H253013   2.048   4.734  10.579  1.4642 -0.5763  1.6912
10508TIP3   OH253014   1.503   4.563   2.294  0.3232  0.5252 -0.2135
10508TIP3    H153015   1.505   4.490   2.357 -0.4652  1.6661  1.1916
10508TIP3    H253016   1.477   4.522   2.212  0.3644 -0.8603  0.4300
10509TIP3   OH253017   0.214   3.394  13.628  0.1767  0.2363  0.2377
10509TIP3    H153018   0.250   3.318  13.582  0.8254  0.5266  0.2498
10509TIP3    H253019   0.144   3.358  13.682  0.3209 -0.3161  0.0690
10510TIP3   OH253020   1.213   0.354   4.602 -0.0524  0.1719  0.0850
10510TIP3    H153021   1.178   0.443   4.601 -1.6224 -0.4189 -1.9487
10510TIP3    H253022   1.157   0.307   4.663 -2.2678 -0.4979 -2.3301
10511TIP3   OH253023   6.153   2.204  10.803  0.0780 -0.0568 -0.2653
10511TIP3    H153024   6.087   2.183  10.737 -3.4698 -1.4410  3.2781
10511TIP3    H253025   6.192   2.119  10.825  2.7485  0.6568 -1.8150
10512TIP3   OH253026   1.669   0.892  16.458 -0.2203  0.0601 -0.1655
10512TIP3    H153027   1.734   0.949  16.416 -1.1665  2.7404  1.6945
10512TIP3    H253028   1.699   0.885  16.549  0.1258 -2.9956 -0.4106
10513TIP3   OH253029   4.396   5.448  15.680 -0.6342  0.0823 -0.9145
10513TIP3    H153030   4.423   5.538  15.700 -1.3752  0.2847 -0.7667
10513TIP3    H253031   4.449   5.393  15.738  0.3506  0.3709 -1.5325
10514TIP3   OH253032   2.201   0.192  10.934 -0.5248  0.2663 -0.1095
10514TIP3    H153033   2.271   0.129  10.951 -0.5516  0.0389 -0.8096
10514TIP3    H253034   2.232   0.244  10.860 -1.3099 -0.2075 -0.8014
10515TIP3   OH253035   0.695   4.020   3.775 -0.5117  0.3269  0.0475
10515TIP3    H153036   0.733   4.108   3.776 -0.1855  0.2104 -1.1946
10515TIP3    H253037   0.767   3.962   3.800 -0.8669  0.4367  1.4243
10516TIP3   OH253038   3.405   3.715  11.126 -0.7213  0.0908  0.0523
10516TIP3    H153039   3.486   3.708  11.175 -0.8075  0.0844  0.1958
10516TIP3    H253040   3.432   3.722  11.034 -0.5849 -0.7910  0.0119
10517TIP3   OH253041   0.366   0.035  15.338 -0.6496 -0.5037  0.1043
10517TIP3    H153042   0.358  -0.034  15.403  0.8482  2.1558  3.3981
10517TIP3    H253043   0.426  -0.001  15.272 -0.4024 -2.5454  1.3638
10518TIP3   OH253044   5.657   3.167   6.034  0.0071 -0.4400  0.1896
10518TIP3    H153045   5.738   3.205   6.069 -0.8543  0.5070  1.2673
10518TIP3    H253046   5.592   3.236   6.048 -1.1528 -1.5090  0.1165
10519TIP3   OH253047   4.723   2.451   0.900  0.3632 -0.4566  0.4734
10519TIP3    H153048   4.752   2.536   0.867  1.9381 -0.6625  1.2505
10519TIP3    H253049   4.799   2.416   0.947 -0.3107 -2.2111  0.3308
10520TIP3   OH253050   3.925   5.048  16.225  0.1929  0.5259 -0.5339
10520TIP3    H153051   3.857   5.098  16.179 -1.5960 -1.1551  0.1625
10520TIP3    H253052   3.973   5.114  16.275 -2.4978  1.5747  0.8825
10521TIP3   OH253053   5.092   3.864   4.674  0.1525 -0.4152  0.3840
10521TIP3    H153054   5.071   3.846   4.766 -0.0061  0.8765  0.6124
10521TIP3    H253055   5.066   3.955   4.661  1.3780 -0.1767 -0.5864
10522TIP3   OH253056   2.972   1.929  12.095  0.4276  0.6702  0.3387
10522TIP3    H153057   2.908   1.858  12.090 -0.8870  1.8336 -0.0107
10522TIP3    H253058   3.056   1.885  12.108 -0.5576 -0.8748  1.9544
10523TIP3   OH253059   2.398   3.864   0.323  0.2214  0.2791 -0.3006
10523TIP3    H153060   2.409   3.857   0.228  2.3847  0.2471 -0.0924
10523TIP3    H253061   2.318   3.915   0.334 -0.4440 -0.2771 -2.1163
10524TIP3   OH253062   1.636   5.343  13.521 -0.4250  0.9614  0.4656
10524TIP3    H153063   1.636   5.376  13.610 -1.4889 -1.5535  1.4833
10524TIP3    H253064   1.692   5.266  13.524 -1.0854  0.3975 -0.8522
10525TIP3   OH253065   5.832   2.812  14.007  0.3755 -0.6305  0.5259
10525TIP3    H153066   5.921   2.783  13.988 -0.2455 -2.8874  0.7159
10525TIP3    H253067   5.839   2.859  14.090  1.5021 -0.0451  0.1107
10526TIP3   OH253068   0.051   4.201  10.617 -0.1248 -0.0549 -0.3163
10526TIP3    H153069   0.065   4.200  10.523  3.8099  0.3167  0.0954
10526TIP3    H253070   0.105   4.128  10.650 -1.4302 -0.1969  1.6677
10527TIP3   OH253071   6.595   3.651  14.576  0.6981 -0.0393 -0.3790
10527TIP3    H153072   6.617   3.684  14.489  1.2763  1.2902  0.2270
10527TIP3    H253073   6.593   3.730  14.631 -1.3524 -0.6312  0.4760
10528TIP3   OH253074   5.948   4.048   1.503  0.0923  0.0205  0.3099
10528TIP3    H153075   6.011   4.094   1.558  0.2827  0.1276  0.0045
10528TIP3    H253076   5.864   4.089   1.523  0.1650  0.0858  0.4872
10529TIP3   OH253077   3.323   6.036   1.957  0.0932 -0.2696  0.2755
10529TIP3    H153078   3.263   6.098   1.916  1.6030  1.2262  0.2278
10529TIP3    H253079   3.381   6.008   1.886 -0.1506 -1.2188  0.4446
10530TIP3   OH253080   3.565   5.378  11.448 -0.2274  0.0489  0.5112
10530TIP3    H153081   3.571   5.470  11.471  0.6752  0.1586 -0.0731
10530TIP3    H253082   3.473   5.356  11.458 -0.7362  1.4160 -0.8016
10531TIP3   OH253083   5.549   5.551  12.465  0.0379  0.4571 -0.2435
10531TIP3    H153084   5.607   5.477  12.447  0.5196  0.6818  0.3456
10531TIP3    H253085   5.496   5.560  12.386  0.9775  0.4065 -0.8915
10532TIP3   OH253086   3.162   1.388   3.343  0.3469  0.3398 -0.5727
10532TIP3    H153087   3.244   1.356   3.307  0.1093 -0.6353 -0.2630
10532TIP3    H253088   3.094   1.339   3.298 -0.0107  0.2283  0.0670
10533TIP3   OH253089   0.033   2.423  13.190 -0.5025 -0.8782  0.4409
10533TIP3    H153090   0.049   2.349  13.248  0.0099 -1.8525 -0.9058
10533TIP3    H253091   0.010   2.383  13.106 -1.5611  0.4936  0.0425
10534TIP3   OH253092   5.968   6.207   6.062 -0.2785  0.2646 -0.0167
10534TIP3    H153093   6.021   6.287   6.059 -1.9624  1.5309  1.8429
10534TIP3    H253094   6.021   6.146   6.112 -0.4323  1.4552  1.6650
10535TIP3   OH253095   4.435   0.006   4.630 -0.3177 -0.1055 -0.5472
10535TIP3    H153096   4.473  -0.059   4.690  1.1250  0.1776 -1.1227
10535TIP3    H253097   4.364   0.046   4.681 -1.5853 -2.4451 -0.3526
10536TIP3   OH253098   0.688   5.578  15.446  0.1415  0.6405  0.5506
10536TIP3    H153099   0.701   5.520  15.521 -0.3290 -0.9773 -0.5594
10536TIP3    H253100   0.652   5.521  15.378  0.1241  2.1554 -0.7612
10537TIP3   OH253101   2.255   1.893  12.901  0.4914 -0.1526  0.4249
10537TIP3    H153102   2.185   1.829  12.902  0.3909 -0.0371  0.8212
10537TIP3    H253103   2.237   1.948  12.824 -0.1976  0.2566  0.8738
10538TIP3   OH253104   1.714   3.106  10.012  0.3942  0.0966 -0.1294
10538TIP3    H153105   1.619   3.103  10.021  0.2113 -1.5004 -1.9662
10538TIP3    H253106   1.734   3.197   9.990 -0.7147  0.4125  0.1099
10539TIP3   OH253107   5.706   6.421   0.802 -0.7942  0.5574  0.0730
10539TIP3    H153108   5.691   6.475   0.725  0.8124  1.2065  0.1808
10539TIP3    H253109   5.728   6.335   0.767  1.5203  1.2474 -0.2971
10540TIP3   OH253110   2.953   5.579  15.620  0.0688  0.4002 -0.2465
10540TIP3    H153111   2.960   5.537  15.705  0.3499 -0.8158 -0.8485
10540TIP3    H253112   3.013   5.654  15.625  1.3462 -0.6030  0.0802
10541TIP3   OH253113   2.056   3.955   1.121  0.5869 -0.1118 -0.1348
10541TIP3    H153114   2.087   3.865   1.117  1.7632  0.2979 -1.4716
10541TIP3    H253115   1.999   3.964   1.045 -1.0441 -0.2067  1.0298
10542TIP3   OH253116   3.733   6.803   3.452  0.6012 -0.3007 -0.4747
10542TIP3    H153117   3.799   6.859   3.491  0.4618 -0.4780  0.0308
10542TIP3    H253118   3.775   6.717   3.447  0.3140 -0.4812  0.1232
10543TIP3   OH253119   5.768   6.762  11.667 -0.4789  0.0863  0.3372
10543TIP3    H153120   5.715   6.809  11.603 -1.3433 -0.5892  0.5465
10543TIP3    H253121   5.805   6.831  11.723 -0.5316  0.6054 -0.2680
10544TIP3   OH253122   5.117   2.035  11.757 -0.3999  0.1332  0.7467
10544TIP3    H153123   5.093   2.028  11.664 -3.9388  0.0716  1.5201
10544TIP3    H253124   5.179   1.963  11.771 -0.1000 -0.1077 -1.4451
10545TIP3   OH253125   2.571   2.368  15.072 -0.2644  0.4067  0.2001
10545TIP3    H153126   2.583   2.441  15.132  0.4448 -1.2915  2.2520
10545TIP3    H253127   2.660   2.342  15.047 -0.4960  0.0684 -0.2966
10546TIP3   OH253128   2.375   2.120  15.560  0.1972  0.4512 -0.2691
10546TIP3    H153129   2.350   2.175  15.487  0.5403  0.8323 -0.1008
10546TIP3    H253130   2.297   2.066  15.577  0.5250 -0.5487 -1.7255
10547TIP3   OH253131   1.815   6.022  15.378  0.2543  0.0586  0.2167
10547TIP3    H153132   1.787   5.932  15.395  0.2870  0.2200  1.2209
10547TIP3    H253133   1.885   6.014  15.314 -1.0920 -0.4684 -1.2478
10548TIP3   OH253134   2.922   0.368  14.646  0.5918 -0.2508  0.3592
10548TIP3    H153135   3.003   0.417  14.637  0.5731  0.1269  1.9158
10548TIP3    H253136   2.950   0.278  14.662  0.7095 -0.1679  0.6341
10549TIP3   OH253137   6.153   2.315  11.507  0.0145 -0.1511  0.4676
10549TIP3    H153138   6.197   2.359  11.580  0.6379 -0.8223  0.5133
10549TIP3    H253139   6.128   2.230  11.543  0.9409 -0.7604 -0.2873
10550TIP3   OH253140   2.269   0.465  15.619 -0.0431  0.2360  0.1943
10550TIP3    H153141   2.215   0.530  15.574 -0.2719 -0.1954 -0.1625
10550TIP3    H253142   2.353   0.469  15.574  0.4720  1.4115  1.2072
10551TIP3   OH253143   6.229   3.802   1.355  0.1007  0.1875  0.3224
10551TIP3    H153144   6.194   3.808   1.444  0.6708 -0.9173  0.6352
10551TIP3    H253145   6.209   3.712   1.328  0.7340  0.2377 -0.3248
10552TIP3   OH253146   4.044   0.398   0.600  0.1772 -0.9165 -0.0261
10552TIP3    H153147   4.038   0.307   0.573 -0.1741 -1.0852  0.6019
10552TIP3    H253148   4.045   0.447   0.518 -1.4287 -1.3791 -0.3701
10553TIP3   OH253149   2.705   6.065   1.656  0.0255  0.2561 -0.5078
10553TIP3    H153150   2.678   6.028   1.740 -0.8911 -1.9968 -1.7038
10553TIP3    H253151   2.645   6.026   1.592  2.0158  0.2382 -2.4824
10554TIP3   OH253152   1.138   1.170   3.055 -0.1270  0.4851  0.3655
10554TIP3    H153153   1.169   1.122   3.132  1.2127  1.3641  0.4021
10554TIP3    H253154   1.055   1.129   3.034 -0.0141 -0.4761  1.6449
10555TIP3   OH253155   4.067   0.474   4.580 -0.0610  0.1538 -0.3629
10555TIP3    H153156   4.122   0.396   4.584 -0.6081 -0.3256 -1.5041
10555TIP3    H253157   4.122   0.540   4.537 -0.0910 -0.0695 -0.7504
10556TIP3   OH253158   0.011   1.547  10.552 -0.4120  0.0848  0.0812
10556TIP3    H153159  -0.028   1.506  10.629 -0.0353 -2.0595 -0.8084
10556TIP3    H253160   0.064   1.618  10.586 -0.4978 -0.6294  1.7643
10557TIP3   OH253161   0.019   2.541  13.724 -0.0662  0.2647 -0.2810
10557TIP3    H153162   0.017   2.560  13.630  0.0389  0.6605 -0.2073
10557TIP3    H253163  -0.042   2.605  13.762  0.7632  0.8873  0.0423
10558TIP3   OH253164   3.631   2.374   0.773 -0.3545  0.3189  0.1270
10558TIP3    H153165   3.618   2.452   0.827  1.8548 -0.2366  1.6037
10558TIP3    H253166   3.671   2.407   0.693  0.3278  0.7583  0.6335
10559TIP3   OH253167   3.925   5.958  15.051 -0.3791 -0.0080 -0.7881
10559TIP3    H153168   3.857   5.984  15.113 -0.5081  1.1914 -1.4134
10559TIP3    H253169   3.902   6.001  14.969  0.7338 -0.1662 -1.2151
10560TIP3   OH253170   2.601   3.044  13.815 -0.4068 -0.1061  0.4309
10560TIP3    H153171   2.679   3.032  13.870  0.1588 -0.1295 -0.3706
10560TIP3    H253172   2.608   3.134  13.783 -0.5832 -0.1949  0.1453
10561TIP3   OH253173   5.210   4.521   2.259  0.1193 -0.3491  0.1694
10561TIP3    H153174   5.210   4.556   2.348 -1.1979  0.4745 -0.1241
10561TIP3    H253175   5.119   4.499   2.242  0.5113 -1.4548 -0.6349
10562TIP3   OH253176   5.427   5.456   0.689  0.2741  0.1377 -0.0351
10562TIP3    H153177   5.431   5.524   0.622 -0.0522  0.0804 -0.1124
10562TIP3    H253178   5.518   5.427   0.699  0.2029 -0.5018 -1.1255
10563TIP3   OH253179   3.376   2.538  16.867 -0.0835 -0.0181  0.2904
10563TIP3    H153180   3.377   2.540  16.963 -0.4938 -2.2262  0.4101
10563TIP3    H253181   3.299   2.589  16.843 -1.6952 -1.8181  1.3350
10564TIP3   OH253182   4.876   4.927   1.899  0.2383 -0.2135  0.0341
10564TIP3    H153183   4.902   4.865   1.967  0.0358 -0.9561 -0.5431
10564TIP3    H253184   4.924   5.007   1.919 -0.2449 -0.2408  1.3542
10565TIP3   OH253185   3.271   3.660  15.104 -0.2824 -0.3056  0.3261
10565TIP3    H153186   3.258   3.571  15.136  1.4618 -1.0830 -0.9400
10565TIP3    H253187   3.311   3.707  15.178 -0.6960 -0.7216  0.8202
10566TIP3   OH253188   6.643   2.196  12.621 -0.6505 -0.1911 -0.1178
10566TIP3    H153189   6.553   2.214  12.593 -0.3437 -0.7481 -1.5525
10566TIP3    H253190   6.652   2.101  12.614  0.3625 -0.0463 -1.0544
10567TIP3   OH253191   6.149   3.886   4.099  0.3940 -0.6898  0.4108
10567TIP3    H153192   6.069   3.936   4.115  0.0767 -0.8671 -0.5547
10567TIP3    H253193   6.186   3.925   4.019  1.4693 -0.3755  1.0369
10568TIP3   OH253194   3.130   5.881  12.697 -0.1120  0.0625 -0.4388
10568TIP3    H153195   3.065   5.916  12.636 -0.2459 -0.9004 -0.8613
10568TIP3    H253196   3.083   5.812  12.745  0.2830  0.1165  0.0341
10569TIP3   OH253197   6.132   4.661   0.769  0.0286  0.2755  0.0334
10569TIP3    H153198   6.081   4.656   0.688  0.1945 -0.5279 -0.0327
10569TIP3    H253199   6.211   4.710   0.745  0.4306 -0.6153 -0.4864
10570TIP3   OH253200   3.957   6.464  16.060  0.1042  0.2827  0.0185
10570TIP3    H153201   3.967   6.517  16.139 -0.7116 -0.0175  0.3325
10570TIP3    H253202   3.867   6.433  16.063  0.2904 -0.3484 -0.6511
10571TIP3   OH253203   2.849   4.393  13.846 -0.4392 -0.3996 -0.3513
10571TIP3    H153204   2.892   4.461  13.899 -0.0584 -1.0206  0.1488
10571TIP3    H253205   2.839   4.433  13.760  1.8675 -0.4806 -0.7219
10572TIP3   OH253206   3.578   4.794  13.876 -0.1161 -0.1176 -0.0275
10572TIP3    H153207   3.569   4.873  13.824  0.6260 -0.1822 -0.2618
10572TIP3    H253208   3.672   4.777  13.879 -0.1937 -0.4747  0.7927
10573TIP3   OH253209   5.975   0.862  14.374 -0.1158  0.4948  0.4062
10573TIP3    H153210   5.900   0.901  14.419 -1.2134  0.0641 -0.9832
10573TIP3    H253211   6.017   0.936  14.330  0.3501  0.7518  1.2644
10574TIP3   OH253212   4.435   0.101  14.694 -0.3091 -0.4524  0.0307
10574TIP3    H153213   4.349   0.120  14.656  0.6799  0.4712 -1.8416
10574TIP3    H253214   4.448   0.172  14.758 -0.8671 -0.5328  0.2484
10575TIP3   OH253215   4.234   4.535   5.829 -0.0903  0.2216 -0.2968
10575TIP3    H153216   4.271   4.617   5.862 -0.6467 -0.0094  0.9374
10575TIP3    H253217   4.308   4.474   5.829  0.3823  0.7596 -1.4429
10576TIP3   OH253218   5.071   3.196  11.724 -0.2540 -0.0647  0.0239
10576TIP3    H153219   5.076   3.192  11.819  1.4535  0.5467 -0.0024
10576TIP3    H253220   5.055   3.105  11.697 -0.7842 -0.2377  0.8790
10577TIP3   OH253221   4.789   3.940  13.034  0.1822 -0.9117 -0.2032
10577TIP3    H153222   4.710   3.948  13.087 -0.4981 -0.2127 -1.2729
10577TIP3    H253223   4.775   3.861  12.982 -0.5777  0.0795 -1.5638
10578TIP3   OH253224   5.963   0.614  13.954 -0.0384 -0.4799  0.2523
10578TIP3    H153225   5.964   0.693  13.901 -0.1947 -1.0370 -0.6055
10578TIP3    H253226   5.896   0.630  14.020  0.2270  0.2608  0.3524
10579TIP3   OH253227   3.765   5.913  13.157  0.2785 -0.2148 -0.0007
10579TIP3    H153228   3.762   5.975  13.229 -1.4387  0.3573 -0.5270
10579TIP3    H253229   3.740   5.964  13.080  1.6114 -0.9200 -0.9543
10580TIP3   OH253230   6.845   5.057   9.854  0.7247  0.0859  0.0009
10580TIP3    H153231   6.807   4.976   9.818  0.1431  0.5994 -0.5636
10580TIP3    H253232   6.781   5.084   9.921 -0.0537  1.0772 -1.1092
10581TIP3   OH253233   5.048   2.103   1.614  0.1906  0.3417  0.1286
10581TIP3    H153234   4.994   2.141   1.684  0.1152  0.1087  0.1952
10581TIP3    H253235   5.137   2.102   1.651 -0.0695 -1.1223  0.7769
10582TIP3   OH253236   5.024   4.141   0.252  0.1655 -0.4631 -0.7565
10582TIP3    H153237   5.104   4.147   0.198  0.4938  0.2735 -0.2094
10582TIP3    H253238   4.953   4.136   0.188  0.6212 -0.7462 -1.2553
10583TIP3   OH253239   1.955   5.010  10.872  0.0059  0.2374  0.1751
10583TIP3    H153240   1.866   4.975  10.870  0.1588 -0.2013  0.8356
10583TIP3    H253241   1.994   4.975  10.952  1.4075 -1.1547 -1.0426
10584TIP3   OH253242   6.831   6.305  15.635  0.0931 -0.1038 -0.1307
10584TIP3    H153243   6.862   6.215  15.649 -0.3607 -0.3672 -0.8159
10584TIP3    H253244   6.752   6.311  15.689  1.1366  0.4842  1.4042
10585TIP3   OH253245   1.409   2.170  11.659 -0.5264 -0.2400  0.8389
10585TIP3    H153246   1.353   2.142  11.587  0.6309 -1.5468  0.3917
10585TIP3    H253247   1.455   2.090  11.686  1.0061  0.7433  1.2764
10586TIP3   OH253248   0.970   2.365   0.228  0.1366 -0.3108 -0.1890
10586TIP3    H153249   1.028   2.290   0.243 -0.6002 -0.8896 -0.1766
10586TIP3    H253250   0.976   2.381   0.134 -0.5626 -1.1165 -0.3848
10587TIP3   OH253251   1.749   4.843   3.919  0.0868  0.2838 -0.0745
10587TIP3    H153252   1.783   4.822   4.006 -1.7625  1.7712  1.0912
10587TIP3    H253253   1.664   4.799   3.915 -1.2923  2.7281  0.2189
10588TIP3   OH253254   4.723   0.742  13.681 -0.3209  0.3451 -0.1819
10588TIP3    H153255   4.710   0.650  13.659  0.7047 -0.0673  0.8669
10588TIP3    H253256   4.768   0.741  13.765 -1.0857  1.8216  0.2920
10589TIP3   OH253257   6.539   6.143  10.027  0.3703 -0.5537  0.3761
10589TIP3    H153258   6.463   6.146  10.085  0.4885  0.8032  0.5024
10589TIP3    H253259   6.504   6.117   9.942 -0.2004 -0.1868  0.4964
10590TIP3   OH253260   6.675   3.592   0.993 -0.1430 -0.6695  0.0660
10590TIP3    H153261   6.670   3.496   0.998  0.7685 -0.9321 -2.3286
10590TIP3    H253262   6.761   3.609   0.954 -0.9997  0.9857 -1.2586
10591TIP3   OH253263   0.444   4.160  14.851 -0.6616 -0.1404  0.3025
10591TIP3    H153264   0.527   4.148  14.897  0.4470  1.2657 -1.2271
10591TIP3    H253265   0.432   4.078  14.802 -0.3538 -0.4692  0.7649
10592TIP3   OH253266   2.057   6.141  11.854  0.5303 -0.3954  0.4455
10592TIP3    H153267   2.015   6.190  11.925  1.7200 -2.5298  2.7947
10592TIP3    H253268   2.004   6.062  11.844  2.0106 -1.5481  1.1644
10593TIP3   OH253269   5.728   2.904   4.822  0.1313  0.8938 -0.1529
10593TIP3    H153270   5.739   2.977   4.762  0.6055 -0.5135 -1.8422
10593TIP3    H253271   5.709   2.829   4.766  2.1974 -0.8276  1.2813
10594TIP3   OH253272   0.657   6.638   3.004  0.1209  0.1811  0.3573
10594TIP3    H153273   0.728   6.577   2.985  0.1107  0.2593  0.0575
10594TIP3    H253274   0.690   6.690   3.078  0.0904 -0.2443  0.6716
10595TIP3   OH253275   0.035   6.571   2.984 -0.0014 -0.0788 -0.6061
10595TIP3    H153276   0.116   6.538   3.022 -0.6561  0.2813  1.1729
10595TIP3    H253277   0.041   6.666   2.995 -0.0819  0.0613 -1.6975
10596TIP3   OH253278   4.281   2.396   0.797 -0.0760  0.3653  0.3659
10596TIP3    H153279   4.336   2.324   0.827 -0.2556 -0.3112 -0.8804
10596TIP3    H253280   4.341   2.456   0.753 -0.1758  0.1337 -0.0896
10597TIP3   OH253281   2.395   2.867  13.780 -0.1328  0.0635  0.6039
10597TIP3    H153282   2.473   2.922  13.780 -0.1872  0.2230 -1.2210
10597TIP3    H253283   2.345   2.896  13.856  1.0491  0.7201  1.1704
10598TIP3   OH253284   1.023   3.164  11.867 -0.0753  0.6545  1.1539
10598TIP3    H153285   0.946   3.175  11.923 -0.6444  0.9468  0.3190
10598TIP3    H253286   1.017   3.236  11.804 -0.5735 -0.8618 -0.6156
10599TIP3   OH253287   3.865   0.970  13.317  0.0587 -0.5876 -0.6921
10599TIP3    H153288   3.804   0.985  13.389  0.2361 -0.5776 -0.5438
10599TIP3    H253289   3.899   0.882  13.331  0.1078 -0.5786 -0.7527
10600TIP3   OH253290   6.574   0.663  16.077 -0.0367  0.3312  0.7137
10600TIP3    H153291   6.552   0.664  16.170  3.8158 -0.5674  1.8243
10600TIP3    H253292   6.561   0.753  16.048 -0.0506  0.9393  2.5062
10601TIP3   OH253293   0.193   4.405  11.392  0.4947 -0.3077 -0.0594
10601TIP3    H153294   0.223   4.422  11.482  1.0808 -1.2358 -0.0674
10601TIP3    H253295   0.101   4.383  11.401  0.8030 -1.4743  0.4608
10602TIP3   OH253296   1.422   2.621  14.796  0.0255  0.9538 -0.5609
10602TIP3    H153297   1.409   2.533  14.760 -1.9286 -0.0584  2.3007
10602TIP3    H253298   1.363   2.677  14.745 -3.8585 -0.7058  1.7119
10603TIP3   OH253299   3.283   2.990   0.348 -0.2853  0.0827  0.3459
10603TIP3    H153300   3.202   3.022   0.310  1.8174  3.6574 -1.6701
10603TIP3    H253301   3.315   3.063   0.401  2.4239 -0.4644 -0.3705
10604TIP3   OH253302   3.146   5.581   3.127 -0.0093 -0.6146 -0.0403
10604TIP3    H153303   3.162   5.584   3.221 -1.3313 -1.6658  0.2577
10604TIP3    H253304   3.224   5.539   3.091  0.8471  0.4846  0.4686
10605TIP3   OH253305   0.757   2.596   4.721  0.1413  0.5878 -0.0301
10605TIP3    H153306   0.689   2.613   4.786  2.2115  2.6751  1.7504
10605TIP3    H253307   0.760   2.501   4.713 -0.6048  0.2923  2.5052
10606TIP3   OH253308   1.889   4.064  16.398  0.4582  1.0194  0.0162
10606TIP3    H153309   1.857   4.100  16.315  0.6251  0.3738 -0.3310
10606TIP3    H253310   1.971   4.020  16.375 -0.9178 -1.6831 -0.0512
10607TIP3   OH253311   1.949   3.578  11.408  0.1198 -0.4649  0.3011
10607TIP3    H153312   1.897   3.637  11.354 -1.0173 -0.8668  0.9277
10607TIP3    H253313   1.915   3.589  11.497  0.2574 -1.6388  0.5164
10608TIP3   OH253314   5.848   3.646  15.619  0.1470 -0.4464 -0.1045
10608TIP3    H153315   5.850   3.707  15.693 -1.1487  0.0637 -0.4620
10608TIP3    H253316   5.868   3.701  15.543 -0.5036 -0.5658 -0.3679
10609TIP3   OH253317   1.760   3.266   3.784 -0.7830 -0.1109  0.3167
10609TIP3    H153318   1.805   3.213   3.717  0.3907  0.4680  0.6109
10609TIP3    H253319   1.717   3.202   3.840 -0.6020 -0.6798 -0.1751
10610TIP3   OH253320   5.524   4.765  14.434  0.0958 -0.2065 -0.1010
10610TIP3    H153321   5.443   4.765  14.486 -0.3950 -1.0091 -0.8414
10610TIP3    H253322   5.589   4.725  14.491 -0.5143 -1.3864 -0.2046
10611TIP3   OH253323   3.922   3.499   4.458  0.3022 -0.4255  0.1908
10611TIP3    H153324   3.988   3.556   4.418  0.4981 -1.8998 -1.6720
10611TIP3    H253325   3.839   3.530   4.422  0.2518 -0.4197  0.3095
10612TIP3   OH253326   6.249   1.126   1.453 -0.0358 -0.0942 -0.1182
10612TIP3    H153327   6.326   1.118   1.510 -0.0006 -0.6760 -0.2488
10612TIP3    H253328   6.227   1.036   1.429 -1.4382 -0.0329  0.8222
10613TIP3   OH253329   6.047   1.118   2.337  0.3112 -0.4567  0.0242
10613TIP3    H153330   6.108   1.189   2.316 -0.1620 -0.0889 -0.1174
10613TIP3    H253331   5.966   1.142   2.293 -0.9851  0.7296  2.8408
10614TIP3   OH253332   4.755   3.996   3.170 -0.0180  0.3875 -0.5919
10614TIP3    H153333   4.743   3.986   3.265  1.1489 -1.1854 -0.5820
10614TIP3    H253334   4.668   3.980   3.133 -0.5369  1.2409  0.1991
10615TIP3   OH253335   6.110   2.284  12.924 -0.3200 -1.1319  0.5292
10615TIP3    H153336   6.086   2.209  12.978  1.0307 -1.1973  1.0528
10615TIP3    H253337   6.178   2.251  12.865  0.2421 -0.3398  0.7253
10616TIP3   OH253338   5.248   3.708   1.553  0.5356 -0.4903  0.0094
10616TIP3    H153339   5.317   3.764   1.517 -0.7759  0.8358 -0.5966
10616TIP3    H253340   5.185   3.699   1.481  0.2113 -1.8993  0.4452
10617TIP3   OH253341   5.733   2.020  10.492  0.0937  0.5102  0.4412
10617TIP3    H153342   5.809   2.060  10.450 -0.9860 -0.6161 -2.8460
10617TIP3    H253343   5.732   1.930  10.458 -0.1059 -1.0443  4.1090
10618TIP3   OH253344   1.218   2.777   2.579 -0.6525 -0.1285  0.2341
10618TIP3    H153345   1.134   2.808   2.614  0.0595  0.2800  1.6449
10618TIP3    H253346   1.220   2.684   2.599 -1.0637 -0.2916 -0.4449
10619TIP3   OH253347   6.738   3.979   0.933  0.1211  0.0154  0.0203
10619TIP3    H153348   6.762   3.918   1.004  1.5484 -0.4041 -0.7767
10619TIP3    H253349   6.781   4.061   0.957  0.4142 -0.0615 -0.2383
10620TIP3   OH253350   6.327   1.551  15.021 -0.2586  0.0442  0.2471
10620TIP3    H153351   6.307   1.642  14.999  0.4807  0.3274  0.7327
10620TIP3    H253352   6.389   1.523  14.954 -1.2284 -0.4170 -0.4739
10621TIP3   OH253353   2.687   5.511   2.414 -0.4670  0.1059  0.2906
10621TIP3    H153354   2.699   5.557   2.497 -1.1704  0.5788  0.1393
10621TIP3    H253355   2.599   5.473   2.421 -0.1942 -0.5608  0.1008
10622TIP3   OH253356   1.079   2.827  16.403 -0.2496  0.0198 -0.4567
10622TIP3    H153357   1.020   2.807  16.476  2.0697  0.1631  1.6006
10622TIP3    H253358   1.110   2.916  16.421  2.3629 -0.8763 -0.0335
10623TIP3   OH253359   6.837   2.943   5.919 -0.0570  0.1682  0.0973
10623TIP3    H153360   6.873   3.031   5.930  0.6591 -0.2316  1.1730
10623TIP3    H253361   6.896   2.887   5.970 -0.3978 -0.9569 -0.7063
10624TIP3   OH253362   2.927   4.048   4.613  0.3012 -0.0333  0.1963
10624TIP3    H153363   2.832   4.051   4.621  0.3629  1.2494  0.6929
10624TIP3    H253364   2.943   4.052   4.519 -0.1389 -1.5516  0.0257
10625TIP3   OH253365   4.358   6.452  12.107  0.1702 -0.4213 -0.2966
10625TIP3    H153366   4.440   6.482  12.068  0.1848  0.8446  0.6337
10625TIP3    H253367   4.374   6.361  12.131  1.0881 -0.3651 -0.6715
10626TIP3   OH253368   3.442   0.306   6.416 -0.0378  0.4675 -0.1315
10626TIP3    H153369   3.365   0.294   6.472 -0.0796  0.1557 -0.2565
10626TIP3    H253370   3.515   0.312   6.477 -0.2958  2.0521  0.0708
10627TIP3   OH253371   2.149   5.949  16.476 -0.7101  0.1672  0.0285
10627TIP3    H153372   2.219   5.986  16.530  0.2810 -0.2182 -0.9583
10627TIP3    H253373   2.129   6.018  16.413  0.3847 -0.5132 -1.1218
10628TIP3   OH253374   5.226   5.942   5.364  0.4627 -0.0443 -0.6345
10628TIP3    H153375   5.252   5.985   5.446 -0.5461 -1.3275  0.4194
10628TIP3    H253376   5.264   5.854   5.370 -0.0842 -0.3333 -1.2975
10629TIP3   OH253377   6.128   1.189   4.301  0.5178  0.5511 -0.4518
10629TIP3    H153378   6.107   1.112   4.354  0.0392  1.3092  0.4943
10629TIP3    H253379   6.220   1.178   4.277  1.2574  0.9217  1.8850
10630TIP3   OH253380   5.946   6.524   5.046  0.0146 -0.6088 -0.1715
10630TIP3    H153381   6.027   6.505   4.998  0.4824  0.9138 -0.0377
10630TIP3    H253382   5.968   6.597   5.104 -1.0311 -1.2252  1.0705
10631TIP3   OH253383   3.688   6.469   0.945  0.0962  0.2614  0.2216
10631TIP3    H153384   3.699   6.492   1.037  1.1478 -0.3168  0.2422
10631TIP3    H253385   3.668   6.376   0.945  2.6831 -0.3748 -0.2439
10632TIP3   OH253386   0.689   6.060   3.844  0.2174 -0.2414 -0.1362
10632TIP3    H153387   0.718   6.069   3.753 -0.3524 -1.1840 -0.4270
10632TIP3    H253388   0.594   6.052   3.838 -0.0786  1.9397  0.7300
10633TIP3   OH253389   2.576   5.746  13.433  0.7576 -0.6061  0.3213
10633TIP3    H153390   2.637   5.819  13.419 -0.5440  0.5137  0.2879
10633TIP3    H253391   2.552   5.753  13.526 -1.0913  0.4377 -0.1897
10634TIP3   OH253392   3.090   2.384  10.940  0.6334 -0.6582  0.2447
10634TIP3    H153393   3.172   2.433  10.950 -0.4260  0.9169  1.9293
10634TIP3    H253394   3.116   2.292  10.942  2.3149 -0.2108  1.5037
10635TIP3   OH253395   5.464   5.170  11.828 -0.5509 -0.1338  0.1302
10635TIP3    H153396   5.438   5.078  11.823 -1.1755 -0.2188  3.0261
10635TIP3    H253397   5.383   5.218  11.845  0.1734  0.4598  2.2403
10636TIP3   OH253398   0.854   5.059  15.248  0.0952  0.3551  0.2627
10636TIP3    H153399   0.892   5.135  15.293  2.3988  0.2590 -1.2864
10636TIP3    H253400   0.825   5.094  15.163 -0.8819 -0.1077  0.3944
10637TIP3   OH253401   2.192   5.819   5.488 -0.6582 -0.5077 -0.1882
10637TIP3    H153402   2.192   5.909   5.522  3.4221 -1.1457  2.2275
10637TIP3    H253403   2.106   5.784   5.513 -2.8118  2.8698 -2.1609
10638TIP3   OH253404   3.861   6.852  11.623  0.2318 -0.2456  0.2277
10638TIP3    H153405   3.874   6.790  11.694 -0.1517 -0.8924 -0.2505
10638TIP3    H253406   3.941   6.846  11.571  1.0045  1.0758  1.2177
10639TIP3   OH253407   5.235   4.100  13.576  0.0269 -0.2009  0.4287
10639TIP3    H153408   5.203   4.188  13.553 -0.0472 -0.3502 -0.0533
10639TIP3    H253409   5.160   4.057  13.616  0.3851  0.3382  1.7492
10640TIP3   OH253410   0.025   2.612  14.753  0.3602 -0.4987 -0.3517
10640TIP3    H153411   0.112   2.571  14.751  1.6158  1.7602  2.0093
10640TIP3    H253412  -0.013   2.583  14.836  0.9262  2.2381  0.9587
10641TIP3   OH253413   2.755   1.277   0.625 -0.0673  0.1761  0.2470
10641TIP3    H153414   2.796   1.210   0.569  1.4728  1.5728 -0.3628
10641TIP3    H253415   2.739   1.351   0.566 -0.6139  0.8143  1.1685
10642TIP3   OH253416   5.542   5.787   4.036 -0.1357 -0.0280  0.3538
10642TIP3    H153417   5.583   5.823   3.957  0.2694  1.2772  1.1168
10642TIP3    H253418   5.452   5.820   4.034 -0.4469 -0.8753 -0.0843
10643TIP3   OH253419   3.985   4.392  11.443  0.2689  0.0872  0.0923
10643TIP3    H153420   3.894   4.367  11.425  0.2187  0.3217  0.0114
10643TIP3    H253421   4.035   4.312  11.428  0.1937  0.1930 -0.8220
10644TIP3   OH253422   3.024   1.206  10.832  0.3024 -0.4515 -0.5324
10644TIP3    H153423   2.964   1.268  10.790  0.6397  0.2386 -0.0220
10644TIP3    H253424   3.089   1.186  10.765 -0.2514 -0.8709 -0.9527
10645TIP3   OH253425   0.250   4.304  12.740 -0.7176 -0.1092  0.1332
10645TIP3    H153426   0.342   4.300  12.767 -0.3668 -1.1072 -1.0665
10645TIP3    H253427   0.202   4.324  12.820  0.6093  1.3620  0.6143
10646TIP3   OH253428   3.183   6.313   2.828 -0.4850  0.4435 -0.7073
10646TIP3    H153429   3.150   6.224   2.838  0.7426  0.1139  0.8230
10646TIP3    H253430   3.125   6.367   2.883  0.6141  0.0683  0.8975
10647TIP3   OH253431   5.695   0.765  14.612 -0.5023 -0.1798  0.0261
10647TIP3    H153432   5.759   0.722  14.669  0.9021  0.1651 -1.2264
10647TIP3    H253433   5.713   0.859  14.622  0.6022 -0.1308 -1.8083
10648TIP3   OH253434   6.365   1.595  14.574 -0.6035  0.4725 -0.1877
10648TIP3    H153435   6.433   1.581  14.508  1.3624 -0.1045  1.8334
10648TIP3    H253436   6.354   1.690  14.578 -1.6128  0.4681 -2.1122
10649TIP3   OH253437   2.547   3.693  12.578  0.0278 -0.8074 -0.1371
10649TIP3    H153438   2.478   3.759  12.571 -0.0832 -0.9385 -0.3199
10649TIP3    H253439   2.535   3.639  12.500  0.1286 -1.0316  0.0028
10650TIP3   OH253440   3.600   5.312  14.522 -0.2570 -0.5380  0.1629
10650TIP3    H153441   3.519   5.270  14.493  0.2955 -2.1380  0.8042
10650TIP3    H253442   3.643   5.246  14.576  0.8574  0.7594  0.9232
10651TIP3   OH253443   4.319   4.926  14.971  0.0362 -0.8696 -0.2763
10651TIP3    H153444   4.335   4.834  14.948  2.3407 -0.3153 -1.1253
10651TIP3    H253445   4.285   4.964  14.890  1.2468 -0.4980 -0.6208
10652TIP3   OH253446   3.907   4.624  16.623 -0.1613  0.1993 -0.3025
10652TIP3    H153447   3.874   4.645  16.711  1.5161 -1.4178  0.7919
10652TIP3    H253448   3.893   4.704  16.572 -1.3287  1.1262  1.3840
10653TIP3   OH253449   3.021   1.762   0.797  0.3575 -0.0555 -0.1937
10653TIP3    H153450   2.973   1.755   0.714 -0.4118  0.1230  0.2320
10653TIP3    H253451   3.073   1.681   0.800  0.4420 -0.0369 -0.8765
10654TIP3   OH253452   4.739   5.272   2.739  0.3112  0.2304  0.4819
10654TIP3    H153453   4.684   5.245   2.666  4.4124  0.5861 -3.1529
10654TIP3    H253454   4.740   5.196   2.798 -1.6295 -0.8657 -0.7943
10655TIP3   OH253455   0.404   0.869   0.750 -0.6349 -0.3026  0.2454
10655TIP3    H153456   0.431   0.921   0.825 -0.6511  1.3376 -0.8154
10655TIP3    H253457   0.479   0.813   0.730 -0.5022 -0.4929  1.2362
10656TIP3   OH253458   4.385   5.602  13.160 -0.6667 -0.1133  0.2043
10656TIP3    H153459   4.353   5.673  13.104 -1.8133  0.3963  1.4606
10656TIP3    H253460   4.340   5.615  13.243 -0.0644 -1.6819  0.8055
10657TIP3   OH253461   3.378   3.939  13.866 -0.5059  0.2500  0.3038
10657TIP3    H153462   3.289   3.909  13.850 -0.9022 -0.1422  2.8533
10657TIP3    H253463   3.422   3.863  13.905  1.2460  0.1608 -1.6763
10658TIP3   OH253464   6.206   3.984  13.956  0.6603 -0.1634 -0.2876
10658TIP3    H153465   6.262   3.946  13.889 -2.0117 -0.4310 -2.5692
10658TIP3    H253466   6.117   3.961  13.929 -0.8369  3.3264  0.9970
10659TIP3   OH253467   2.453   4.822   4.530  0.1619 -0.1839 -0.6920
10659TIP3    H153468   2.365   4.788   4.547  0.2880 -0.3002 -0.2570
10659TIP3    H253469   2.512   4.752   4.558  0.4123  0.2350 -0.1421
10660TIP3   OH253470   6.558   0.223  11.796 -0.4342  0.4768 -0.1486
10660TIP3    H153471   6.492   0.277  11.753  0.2966  1.6834  0.1975
10660TIP3    H253472   6.569   0.148  11.738  0.3407  1.9175 -1.9845
10661TIP3   OH253473   3.545   0.359  15.617  0.2786 -0.0260 -0.3477
10661TIP3    H153474   3.483   0.399  15.555  0.8320  0.6209 -0.4949
10661TIP3    H253475   3.520   0.267  15.619 -1.4905  0.4244  0.5349
10662TIP3   OH253476   2.218   0.467   1.767 -0.2648  0.1183 -0.0554
10662TIP3    H153477   2.258   0.439   1.685  1.1550 -1.1076  0.9870
10662TIP3    H253478   2.164   0.394   1.794 -1.0502  0.6786 -0.0856
10663TIP3   OH253479   1.704   0.521  16.562 -0.2356  0.0177  0.3411
10663TIP3    H153480   1.731   0.574  16.487  0.7344 -0.0830  0.5936
10663TIP3    H253481   1.650   0.580  16.615 -2.2996 -0.4088 -1.2166
10664TIP3   OH253482   1.751   4.472  13.171 -0.1467  0.1713 -0.0634
10664TIP3    H153483   1.796   4.498  13.251  2.4224  1.4662 -1.7734
10664TIP3    H253484   1.728   4.381  13.185 -0.1239  0.4612  2.2737
10665TIP3   OH253485   3.023   5.620  12.779  0.0183  0.2221 -0.5510
10665TIP3    H153486   2.984   5.623  12.692 -0.4042 -0.8626 -0.4163
10665TIP3    H253487   2.951   5.643  12.838  0.3652  1.2056 -0.4826
10666TIP3   OH253488   1.475   0.078  14.104 -0.3392 -0.2145  0.3017
10666TIP3    H153489   1.546   0.100  14.043 -2.0265  1.8897 -1.0486
10666TIP3    H253490   1.403   0.051  14.048 -1.3221 -0.1366  1.4803
10667TIP3   OH253491   4.446   0.063  10.432 -0.4599 -0.3152  0.1481
10667TIP3    H153492   4.400   0.064  10.516  0.5756 -0.2716  0.7349
10667TIP3    H253493   4.470  -0.028  10.418  0.2334 -0.1820  0.4037
10668TIP3   OH253494   3.686   4.066  13.518  0.4743 -0.3005 -0.0893
10668TIP3    H153495   3.649   3.981  13.542  1.2655 -1.0671 -1.4395
10668TIP3    H253496   3.672   4.072  13.423  3.1081 -0.3345 -0.5580
10669TIP3   OH253497   1.716   5.430   4.166 -0.0933  0.2210  0.1962
10669TIP3    H153498   1.741   5.449   4.076  0.3237 -1.2340 -0.0229
10669TIP3    H253499   1.667   5.507   4.194 -3.3493 -0.6655 -2.4524
10670TIP3   OH253500   5.129   2.786  14.368 -0.1790  1.1197  0.4762
10670TIP3    H153501   5.036   2.801  14.382 -0.1354  1.4930  0.3868
10670TIP3    H253502   5.143   2.694  14.391 -0.7952  0.7210 -0.6471
10671TIP3   OH253503   4.571   3.380  10.969 -0.5673 -0.2309  0.0497
10671TIP3    H153504   4.626   3.436  10.914 -0.1369  1.8776  2.4223
10671TIP3    H253505   4.522   3.326  10.907 -1.5702  3.3090 -2.5688
10672TIP3   OH253506   6.433   5.767  13.074 -0.2453  0.0505 -0.3794
10672TIP3    H153507   6.342   5.761  13.103 -0.4674  1.1269 -0.8244
10672TIP3    H253508   6.483   5.772  13.155 -0.7481  1.5372 -0.1406
10673TIP3   OH253509   5.804   1.469  13.452  0.0826  0.4903 -0.0256
10673TIP3    H153510   5.792   1.394  13.395 -1.5551 -0.0805  0.9771
10673TIP3    H253511   5.751   1.448  13.529  1.3189  1.7207  1.2102
10674TIP3   OH253512   4.521   3.099   0.579  0.3481  0.5842 -0.0547
10674TIP3    H153513   4.609   3.067   0.598  1.6390  4.0382  0.5135
10674TIP3    H253514   4.512   3.090   0.484  1.2212  0.0459 -0.0981
10675TIP3   OH253515   2.702   3.689   3.349 -0.3799  0.4295  0.0938
10675TIP3    H153516   2.682   3.724   3.262 -1.8813  0.4167  0.4214
10675TIP3    H253517   2.698   3.594   3.338 -0.2789  0.4216  0.1205
10676TIP3   OH253518   2.969   1.318  12.741  0.8284 -0.0521  0.4996
10676TIP3    H153519   3.029   1.265  12.689  0.4997  0.5021 -0.4613
10676TIP3    H253520   2.911   1.254  12.784 -0.2410 -0.4620 -1.4653
10677TIP3   OH253521   2.225   4.357  16.387  0.0582  0.3259 -0.1194
10677TIP3    H153522   2.166   4.347  16.313  1.1522  0.2733 -1.0131
10677TIP3    H253523   2.255   4.448  16.382 -0.4122  0.5421  0.7055
10678TIP3   OH253524   3.240   1.866   6.410 -0.6064 -0.3401 -0.2439
10678TIP3    H153525   3.172   1.902   6.467 -0.3348 -0.9943  0.5092
10678TIP3    H253526   3.240   1.924   6.333 -0.4726  1.0111  0.7377
10679TIP3   OH253527   2.393   6.403   2.483 -0.0976 -0.2392  0.0432
10679TIP3    H153528   2.420   6.358   2.563  0.4125 -1.1670 -0.6395
10679TIP3    H253529   2.378   6.494   2.511 -0.9292 -0.7565  1.3952
10680TIP3   OH253530   0.386   6.565  13.558  0.1403 -0.3743 -0.0415
10680TIP3    H153531   0.357   6.629  13.493  0.1566  0.1917  0.4984
10680TIP3    H253532   0.481   6.579  13.564 -0.1163  1.0039  1.5742
10681TIP3   OH253533   6.363   3.604  15.682  0.0102  0.5198 -0.1198
10681TIP3    H153534   6.351   3.666  15.754  1.4710  2.6396 -1.5801
10681TIP3    H253535   6.274   3.589  15.648 -0.8269 -1.1554  2.4790
10682TIP3   OH253536   5.867   1.714  13.359  0.6866  0.2778  0.3838
10682TIP3    H153537   5.846   1.636  13.410  0.1912  0.3647  0.3136
10682TIP3    H253538   5.836   1.695  13.271 -0.5476  1.0218  0.6430
10683TIP3   OH253539   0.803   4.180   2.043  0.1094 -0.1569 -0.3800
10683TIP3    H153540   0.879   4.125   2.028  0.5815  0.1586  0.7703
10683TIP3    H253541   0.728   4.121   2.037  0.5972 -0.9058  0.6925
10684TIP3   OH253542   5.643   0.992   3.516 -0.2830  0.3216 -0.6666
10684TIP3    H153543   5.593   0.972   3.437 -0.4307  2.9653 -1.3368
10684TIP3    H253544   5.588   0.961   3.588 -0.6301 -1.1693 -1.5323
10685TIP3   OH253545   1.898   3.688  15.035 -0.1642 -0.3292  0.3716
10685TIP3    H153546   1.914   3.660  15.125  1.5973 -1.9506 -0.3954
10685TIP3    H253547   1.873   3.609  14.988 -1.4945  0.5658 -0.5392
10686TIP3   OH253548   0.821   2.285  14.016  0.1837 -0.4068 -0.2144
10686TIP3    H153549   0.782   2.325  13.938  1.0982  0.7463 -0.1024
10686TIP3    H253550   0.763   2.211  14.036 -3.6034  2.6294  1.4571
10687TIP3   OH253551   3.071   4.435   1.359  0.1633  0.3419  0.7705
10687TIP3    H153552   3.141   4.376   1.333  0.2865  0.6899  0.2947
10687TIP3    H253553   3.041   4.474   1.277 -0.6147  0.1698  0.9609
10688TIP3   OH253554   5.427   2.254   6.141 -0.5710 -0.3140  0.5428
10688TIP3    H153555   5.389   2.331   6.183  0.2111  0.4555 -0.1201
10688TIP3    H253556   5.514   2.246   6.180  0.0348  0.2083 -0.6545
10689TIP3   OH253557   6.701   3.209   0.148  0.3117  0.4872 -0.1703
10689TIP3    H153558   6.662   3.286   0.106 -0.4534 -0.2285 -0.7944
10689TIP3    H253559   6.654   3.201   0.231  1.9377  1.9995  0.9676
10690TIP3   OH253560   5.647   2.829  14.703 -0.2297 -0.1181 -0.1009
10690TIP3    H153561   5.577   2.822  14.768 -0.4721  0.3843 -0.3025
10690TIP3    H253562   5.628   2.910  14.656  0.3019 -0.1507 -0.3795
10691TIP3   OH253563   4.223   5.705   5.665 -0.8116  0.1503 -0.1304
10691TIP3    H153564   4.191   5.754   5.741 -2.1359  1.5219 -1.5052
10691TIP3    H253565   4.250   5.773   5.603  0.6053 -0.9475 -0.7755
10692TIP3   OH253566   3.198   0.825  16.459  0.2748  0.3630  0.2969
10692TIP3    H153567   3.190   0.730  16.453 -1.6107  0.3377  2.0019
10692TIP3    H253568   3.192   0.843  16.553 -0.2166  2.2204 -0.0564
10693TIP3   OH253569   0.635   5.681   0.971  0.3101  0.1861 -0.3149
10693TIP3    H153570   0.576   5.624   1.021  0.6180  0.1207 -0.0191
10693TIP3    H253571   0.580   5.753   0.942  0.4245  1.0136  1.3892
10694TIP3   OH253572   2.728   6.610  13.091 -0.1413 -0.2973  0.0761
10694TIP3    H153573   2.633   6.598  13.093  0.0356 -1.9354 -0.2166
10694TIP3    H253574   2.747   6.663  13.169 -1.4078  1.1090 -0.5306
10695TIP3   OH253575   3.735   6.888  15.519  0.5574  0.0643  0.0254
10695TIP3    H153576   3.821   6.929  15.515  0.2952  0.6470  0.2101
10695TIP3    H253577   3.692   6.931  15.593 -0.3232  0.6442 -0.7993
10696TIP3   OH253578   2.342   3.731   2.963 -0.1221  0.1449 -0.3041
10696TIP3    H153579   2.359   3.736   2.869  0.5851 -0.9550 -0.2595
10696TIP3    H253580   2.258   3.776   2.975 -1.5845 -1.9460 -1.8734
10697TIP3   OH253581   1.351   1.437  16.007 -0.2336 -1.0590  0.5467
10697TIP3    H153582   1.282   1.456  15.944 -0.9080 -3.5026  0.4512
10697TIP3    H253583   1.309   1.448  16.093  0.3920  1.2159  0.6261
10698TIP3   OH253584   0.408   3.860  13.722  0.1856 -0.5875  0.6347
10698TIP3    H153585   0.409   3.765  13.721  0.2759 -0.6159 -1.2882
10698TIP3    H253586   0.482   3.885  13.666 -0.4157  0.5771  0.3142
10699TIP3   OH253587   5.461   5.060  10.623  0.0329  0.2984  0.2892
10699TIP3    H153588   5.379   5.031  10.664 -1.8288  2.1451 -1.8374
10699TIP3    H253589   5.479   4.994  10.556  0.0915  0.0857  0.5117
10700TIP3   OH253590   2.343   3.601   2.386 -0.0827 -0.0755  0.1624
10700TIP3    H153591   2.435   3.584   2.407  0.8860 -1.3358 -4.0923
10700TIP3    H253592   2.336   3.697   2.384  1.3661  0.0446 -0.1573
10701TIP3   OH253593   1.911   6.249  15.665 -0.4416  0.1712  0.7511
10701TIP3    H153594   1.883   6.157  15.666  0.7374 -0.2054  0.8966
10701TIP3    H253595   1.847   6.293  15.608 -0.2774 -1.0023 -0.3826
10702TIP3   OH253596   2.750   3.626  11.284 -0.0182 -0.3690  0.3431
10702TIP3    H153597   2.782   3.712  11.310  0.2818 -0.5776  0.6841
10702TIP3    H253598   2.712   3.590  11.364  2.0901 -1.5549  0.8963
10703TIP3   OH253599   1.565   0.719  15.781  0.0826  0.6055  0.4320
10703TIP3    H153600   1.470   0.719  15.792 -0.1912  1.5797 -1.5359
10703TIP3    H253601   1.584   0.801  15.736  1.4336 -1.0565 -2.2714
10704TIP3   OH253602   0.838   1.559  16.362 -0.0920  0.6413 -0.4237
10704TIP3    H153603   0.896   1.632  16.341  1.0288  0.1556  0.8364
10704TIP3    H253604   0.768   1.598  16.413 -1.0996  1.2851 -2.2024
10705TIP3   OH253605   5.128   1.129   3.149  0.2279 -0.7583  0.1304
10705TIP3    H153606   5.046   1.157   3.188  0.5368 -1.3099  1.2126
10705TIP3    H253607   5.119   1.035   3.136  1.3624 -1.1947  2.0736
10706TIP3   OH253608   4.692   4.979  13.251 -0.2796 -0.3110  0.7397
10706TIP3    H153609   4.677   4.928  13.330  0.0681 -2.5585 -0.5364
10706TIP3    H253610   4.665   4.921  13.180  2.2951  0.3936 -0.9462
10707TIP3   OH253611   2.524   4.668  11.084 -0.3734 -0.2532  0.1101
10707TIP3    H153612   2.521   4.572  11.086  1.0408 -0.3258 -0.4528
10707TIP3    H253613   2.599   4.688  11.029 -0.3626  1.1869  0.6238
10708TIP3   OH253614   3.133   2.036   4.030  0.5587  0.2257  0.2261
10708TIP3    H153615   3.164   2.052   3.941 -1.1175  0.1731 -0.4037
10708TIP3    H253616   3.080   1.956   4.023  2.0225 -0.9379  1.6862
10709TIP3   OH253617   2.697   0.159  16.811 -0.2759 -0.0322  0.3382
10709TIP3    H153618   2.769   0.221  16.819 -0.6722  0.5725 -0.6747
10709TIP3    H253619   2.666   0.147  16.901  1.1789 -0.4358  0.8093
10710TIP3   OH253620   1.602   4.734   0.788 -0.0674 -0.0901  0.0118
10710TIP3    H153621   1.627   4.723   0.880 -1.3409 -2.7572  0.1642
10710TIP3    H253622   1.662   4.677   0.740  1.3057  2.1127 -1.0376
10711TIP3   OH253623   3.811   5.305   3.602  0.0565  0.1086 -0.9625
10711TIP3    H153624   3.889   5.309   3.547 -0.2796 -1.1880 -1.5776
10711TIP3    H253625   3.818   5.382   3.659  3.0763 -1.2577  0.7444
10712TIP3   OH253626   1.195   0.522  10.922 -0.2015  0.4593  0.2969
10712TIP3    H153627   1.191   0.610  10.886 -0.0856  0.8933  1.3072
10712TIP3    H253628   1.177   0.533  11.016 -3.0284 -0.9147  0.0135
10713TIP3   OH253629   0.224   2.031   2.961 -0.5559  0.0722 -0.2598
10713TIP3    H153630   0.198   1.940   2.972  1.3827 -0.3229  1.8253
10713TIP3    H253631   0.247   2.039   2.868 -1.0044 -1.4904 -0.5198
10714TIP3   OH253632   1.684   1.897   3.012 -0.2821 -0.8249 -0.3471
10714TIP3    H153633   1.715   1.881   3.101  0.3434 -0.5089 -0.5021
10714TIP3    H253634   1.724   1.827   2.960 -1.0242 -1.2886 -0.3100
10715TIP3   OH253635   2.957   2.602  11.002  0.4790  0.2154 -0.1706
10715TIP3    H153636   3.012   2.528  10.976  0.0862 -0.8705  1.8633
10715TIP3    H253637   2.873   2.586  10.958  0.2140 -0.8900  0.6973
10716TIP3   OH253638   2.690   6.846  14.417  0.2635 -0.1724 -0.1326
10716TIP3    H153639   2.713   6.755  14.433  1.0527 -0.0206 -0.3601
10716TIP3    H253640   2.718   6.863  14.327  0.0388  0.2658 -0.1223
10717TIP3   OH253641   6.259   2.877   4.883 -0.6106  0.1688 -0.2450
10717TIP3    H153642   6.278   2.881   4.789 -0.9043  1.0052 -0.2825
10717TIP3    H253643   6.334   2.919   4.925  0.4043 -1.8493  0.0480
10718TIP3   OH253644   5.359   1.540   5.348  0.4009  0.4252 -0.5451
10718TIP3    H153645   5.266   1.555   5.336 -0.0278 -1.0585  0.6201
10718TIP3    H253646   5.401   1.620   5.314 -1.3681  1.7774  0.2886
10719TIP3   OH253647   1.323   0.279  14.383 -0.0116 -0.5311 -0.1510
10719TIP3    H153648   1.253   0.310  14.441 -1.5920 -1.3215 -1.5334
10719TIP3    H253649   1.350   0.195  14.422  0.5642  0.0265  0.6810
10720TIP3   OH253650   4.074   1.819  16.485  0.6961  0.1367  0.2627
10720TIP3    H153651   4.116   1.827  16.570  0.0871 -0.5440  0.6334
10720TIP3    H253652   4.094   1.729  16.457  1.0753  0.4190 -0.4142
10721TIP3   OH253653   5.244   6.543   0.291 -0.1652 -0.0789 -0.2328
10721TIP3    H153654   5.205   6.493   0.362 -0.5508  0.7226  0.1294
10721TIP3    H253655   5.172   6.596   0.257  0.3318  0.5446 -0.3312
10722TIP3   OH253656   2.092   6.002  12.433 -0.0853 -0.2656  0.2262
10722TIP3    H153657   2.102   6.082  12.485  0.5892 -0.0943 -0.1552
10722TIP3    H253658   2.107   6.031  12.343 -0.0270 -0.7921  0.0650
10723TIP3   OH253659   4.193   0.228   2.213  0.0521  0.1130  0.7138
10723TIP3    H153660   4.213   0.320   2.226 -1.6460  0.4486  1.1883
10723TIP3    H253661   4.206   0.187   2.299 -0.9857  0.2883  0.9665
10724TIP3   OH253662   6.144   1.842   0.705  0.3383 -0.0871  0.2443
10724TIP3    H153663   6.218   1.807   0.656 -0.1833 -1.5654  0.4536
10724TIP3    H253664   6.149   1.937   0.692  1.2197 -0.3013 -1.2045
10725TIP3   OH253665   1.962   2.715   5.100  0.4630  0.1442 -0.0512
10725TIP3    H153666   2.035   2.681   5.151  0.0540  0.9511  1.1065
10725TIP3    H253667   1.950   2.805   5.131 -0.9653  0.0534 -0.2755
10726TIP3   OH253668   4.242   4.802  13.592 -0.4704  0.2690  0.5450
10726TIP3    H153669   4.173   4.806  13.659 -0.0758 -0.7081  1.0270
10726TIP3    H253670   4.235   4.886  13.545 -2.9251 -0.3444 -0.3596
10727TIP3   OH253671   4.524   1.818   5.252  0.7394  0.0395  0.1048
10727TIP3    H153672   4.446   1.861   5.287  0.2010 -0.0969 -0.8753
10727TIP3    H253673   4.576   1.796   5.329 -0.5940 -0.6624  0.8454
10728TIP3   OH253674   1.089   5.923   1.445  0.2184 -0.0842  0.3118
10728TIP3    H153675   1.162   5.909   1.504  1.6686  0.9886 -1.1393
10728TIP3    H253676   1.118   5.888   1.361 -1.0769  0.0741 -0.2381
10729TIP3   OH253677   1.149   1.313  15.334  0.2358 -0.1924  0.0262
10729TIP3    H153678   1.133   1.273  15.419 -0.6175 -1.7502 -0.8161
10729TIP3    H253679   1.100   1.258  15.272 -0.9885  2.1552 -1.2317
10730TIP3   OH253680   1.052   6.665   2.448 -0.7443  0.7082 -0.2730
10730TIP3    H153681   1.035   6.689   2.357 -0.5679 -0.7940 -0.7373
10730TIP3    H253682   0.967   6.675   2.491 -1.4418 -0.8654 -1.1843
10731TIP3   OH253683   2.190   6.893  12.777  0.8102  0.2354  0.4049
10731TIP3    H153684   2.223   6.838  12.848 -1.7236 -0.2878  1.2869
10731TIP3    H253685   2.159   6.831  12.711 -1.0217  0.5394  0.9081
10732TIP3   OH253686   2.027   5.940  10.740 -0.5662  0.2654  0.4267
10732TIP3    H153687   2.026   5.844  10.741 -0.8411  0.2196 -1.5348
10732TIP3    H253688   2.086   5.962  10.668 -1.4199  1.5558  0.1053
10733TIP3   OH253689   0.316   3.333  14.669 -0.2118  0.4640 -0.8918
10733TIP3    H153690   0.301   3.300  14.757  2.8770  1.3897  0.0874
10733TIP3    H253691   0.290   3.425  14.673  0.4808  0.6543 -0.7821
10734TIP3   OH253692   2.935   0.723  15.879 -0.8667 -0.1324 -0.1785
10734TIP3    H153693   2.935   0.773  15.961  3.3434 -1.0810  0.6777
10734TIP3    H253694   2.952   0.789  15.812  2.0979  0.1214  0.6451
10735TIP3   OH253695   4.323   1.014  15.699 -0.3694 -0.2746  0.0043
10735TIP3    H153696   4.278   0.939  15.738  0.1635 -0.8610 -0.4901
10735TIP3    H253697   4.254   1.061  15.651 -0.3230 -1.7315 -1.5996
10736TIP3   OH253698   1.081   3.314  12.854  0.5980  0.2640  0.1203
10736TIP3    H153699   1.059   3.334  12.762 -1.5795  0.9062  0.7103
10736TIP3    H253700   1.119   3.395  12.888  1.0840  0.1376 -0.1150
10737TIP3   OH253701   6.631   0.286  14.736 -0.1952  0.0044 -0.8701
10737TIP3    H153702   6.713   0.268  14.782  0.1252  2.5521 -0.3155
10737TIP3    H253703   6.568   0.305  14.805 -0.5143  0.8433 -1.3800
10738TIP3   OH253704   2.519   6.265   4.456 -0.4251 -0.5120 -0.1538
10738TIP3    H153705   2.529   6.293   4.365 -0.9811  0.6532  0.1292
10738TIP3    H253706   2.455   6.325   4.493  1.7237  0.7658  1.7348
10739TIP3   OH253707   4.930   4.884  12.409  0.2682  0.1905 -0.2443
10739TIP3    H153708   4.897   4.794  12.401  0.4461  0.1006 -0.0068
10739TIP3    H253709   4.985   4.882  12.488 -0.1318  0.6378  0.0454
10740TIP3   OH253710   0.242   4.936  14.424 -0.1706  0.0100  0.7658
10740TIP3    H153711   0.314   4.878  14.400  0.5896  1.4149 -0.4955
10740TIP3    H253712   0.242   4.937  14.520  2.4681  1.1103  0.8228
10741TIP3   OH253713   4.877   4.582  14.537 -0.0644  0.3505  0.0895
10741TIP3    H153714   4.924   4.568  14.455 -0.4670  0.0361 -0.0946
10741TIP3    H253715   4.944   4.608  14.600  0.5899 -1.4308  0.1943
10742TIP3   OH253716   1.276   4.388  12.588 -0.6531 -0.6575  0.1733
10742TIP3    H153717   1.332   4.378  12.511  0.0942  0.6724  0.5165
10742TIP3    H253718   1.329   4.358  12.661 -0.2107  0.9257  0.5465
10743TIP3   OH253719   5.166   4.595   0.826  0.3608  0.0451  0.0152
10743TIP3    H153720   5.252   4.566   0.796  0.1703  0.3719 -0.8689
10743TIP3    H253721   5.179   4.617   0.919  1.1882 -0.0544 -0.0699
10744TIP3   OH253722   0.021   5.694  10.751 -0.8162 -0.3842 -0.2691
10744TIP3    H153723  -0.021   5.666  10.670  1.6326 -1.5227 -1.2565
10744TIP3    H253724  -0.003   5.626  10.814 -0.5882 -0.9675 -0.7913
10745TIP3   OH253725   3.744   0.873   5.450 -0.0730  0.4482  0.1946
10745TIP3    H153726   3.698   0.809   5.397  0.2219  1.5839 -1.5169
10745TIP3    H253727   3.685   0.890   5.524 -1.7532  0.7870 -1.1663
10746TIP3   OH253728   1.968   0.530  12.902 -0.2603  0.0293  0.1501
10746TIP3    H153729   1.881   0.567  12.915 -0.0791  1.1021 -1.4650
10746TIP3    H253730   1.967   0.450  12.955 -1.9479  0.4164  0.7830
10747TIP3   OH253731   2.033   1.470   1.728 -0.6992 -0.7426  0.4922
10747TIP3    H153732   2.093   1.395   1.726 -0.6592 -0.6981 -0.4811
10747TIP3    H253733   2.075   1.535   1.671 -1.4304 -0.5278  0.1915
10748TIP3   OH253734   0.430   4.627  10.604  0.1984  0.0891  0.3831
10748TIP3    H153735   0.496   4.562  10.578  0.8708  0.9681 -0.1581
10748TIP3    H253736   0.474   4.711  10.593 -1.4594  0.8028 -1.4178
10749TIP3   OH253737   1.528   4.694   3.950  0.1110  0.2064  0.0722
10749TIP3    H153738   1.553   4.612   3.907 -1.5877  0.2111 -1.0282
10749TIP3    H253739   1.467   4.667   4.019 -3.4596  0.6013 -2.5882
10750TIP3   OH253740   5.904   3.876   3.749 -0.3018 -0.1424  0.0106
10750TIP3    H153741   5.865   3.939   3.688  0.6227 -0.5472 -1.0399
10750TIP3    H253742   5.857   3.890   3.831 -2.4452 -0.3818 -1.0950
10751TIP3   OH253743   4.371   6.435   0.663 -0.2946  0.1734  0.8104
10751TIP3    H153744   4.380   6.522   0.702  0.9836  0.3576  0.1685
10751TIP3    H253745   4.353   6.451   0.570  1.9936 -0.1731  0.2381
10752TIP3   OH253746   1.605   0.490  10.113  0.0009  0.2821 -0.1309
10752TIP3    H153747   1.548   0.459  10.043  0.6980  0.6807 -0.8919
10752TIP3    H253748   1.588   0.584  10.118 -1.0403  0.0477  1.1778
10753TIP3   OH253749   4.865   1.360   4.746  0.0285 -0.4169  0.3730
10753TIP3    H153750   4.778   1.399   4.737  0.7825  1.7735  1.8309
10753TIP3    H253751   4.925   1.434   4.736  1.7095 -1.8086 -0.1264
10754TIP3   OH253752   1.989   6.459   2.343  0.7397  0.5953  0.0659
10754TIP3    H153753   1.978   6.532   2.281  0.4480 -2.2117 -3.5157
10754TIP3    H253754   1.914   6.466   2.401 -1.5180  0.9990 -2.6945
10755TIP3   OH253755   3.136   0.845   0.119  0.8167  0.0766  0.4274
10755TIP3    H153756   3.086   0.912   0.074  0.6041  0.1720  0.7969
10755TIP3    H253757   3.074   0.772   0.131  0.3538  0.6849  2.0275
10756TIP3   OH253758   6.350   6.698  14.365 -0.3231 -0.1594  0.6166
10756TIP3    H153759   6.408   6.653  14.427  0.8449  0.3584 -0.0817
10756TIP3    H253760   6.374   6.791  14.372 -1.2008  0.0953  0.4440
10757TIP3   OH253761   6.412   1.631  15.586 -0.0895 -0.1780  0.4980
10757TIP3    H153762   6.365   1.695  15.639 -0.0103 -0.6032  1.0934
10757TIP3    H253763   6.440   1.564  15.649 -1.0920 -1.3576 -0.2726
10758TIP3   OH253764   3.983   5.014   3.903  0.1217 -0.3295 -0.2764
10758TIP3    H153765   3.949   5.018   3.993 -0.5621 -1.6277 -0.4500
10758TIP3    H253766   3.914   4.970   3.854  0.3533  0.6592 -1.5297
10759TIP3   OH253767   2.526   5.522   3.595 -0.5131  0.3909 -0.2504
10759TIP3    H153768   2.560   5.611   3.588  1.4147 -0.1177  1.6086
10759TIP3    H253769   2.460   5.526   3.664  2.0912 -0.1232  2.5204
10760TIP3   OH253770   0.294   1.799  12.102 -0.4127 -0.7687 -0.2489
10760TIP3    H153771   0.298   1.860  12.029 -0.5422  1.8869  1.8356
10760TIP3    H253772   0.385   1.771  12.115 -0.2367 -0.4238 -0.7306
10761TIP3   OH253773   4.323   1.511  11.798  0.2039  0.0501 -0.1882
10761TIP3    H153774   4.292   1.546  11.714 -1.9208  0.0925  0.5340
10761TIP3    H253775   4.244   1.473  11.838  1.8591 -3.2196  0.2628
10762TIP3   OH253776   2.300   3.561  12.753  0.5234  0.0430  0.3612
10762TIP3    H153777   2.311   3.527  12.842  0.8694  1.3043  0.8170
10762TIP3    H253778   2.334   3.492  12.696  0.7161 -0.5885  1.2292
10763TIP3   OH253779   5.283   6.557   0.678 -0.2470  0.0940 -0.0320
10763TIP3    H153780   5.327   6.483   0.636  1.2744  1.1407 -0.3664
10763TIP3    H253781   5.326   6.634   0.642 -0.5819  1.1018  1.6402
10764TIP3   OH253782   4.690   0.996  13.227 -0.5933 -0.0403 -0.3087
10764TIP3    H153783   4.640   0.918  13.250 -2.6417  0.6761 -2.0045
10764TIP3    H253784   4.708   1.039  13.310 -0.2577 -1.7869  0.5769
10765TIP3   OH253785   3.070   5.238   5.408 -0.2368  0.5529 -0.6772
10765TIP3    H153786   3.148   5.287   5.435 -0.8330  0.8270  0.6468
10765TIP3    H253787   2.999   5.278   5.458 -0.7727 -1.5399  0.3455
10766TIP3   OH253788   2.238   0.846   2.800 -0.1179  0.0341  0.2229
10766TIP3    H153789   2.222   0.856   2.707 -0.5267 -0.8094  0.1922
10766TIP3    H253790   2.170   0.898   2.842  2.1797  3.4867  0.1030
10767TIP3   OH253791   1.226   2.977  13.450 -0.6641  0.4080  0.8075
10767TIP3    H153792   1.204   2.992  13.358 -0.1870 -2.2330  0.1916
10767TIP3    H253793   1.278   3.053  13.475 -1.9303  1.8416 -0.6665
10768TIP3   OH253794   4.381   5.645  13.588 -0.6254  0.0909  0.2696
10768TIP3    H153795   4.451   5.694  13.630 -0.2333  0.9312 -1.2724
10768TIP3    H253796   4.425   5.575  13.541 -1.1138 -1.2513  1.7180
10769TIP3   OH253797   1.409   4.145  10.540 -0.4137  0.0220 -0.2940
10769TIP3    H153798   1.441   4.189  10.619 -0.5029  0.2325 -0.3736
10769TIP3    H253799   1.472   4.170  10.472 -2.0556  2.5014 -1.0438
10770TIP3   OH253800   3.214   5.703  15.722  0.0494 -0.1611  0.0931
10770TIP3    H153801   3.254   5.661  15.646  1.0243  2.0368 -0.6855
10770TIP3    H253802   3.286   5.716  15.783 -0.3195 -0.0387  0.5070
10771TIP3   OH253803   5.098   4.900   2.526 -0.6021 -0.3471 -0.7370
10771TIP3    H153804   5.112   4.927   2.435 -0.9417  0.9000 -0.4483
10771TIP3    H253805   5.053   4.975   2.566 -1.0213 -1.1307  0.3024
10772TIP3   OH253806   2.239   1.833   4.796 -0.2724  0.0243 -0.3065
10772TIP3    H153807   2.188   1.756   4.770  0.3429 -0.4887 -0.0270
10772TIP3    H253808   2.221   1.843   4.890  0.0701 -0.1011 -0.2282
10773TIP3   OH253809   6.733   1.847  14.598  0.1324  0.2384  0.3040
10773TIP3    H153810   6.828   1.859  14.605  0.0493  1.1696 -0.0136
10773TIP3    H253811   6.698   1.887  14.677 -0.0160  0.3107  0.2033
10774TIP3   OH253812   0.355   1.099   2.794 -0.2322 -0.4562 -0.1819
10774TIP3    H153813   0.383   1.147   2.872 -1.8512 -0.7659  0.6157
10774TIP3    H253814   0.369   1.161   2.722 -1.2064  0.8301  0.6886
10775TIP3   OH253815   1.151   1.755  13.859 -0.1278  0.2585 -0.1925
10775TIP3    H153816   1.111   1.772  13.945  0.3037 -0.2435  0.1139
10775TIP3    H253817   1.138   1.837  13.811 -0.4754  0.5101  0.3095
10776TIP3   OH253818   5.961   3.977   3.002 -0.4053  0.5338  0.0813
10776TIP3    H153819   5.974   4.045   3.068  0.2097  0.6215 -0.1216
10776TIP3    H253820   6.049   3.956   2.971 -0.7728  1.8975 -2.1063
10777TIP3   OH253821   4.429   5.893  12.162  0.0787 -0.7461 -0.1974
10777TIP3    H153822   4.410   5.799  12.160 -0.4944 -0.6253 -1.2755
10777TIP3    H253823   4.399   5.922  12.248 -1.1590 -1.2783 -0.4294
10778TIP3   OH253824   1.282   1.015  10.438 -0.5929  0.3156  0.0514
10778TIP3    H153825   1.268   0.922  10.456  1.0268  0.1541  0.5994
10778TIP3    H253826   1.361   1.037  10.488  0.1813  1.5126 -1.6436
10779TIP3   OH253827   6.211   5.109   4.329  0.2336  0.1264 -0.0092
10779TIP3    H153828   6.188   5.044   4.261 -0.8248 -0.4325  0.8580
10779TIP3    H253829   6.297   5.141   4.302 -1.0131  1.4878 -2.8038
10780TIP3   OH253830   1.644   0.627  16.036 -0.2903  0.0723  0.5491
10780TIP3    H153831   1.649   0.687  16.110  0.7653 -0.1158  0.6443
10780TIP3    H253832   1.628   0.683  15.960  3.5843  0.9371  0.1498
10781TIP3   OH253833   3.173   0.861   4.344  0.1310  0.3336 -0.3860
10781TIP3    H153834   3.267   0.879   4.339 -0.1184  1.9325  0.2822
10781TIP3    H253835   3.132   0.934   4.298 -0.8740  0.9290  1.3486
10782TIP3   OH253836   1.044   3.310  16.699  0.5933  0.1425  0.5998
10782TIP3    H153837   1.113   3.244  16.694  0.1039 -0.2989 -0.4110
10782TIP3    H253838   0.963   3.263  16.684  0.1217  0.7811  1.0755
10783TIP3   OH253839   0.949   4.708  15.531 -0.0321  0.0057 -0.1552
10783TIP3    H153840   1.037   4.723  15.564 -0.3889  0.6396  0.5267
10783TIP3    H253841   0.935   4.614  15.542  0.0992  0.1024  0.9075
10784TIP3   OH253842   3.701   5.493  11.192 -0.4588 -0.1431  0.1709
10784TIP3    H153843   3.632   5.553  11.220  0.0167 -0.2715  1.7148
10784TIP3    H253844   3.690   5.416  11.247  1.9299  0.5005  1.7388
10785TIP3   OH253845   0.949   5.112   0.715 -0.4624  0.5609 -0.1848
10785TIP3    H153846   0.983   5.137   0.629  1.6619 -1.0437  0.1088
10785TIP3    H253847   0.885   5.180   0.736 -3.2221 -0.4198 -4.2398
10786TIP3   OH253848   0.688   3.600  15.243  0.5091  0.2143 -0.6530
10786TIP3    H153849   0.621   3.625  15.306  0.4856  2.2516 -1.4146
10786TIP3    H253850   0.641   3.557  15.171  0.5550 -2.2979  0.6885
10787TIP3   OH253851   4.606   5.717  15.898  0.3135  0.2107  0.5150
10787TIP3    H153852   4.613   5.811  15.917 -0.6745  0.3748  0.1481
10787TIP3    H253853   4.599   5.712  15.803 -0.6159 -0.1447  0.5872
10788TIP3   OH253854   4.712   2.994   3.767 -0.5627  0.4676  0.0646
10788TIP3    H153855   4.667   2.979   3.684  0.5105 -0.5398 -0.3611
10788TIP3    H253856   4.704   3.088   3.782 -0.0847  0.8052 -1.5959
10789TIP3   OH253857   5.512   5.034   3.903 -0.9126  0.6046  0.0635
10789TIP3    H153858   5.430   5.029   3.952  0.3923 -0.0471  2.3367
10789TIP3    H253859   5.524   4.946   3.868 -1.2973  0.7674 -0.4829
10790TIP3   OH253860   4.192   3.784   3.906 -0.3955  0.1737  0.2156
10790TIP3    H153861   4.189   3.770   3.811 -1.7525 -0.0614  0.2726
10790TIP3    H253862   4.273   3.741   3.934  0.2768  0.6674 -0.8883
10791TIP3   OH253863   5.378   2.182  12.906  0.4653  0.5169 -0.7757
10791TIP3    H153864   5.314   2.203  12.838  1.3225 -0.0018 -1.7476
10791TIP3    H253865   5.325   2.145  12.977 -0.6049  2.2800 -0.5695
10792TIP3   OH253866   4.820   1.015  14.226  0.2372  0.0361 -0.0787
10792TIP3    H153867   4.782   0.929  14.244  0.2247 -0.0281 -0.4180
10792TIP3    H253868   4.762   1.053  14.159  0.2084  0.3316  0.1111
10793TIP3   OH253869   6.576   1.018   0.131  0.1617  0.0396  1.0110
10793TIP3    H153870   6.627   0.971   0.066 -2.4571 -0.7250 -0.6480
10793TIP3    H253871   6.636   1.084   0.166  1.9706 -0.1884 -1.4220
10794TIP3   OH253872   3.100   1.152  16.484 -0.2766  0.1773 -0.2158
10794TIP3    H153873   3.176   1.137  16.428 -0.7460 -1.3097 -0.5245
10794TIP3    H253874   3.074   1.242  16.467  0.9860  0.4833 -0.6270
10795TIP3   OH253875   0.885   1.334   4.572 -0.7199  0.1016  0.0714
10795TIP3    H153876   0.962   1.390   4.585  0.5352 -1.5574  0.1842
10795TIP3    H253877   0.857   1.353   4.482  0.8093 -0.3515 -0.5447
10796TIP3   OH253878   6.241   5.373   1.418  0.0243 -0.1144  0.1551
10796TIP3    H153879   6.260   5.291   1.373  1.5457  1.0250 -1.4206
10796TIP3    H253880   6.150   5.393   1.393  0.7238  0.3351 -2.3207
10797TIP3   OH253881   0.622   1.506   3.598  0.5043 -0.2573  0.3859
10797TIP3    H153882   0.534   1.525   3.631  1.0830 -0.4087  2.1188
10797TIP3    H253883   0.607   1.457   3.517 -0.9818  1.7124 -0.5976
10798TIP3   OH253884   1.750   2.295   1.290  0.0913  0.1779  0.3339
10798TIP3    H153885   1.727   2.251   1.372 -0.7885 -2.0491 -1.0163
10798TIP3    H253886   1.666   2.316   1.250  0.5086  2.1687  0.4034
10799TIP3   OH253887   5.944   3.858   4.450  1.0847 -0.1069 -0.6050
10799TIP3    H153888   5.920   3.795   4.518 -0.4364 -0.4295 -1.3920
10799TIP3    H253889   5.963   3.938   4.498  0.1570 -0.3644  0.2370
10800TIP3   OH253890   5.370   6.533  11.946 -0.3182 -0.2515 -0.1196
10800TIP3    H153891   5.460   6.560  11.930 -0.6437 -0.3715 -2.5453
10800TIP3    H253892   5.368   6.509  12.038  1.4940  2.0968  0.6373
10801TIP3   OH253893   4.841   3.864   0.755 -0.4370 -0.1930  0.1393
10801TIP3    H153894   4.801   3.908   0.680 -2.5460 -0.7085  0.8654
10801TIP3    H253895   4.864   3.935   0.815 -3.1165  0.0946  0.9746
10802TIP3   OH253896   4.522   3.057  11.153 -0.8050 -0.8415  0.3011
10802TIP3    H153897   4.440   3.082  11.110 -0.6629  0.3954  0.6930
10802TIP3    H253898   4.553   3.138  11.194  1.5205 -0.8061 -1.2951
10803TIP3   OH253899   2.969   5.917  16.497  0.4728  0.3482  0.0534
10803TIP3    H153900   2.887   5.896  16.540 -0.6776  1.5158 -1.4475
10803TIP3    H253901   3.031   5.931  16.568 -1.1419  1.4521  1.3270
10804TIP3   OH253902   3.315   6.209   4.491  0.2241 -0.4156  0.0664
10804TIP3    H153903   3.280   6.153   4.422  1.7132  0.4780 -1.4773
10804TIP3    H253904   3.275   6.294   4.476  3.9459  1.1159 -2.7895
10805TIP3   OH253905   3.867   6.774  13.225 -0.1372  0.1993 -0.2436
10805TIP3    H153906   3.896   6.860  13.195  2.5039  0.0822  1.6434
10805TIP3    H253907   3.948   6.726  13.245 -1.5454 -2.3521 -0.1528
10806TIP3   OH253908   5.177   0.480   4.815 -0.3566 -0.4770  0.0749
10806TIP3    H153909   5.160   0.534   4.893  1.1003  1.3393 -0.7755
10806TIP3    H253910   5.094   0.482   4.766 -0.3754  0.9998  0.1102
10807TIP3   OH253911   1.820   0.828  12.024 -0.7999  0.4157  0.3939
10807TIP3    H153912   1.768   0.855  12.100  2.3113  1.9871  2.1412
10807TIP3    H253913   1.794   0.737  12.009 -0.4861 -0.5015  4.4106
10808TIP3   OH253914   0.208   2.887   3.933 -0.1643  0.2176  0.6702
10808TIP3    H153915   0.152   2.921   4.003 -0.7620 -2.6891  1.7491
10808TIP3    H253916   0.296   2.918   3.955 -0.7664  1.7988  0.9980
10809TIP3   OH253917   0.120   5.128   1.212 -0.6423 -0.7304 -0.4013
10809TIP3    H153918   0.026   5.135   1.228 -0.8614  0.2453 -1.8694
10809TIP3    H253919   0.134   5.181   1.133  1.3347  0.2175  0.5171
10810TIP3   OH253920   2.506   3.388   0.091 -0.1529 -0.0336 -0.2272
10810TIP3    H153921   2.488   3.396  -0.003 -0.1891  2.7756 -0.0473
10810TIP3    H253922   2.428   3.424   0.134  0.1436 -0.6623  0.8784
10811TIP3   OH253923   3.792   3.287   0.255  0.0126 -0.2849  0.4003
10811TIP3    H153924   3.828   3.322   0.337 -1.7733  0.2935  0.9908
10811TIP3    H253925   3.733   3.218   0.284 -2.7045  1.6588 -0.1131
10812TIP3   OH253926   2.948   6.147  12.989  0.1535 -0.5996  0.2700
10812TIP3    H153927   2.917   6.231  13.023  0.3539 -0.1375 -0.6718
10812TIP3    H253928   3.006   6.169  12.916 -1.4419 -1.5741 -1.3953
10813TIP3   OH253929   0.657   5.793  16.805 -0.5552 -0.3633  0.2101
10813TIP3    H153930   0.644   5.704  16.772 -1.7587  0.3170 -1.3164
10813TIP3    H253931   0.568   5.827  16.817 -0.1203  0.8081  0.2200
10814TIP3   OH253932   2.655   5.102   3.403  0.0073  0.2205  0.1603
10814TIP3    H153933   2.684   5.191   3.425 -0.3105  0.2834  0.3243
10814TIP3    H253934   2.713   5.076   3.331 -0.8853  1.1656 -0.9646
10815TIP3   OH253935   2.135   4.031   1.894 -0.2568 -0.2787  0.9578
10815TIP3    H153936   2.074   3.959   1.878 -1.3166  0.1074  2.9774
10815TIP3    H253937   2.081   4.110   1.894  0.6406  0.3632  0.4017
10816TIP3   OH253938   1.520   3.337   1.832  1.1207  0.3478 -0.5811
10816TIP3    H153939   1.564   3.257   1.803  1.2769 -0.3123  1.3085
10816TIP3    H253940   1.588   3.404   1.833  1.6792 -0.2254  0.6061
10817TIP3   OH253941   1.642   6.894   2.478 -0.0196  0.4747 -0.5101
10817TIP3    H153942   1.605   6.811   2.449 -0.4714  0.0676  1.1347
10817TIP3    H253943   1.653   6.884   2.572  3.6119  0.8919 -0.7719
10818TIP3   OH253944   5.449   4.027  14.848  0.0755 -0.6591 -0.1346
10818TIP3    H153945   5.508   4.094  14.885 -0.2778 -0.6055  0.3422
10818TIP3    H253946   5.391   4.076  14.791 -0.5189 -0.4727  0.6174
10819TIP3   OH253947   4.867   0.879  13.918 -0.0078 -0.1259  0.2741
10819TIP3    H153948   4.916   0.871  13.836 -1.0158  0.4556 -0.4074
10819TIP3    H253949   4.934   0.875  13.987  0.9429  0.1821 -0.6095
10820TIP3   OH253950   2.591   0.835  10.949 -0.0585 -0.2798 -0.2720
10820TIP3    H153951   2.536   0.802  11.020 -0.0811 -1.2433 -0.7158
10820TIP3    H253952   2.584   0.768  10.880 -0.7192  1.0229 -1.5315
10821TIP3   OH253953   4.589   5.442  15.943 -0.3919  0.7193 -0.1348
10821TIP3    H153954   4.580   5.533  15.914 -0.4299  1.0940  0.9952
10821TIP3    H253955   4.619   5.448  16.034  1.0330 -0.4218 -0.4889
10822TIP3   OH253956   2.193   3.975   5.453  0.4680  0.4199  0.0278
10822TIP3    H153957   2.149   4.016   5.528 -0.0859 -1.4321  0.7664
10822TIP3    H253958   2.235   4.048   5.408 -2.9343  2.2874 -0.4731
10823TIP3   OH253959   3.595   0.216   0.874 -0.3567  0.6190 -0.0826
10823TIP3    H153960   3.559   0.128   0.864 -0.8587  1.0322 -2.6776
10823TIP3    H253961   3.687   0.202   0.895 -0.6071 -0.4987  0.3644
10824TIP3   OH253962   6.060   0.350   5.202 -0.0561  0.0124  0.0596
10824TIP3    H153963   6.110   0.391   5.132  0.2897  0.2688  0.4535
10824TIP3    H253964   6.048   0.259   5.173 -0.5700  0.2990 -0.6764
10825TIP3   OH253965   5.613   3.812  15.865 -0.5401 -0.3797  0.1784
10825TIP3    H153966   5.607   3.718  15.847 -1.2061 -0.6343  1.5744
10825TIP3    H253967   5.524   3.839  15.885 -0.1325  0.1901  1.3627
10826TIP3   OH253968   0.363   0.017   1.527 -0.2203 -0.3106  0.1408
10826TIP3    H153969   0.362  -0.078   1.515 -1.7304 -0.5094  1.5297
10826TIP3    H253970   0.384   0.029   1.620 -0.9887  0.6800  0.2019
10827TIP3   OH253971   6.901   6.692  16.603 -0.3979  0.2510 -0.1617
10827TIP3    H153972   6.923   6.705  16.511 -1.8288  2.9090 -0.2510
10827TIP3    H253973   6.982   6.713  16.650 -0.1939  0.9107 -0.7796
10828TIP3   OH253974   4.473   6.204  12.117 -0.0223  0.1295 -0.0043
10828TIP3    H153975   4.461   6.155  12.198 -1.0050  1.9475  1.0105
10828TIP3    H253976   4.530   6.149  12.063 -0.1339 -1.5474  1.5287
10829TIP3   OH253977   4.531   3.233  13.361  0.0157 -0.5855 -0.3395
10829TIP3    H153978   4.580   3.204  13.284 -1.4828  0.6809 -1.8437
10829TIP3    H253979   4.535   3.158  13.421  1.7016 -1.4011 -1.3781
10830TIP3   OH253980   3.853   5.063  14.135 -0.1823 -0.1194 -0.3792
10830TIP3    H153981   3.785   5.053  14.202 -0.8447  0.8794 -0.8764
10830TIP3    H253982   3.906   5.137  14.166  0.8834 -1.0589  0.1426
10831TIP3   OH253983   0.679   1.407   0.392 -0.2530  0.6950  0.6902
10831TIP3    H153984   0.742   1.470   0.356 -0.0391  0.5396  0.7867
10831TIP3    H253985   0.680   1.334   0.330  2.1846 -0.8260  2.3543
10832TIP3   OH253986   6.386   4.081  14.398  0.2686  0.0489  0.4943
10832TIP3    H153987   6.353   4.171  14.404 -0.1443  0.0736 -1.4753
10832TIP3    H253988   6.314   4.027  14.432 -0.5151  0.3228 -0.6719
10833TIP3   OH253989   0.167   4.670  15.134  0.1455 -0.4366  0.1487
10833TIP3    H153990   0.200   4.757  15.159  0.4636 -0.0525 -1.4790
10833TIP3    H253991   0.229   4.609  15.174 -1.0474 -0.0731  2.8124
10834TIP3   OH253992   2.241   3.158  11.456  0.0906 -0.3678  0.5351
10834TIP3    H153993   2.209   3.174  11.544 -0.2499  1.3782  0.1181
10834TIP3    H253994   2.254   3.245  11.418 -1.4181 -1.0501 -1.7275
10835TIP3   OH253995   3.275   0.771   2.371 -0.6373  0.4816 -0.3358
10835TIP3    H153996   3.266   0.747   2.463 -0.7869 -0.5507 -0.6114
10835TIP3    H253997   3.274   0.867   2.371  0.8558  0.5286  0.8694
10836TIP3   OH253998   1.765   2.519  12.381  0.0517 -0.5942  0.0782
10836TIP3    H153999   1.671   2.504  12.387 -0.9730  2.6158 -3.4866
10836TIP3    H254000   1.788   2.564  12.462 -1.8578 -0.0958  0.3894
10837TIP3   OH254001   4.642   3.155   2.213  0.2506 -0.4604  0.2954
10837TIP3    H154002   4.694   3.225   2.173  0.8957 -1.1942 -0.1806
10837TIP3    H254003   4.702   3.080   2.217 -1.0171 -1.6223 -1.1459
10838TIP3   OH254004   6.422   3.463  16.610  0.0440  0.1455  0.0224
10838TIP3    H154005   6.503   3.465  16.559  0.4755 -0.5238  0.6572
10838TIP3    H254006   6.370   3.536  16.576 -0.3551 -1.1768 -2.4547
10839TIP3   OH254007   1.381   1.294   5.389  0.1525 -0.2682 -0.0428
10839TIP3    H154008   1.335   1.253   5.461  0.8818  0.8538  1.1028
10839TIP3    H254009   1.355   1.386   5.393 -0.1541 -0.2521 -1.5185
10840TIP3   OH254010   6.115   3.857  16.708  0.1292  0.1495 -0.0774
10840TIP3    H154011   6.051   3.859  16.637 -0.4267 -1.1966  0.3483
10840TIP3    H254012   6.083   3.922  16.771  0.2985  0.9180 -0.7684
10841TIP3   OH254013   3.168   5.526   2.279  0.2296  0.0706  0.1428
10841TIP3    H154014   3.251   5.534   2.231  0.6069 -1.7846  0.3848
10841TIP3    H254015   3.190   5.477   2.358 -0.7976  1.1398  1.1380
10842TIP3   OH254016   1.882   1.526   2.680 -0.5303  0.0872 -0.4851
10842TIP3    H154017   1.813   1.460   2.684 -0.2214 -0.2655 -0.8261
10842TIP3    H254018   1.838   1.608   2.699 -1.0195 -0.1543 -0.5569
10843TIP3   OH254019   5.541   3.099  16.296 -0.0804 -0.3717 -0.3788
10843TIP3    H154020   5.491   3.033  16.345  0.3586  0.0782  0.6987
10843TIP3    H254021   5.515   3.182  16.335 -0.1391  0.0500 -1.2999
10844TIP3   OH254022   0.163   4.846   0.163 -0.9267  0.6156 -0.1738
10844TIP3    H154023   0.236   4.822   0.220 -0.7696 -1.5274 -1.1535
10844TIP3    H254024   0.085   4.821   0.213 -0.7800 -1.6345 -0.9273
10845TIP3   OH254025   1.318   5.350   5.534  0.0991  0.4153 -0.1459
10845TIP3    H154026   1.291   5.302   5.611 -0.3430  0.2746 -0.3878
10845TIP3    H254027   1.325   5.284   5.465  2.0310  0.2646  0.1320
10846TIP3   OH254028   6.633   2.893   3.840 -0.7310 -0.2515  0.6702
10846TIP3    H154029   6.670   2.980   3.825 -0.2002 -0.3630  1.2624
10846TIP3    H254030   6.550   2.894   3.794  0.1032 -0.0554 -0.8826
10847TIP3   OH254031   3.106   3.911  11.339  0.1941  0.3781  0.0763
10847TIP3    H154032   3.125   3.931  11.247  1.2648 -1.6405 -0.1982
10847TIP3    H254033   3.159   3.834  11.359 -0.9747 -0.0115  2.0285
10848TIP3   OH254034   3.418   4.547  13.085  0.5490  0.1048 -0.5183
10848TIP3    H154035   3.333   4.509  13.104  1.3935 -0.8446  1.7419
10848TIP3    H254036   3.480   4.475  13.098  1.8302  1.1815 -0.4138
10849TIP3   OH254037   6.902   3.709  15.146 -0.2256  0.7398 -0.1108
10849TIP3    H154038   6.931   3.792  15.108  0.6154  1.4072  1.8553
10849TIP3    H254039   6.952   3.701  15.227 -1.5949 -0.8222  0.6346
10850TIP3   OH254040   2.714   6.183   1.229 -0.0936  0.2171 -0.5996
10850TIP3    H154041   2.626   6.150   1.213  0.4657 -1.0125 -1.2444
10850TIP3    H254042   2.700   6.269   1.270 -1.6002 -0.5993  0.7139
10851TIP3   OH254043   1.182   2.541  14.959  0.2786  0.3350 -0.0726
10851TIP3    H154044   1.182   2.614  14.897 -1.3179 -0.3378 -0.9280
10851TIP3    H254045   1.266   2.497  14.943 -0.2517 -0.0550 -2.1121
10852TIP3   OH254046   1.125   4.533  13.399 -0.2213  0.2974 -0.6757
10852TIP3    H154047   1.128   4.627  13.380  1.2261  0.1997 -1.0450
10852TIP3    H254048   1.215   4.503  13.387 -0.4454 -0.9389  0.5143
10853TIP3   OH254049   5.027   2.928   3.906 -0.5385  0.8940  0.1469
10853TIP3    H154050   5.100   2.902   3.850 -1.3456 -3.7570  0.8498
10853TIP3    H254051   4.957   2.951   3.844  0.2586  1.4113 -0.5903
10854TIP3   OH254052   6.706   2.864  14.125  0.3757  0.0035 -0.0175
10854TIP3    H154053   6.767   2.877  14.197  0.2713  2.7107 -0.3013
10854TIP3    H254054   6.713   2.944  14.073 -0.3608 -1.3965 -2.4156
10855TIP3   OH254055   5.456   0.316  15.411 -0.0773 -0.0446  0.0699
10855TIP3    H154056   5.464   0.338  15.504  0.0224 -0.6376  0.2058
10855TIP3    H254057   5.362   0.318  15.395 -0.2398 -1.6219  0.6192
10856TIP3   OH254058   3.070   3.962   5.533  0.4387 -0.1013 -0.4998
10856TIP3    H154059   3.144   4.003   5.579  1.0008  2.1847 -3.1780
10856TIP3    H254060   2.997   3.968   5.595  1.6241  0.9610  0.8637
10857TIP3   OH254061   2.701   6.111   4.704  0.1557  0.0935  0.3555
10857TIP3    H154062   2.791   6.097   4.676  0.0703 -1.0722  0.5977
10857TIP3    H254063   2.670   6.184   4.650  0.8564 -0.2824 -0.5888
10858TIP3   OH254064   2.388   0.237   3.784 -0.5904  0.2149  0.0222
10858TIP3    H154065   2.395   0.243   3.879 -0.3626  0.6461 -0.0201
10858TIP3    H254066   2.436   0.313   3.751 -0.1843 -0.2466 -0.4578
10859TIP3   OH254067   2.712   5.395   1.456  0.7122 -0.7190 -0.6032
10859TIP3    H154068   2.639   5.350   1.499  0.6531  0.0718  0.1621
10859TIP3    H254069   2.696   5.384   1.363 -0.5872 -0.2794 -0.4587
10860TIP3   OH254070   1.772   6.833   5.085 -0.1202 -0.0785  0.1107
10860TIP3    H154071   1.829   6.828   5.008 -0.5713 -0.1331 -0.2258
10860TIP3    H254072   1.732   6.920   5.080 -1.2137 -0.5912 -0.4973
10861TIP3   OH254073   6.573   5.472   1.648  0.1639  0.1697 -0.1752
10861TIP3    H154074   6.580   5.501   1.557 -1.0683  3.3997  0.6441
10861TIP3    H254075   6.487   5.430   1.653 -0.8442  2.1136 -0.0793
10862TIP3   OH254076   1.619   4.546   4.802  0.1316  0.2449 -0.2504
10862TIP3    H154077   1.561   4.512   4.735  0.1882  0.7170 -0.5471
10862TIP3    H254078   1.562   4.564   4.877  0.4213 -2.6583  0.7879
10863TIP3   OH254079   3.753   5.946  14.419  0.3636  0.2651  0.2281
10863TIP3    H154080   3.684   5.974  14.359 -2.1445 -1.0942  2.2977
10863TIP3    H254081   3.821   5.909  14.361 -0.9678  0.8812 -1.8546
10864TIP3   OH254082   4.178   3.561  15.602 -0.4755 -0.1523  0.1989
10864TIP3    H154083   4.142   3.474  15.584 -0.9585  0.0487  0.1722
10864TIP3    H254084   4.111   3.604  15.655 -0.5646  0.4544 -0.3869
10865TIP3   OH254085   4.195   3.439   2.024  0.3597 -0.8617  0.4199
10865TIP3    H154086   4.270   3.499   2.024 -1.1549  1.3810  4.2437
10865TIP3    H254087   4.225   3.365   2.079  0.1198 -0.4044  1.1819
10866TIP3   OH254088   2.721   6.355  16.694 -0.0875 -0.3065 -0.1594
10866TIP3    H154089   2.758   6.430  16.740 -1.1454  1.8846 -2.6324
10866TIP3    H254090   2.759   6.278  16.738  1.4897  1.6380  2.1105
10867TIP3   OH254091   2.691   0.608  13.967 -0.3198  0.4081  0.3465
10867TIP3    H154092   2.715   0.517  13.980  0.3758  0.4139 -0.7525
10867TIP3    H254093   2.775   0.654  13.957 -0.6582  1.1668  0.8554
10868TIP3   OH254094   5.102   5.661   1.397  0.3471  0.3044 -0.2018
10868TIP3    H154095   5.057   5.703   1.471 -1.3060 -0.7519 -0.5500
10868TIP3    H254096   5.039   5.665   1.325  1.6818  0.7419 -1.4051
10869TIP3   OH254097   6.899   2.461  14.976  0.0745  0.0251  0.2012
10869TIP3    H154098   6.954   2.415  14.913  0.9904  1.3391  0.0012
10869TIP3    H254099   6.937   2.438  15.061  1.2209  1.2254  0.0447
10870TIP3   OH254100   3.338   5.892  12.408  0.3720 -0.1622  0.0185
10870TIP3    H154101   3.250   5.858  12.425 -0.3378  1.3570 -0.4112
10870TIP3    H254102   3.396   5.834  12.457 -0.9061 -0.9599  0.6387
10871TIP3   OH254103   0.678   5.904  12.914  0.1973 -0.4842 -0.5025
10871TIP3    H154104   0.653   5.932  13.002  1.5588  0.8056 -0.4793
10871TIP3    H254105   0.675   5.809  12.917 -0.5757 -0.4496  0.6819
10872TIP3   OH254106   4.740   4.235   4.801 -0.7392  0.3533 -0.0780
10872TIP3    H154107   4.814   4.286   4.835 -0.3525  0.0937 -0.5217
10872TIP3    H254108   4.726   4.269   4.713 -0.4282 -0.3648 -0.4064
10873TIP3   OH254109   6.218   4.710   3.255  0.3269  0.2536 -0.4034
10873TIP3    H154110   6.154   4.684   3.189 -2.3920 -0.2951  2.2377
10873TIP3    H254111   6.202   4.803   3.270  0.9364  0.3814 -0.4922
10874TIP3   OH254112   1.661   0.093  10.989 -0.5129 -0.2909  0.0575
10874TIP3    H154113   1.753   0.116  10.984 -0.5296 -0.2232  0.0596
10874TIP3    H254114   1.650   0.020  10.928 -0.4699 -0.2631  0.0173
10875TIP3   OH254115   5.136   0.830  15.686  0.4364  0.2664  0.2414
10875TIP3    H154116   5.135   0.780  15.605  1.4030  0.1613  0.2832
10875TIP3    H254117   5.044   0.848  15.705  0.2044  0.2338 -0.8373
10876TIP3   OH254118   2.560   0.500  14.723 -0.2296 -0.1016 -0.7195
10876TIP3    H154119   2.549   0.434  14.655  0.2089 -0.4947 -0.4204
10876TIP3    H254120   2.622   0.460  14.785 -0.1189  0.5089 -0.4294
10877TIP3   OH254121   6.289   2.022  10.932  0.2862  0.4791 -0.2120
10877TIP3    H154122   6.274   2.061  11.018  0.1819  1.9334 -0.8465
10877TIP3    H254123   6.335   1.940  10.950 -1.0522  0.0044  1.2910
10878TIP3   OH254124   4.395   6.317  12.594 -0.4531 -0.1488  0.0781
10878TIP3    H154125   4.484   6.309  12.562 -1.3119 -0.5080 -2.4709
10878TIP3    H254126   4.357   6.389  12.543 -1.7446 -0.2730  0.8117
10879TIP3   OH254127   4.452   6.702   9.792  0.1279  0.1390  0.1923
10879TIP3    H154128   4.358   6.695   9.775 -0.0253 -1.6650  1.4470
10879TIP3    H254129   4.458   6.754   9.872  0.1409 -0.0941  0.3468
10880TIP3   OH254130   3.458   1.881   5.641  0.1571  0.1306  0.3824
10880TIP3    H154131   3.524   1.950   5.646 -0.0400  0.4696 -1.1430
10880TIP3    H254132   3.379   1.926   5.611 -0.1463 -0.6388 -0.0057
10881TIP3   OH254133   1.440   1.452  10.973  0.5842 -0.0840 -0.3488
10881TIP3    H154134   1.350   1.448  11.005  0.7266  0.8866  0.1928
10881TIP3    H254135   1.493   1.426  11.049  0.8407  0.7950 -0.2268
10882TIP3   OH254136   6.764   4.341   0.370 -0.0777  0.7541 -0.0202
10882TIP3    H154137   6.726   4.408   0.428  1.0080  1.4021 -0.0267
10882TIP3    H254138   6.848   4.378   0.343  1.5473 -1.4871  1.6231
10883TIP3   OH254139   4.723   2.328  13.423  0.1896  0.0884  0.1102
10883TIP3    H154140   4.811   2.364  13.435 -0.0193  0.5377  0.3052
10883TIP3    H254141   4.666   2.404  13.419 -0.2835 -0.2228  0.7053
10884TIP3   OH254142   1.051   0.859   0.779 -0.2985 -0.3155  0.0925
10884TIP3    H154143   0.984   0.890   0.840 -0.6594 -0.7464 -0.0811
10884TIP3    H254144   1.081   0.777   0.817  1.7801  0.9600  1.3916
10885TIP3   OH254145   6.324   0.782   0.336  0.0081 -0.2904  0.4657
10885TIP3    H154146   6.237   0.783   0.296  0.7313 -0.7253 -1.1957
10885TIP3    H254147   6.350   0.874   0.337 -0.0931 -0.2556  0.0893
10886TIP3   OH254148   2.975   3.579  14.273  0.1303 -0.0398 -0.4235
10886TIP3    H154149   3.053   3.544  14.229 -0.8308 -1.0590 -1.3582
10886TIP3    H254150   2.904   3.563  14.212 -0.7238  1.5157  0.1190
10887TIP3   OH254151   3.080   4.492   1.099 -0.6995 -0.4801 -0.0495
10887TIP3    H154152   3.014   4.496   1.030 -0.0281 -0.3114 -0.7024
10887TIP3    H254153   3.159   4.459   1.054  0.1203  0.9017  0.3315
10888TIP3   OH254154   4.320   2.459  13.186  0.2893  0.0877 -0.1138
10888TIP3    H154155   4.360   2.395  13.244  0.1639  1.2846  1.3364
10888TIP3    H254156   4.374   2.537  13.194 -1.5943  1.3596  1.0041
10889TIP3   OH254157   3.426   0.964   2.594 -0.5682 -0.5157 -0.0067
10889TIP3    H154158   3.416   1.047   2.641 -1.2093 -0.7197  0.2173
10889TIP3    H254159   3.420   0.988   2.501  1.4115 -0.0069 -0.0594
10890TIP3   OH254160   1.585   6.151   4.073 -0.3663 -0.0575  0.2563
10890TIP3    H154161   1.660   6.126   4.018 -0.3437  0.1974  0.1689
10890TIP3    H254162   1.512   6.158   4.012 -0.0735  1.4904  0.0266
10891TIP3   OH254163   4.983   6.274  13.645  0.1504  0.2328  0.4109
10891TIP3    H154164   4.967   6.198  13.701 -0.3628  0.1429  0.1443
10891TIP3    H254165   4.997   6.237  13.558 -0.9939  0.4898  0.1011
10892TIP3   OH254166   3.911   0.910  11.885  0.0701 -0.3143  0.1696
10892TIP3    H154167   3.931   0.920  11.978  3.7893 -0.2980 -0.4794
10892TIP3    H254168   3.946   0.990  11.845 -0.9375 -0.5845 -1.3151
10893TIP3   OH254169   2.747   5.458   6.031 -0.0769 -0.1924 -0.0101
10893TIP3    H154170   2.725   5.366   6.046 -0.3853 -0.0131  0.6973
10893TIP3    H254171   2.843   5.461   6.034  0.0500 -0.7774 -1.8900
10894TIP3   OH254172   0.803   6.358  10.986 -0.3475 -0.0829 -0.4972
10894TIP3    H154173   0.874   6.374  11.048 -1.0077  1.2111 -0.0453
10894TIP3    H254174   0.737   6.424  11.006 -2.3283 -2.0599  0.0203
10895TIP3   OH254175   6.513   6.537  12.957 -0.0245  0.5068  0.0728
10895TIP3    H154176   6.476   6.451  12.937  2.3170 -0.5872  0.0887
10895TIP3    H254177   6.475   6.560  13.042  0.4678 -1.2797  0.8263
10896TIP3   OH254178   6.633   2.290  13.810 -0.2356 -0.3982  0.1608
10896TIP3    H154179   6.722   2.261  13.792  1.0574  0.6721  3.7613
10896TIP3    H254180   6.587   2.211  13.839  1.0410 -0.2875  2.7595
10897TIP3   OH254181   6.015   0.186  12.742  0.2597  0.2555  1.0795
10897TIP3    H154182   5.983   0.206  12.830 -2.0823 -1.0732  0.6017
10897TIP3    H254183   6.015   0.090  12.738  1.5024  0.2691  0.0005
10898TIP3   OH254184   3.191   0.728   1.341  0.4413 -0.0467 -0.8307
10898TIP3    H154185   3.230   0.643   1.323 -0.0397  0.2623 -4.0608
10898TIP3    H254186   3.260   0.778   1.385  0.5075 -2.1997  1.7113
10899TIP3   OH254187   0.844   5.148   4.254 -0.1567  0.2397  0.3631
10899TIP3    H154188   0.887   5.096   4.186 -0.2927  0.5949  0.0040
10899TIP3    H254189   0.917   5.179   4.309 -0.1074 -0.6878  0.8494
10900TIP3   OH254190   5.562   2.697  14.165  0.8451 -0.2162  0.7653
10900TIP3    H154191   5.622   2.719  14.093  0.2691 -0.5478  0.1797
10900TIP3    H254192   5.496   2.766  14.162  1.1389  0.0968  1.3561
10901TIP3   OH254193   4.286   0.772   4.115  0.7211  0.5233  0.6558
10901TIP3    H154194   4.235   0.697   4.085  1.3609 -0.2293  1.4000
10901TIP3    H254195   4.221   0.834   4.147  0.2566 -0.4074  1.5551
10902TIP3   OH254196   0.635   5.683   1.567  0.2612 -0.1505  0.6744
10902TIP3    H154197   0.723   5.659   1.536  0.8073  1.2439  1.0447
10902TIP3    H254198   0.582   5.688   1.488  0.4841 -1.0936  0.4554
10903TIP3   OH254199   4.126   5.239   3.831  0.3370  0.1032  0.5972
10903TIP3    H154200   4.205   5.196   3.797  0.7846  0.2957  1.3805
10903TIP3    H254201   4.066   5.167   3.851  0.7535 -0.1111  1.0816
10904TIP3   OH254202   3.044   4.762  13.791 -0.1293 -0.4409 -0.1263
10904TIP3    H154203   3.039   4.688  13.731  1.4442 -0.8510  0.1934
10904TIP3    H254204   3.138   4.771  13.811 -0.6518 -1.1422  3.2921
10905TIP3   OH254205   5.205   4.597   2.783 -0.5696  0.0866 -0.1892
10905TIP3    H154206   5.180   4.506   2.797  1.2935 -0.5285 -0.5396
10905TIP3    H254207   5.239   4.599   2.693  1.9614  0.4348  0.6730
10906TIP3   OH254208   1.732   4.169   3.590 -0.1534  0.5018 -0.3603
10906TIP3    H154209   1.650   4.190   3.635 -0.5220  2.3744 -1.7841
10906TIP3    H254210   1.719   4.082   3.554 -2.1768  1.3458 -1.8620
10907TIP3   OH254211   5.406   0.031   4.390  0.1169 -0.2241 -0.6230
10907TIP3    H154212   5.414   0.077   4.474 -3.2025 -1.0969  0.3560
10907TIP3    H254213   5.439  -0.057   4.408  1.8948  0.3220 -1.0668
10908TIP3   OH254214   6.325   2.802   2.955 -0.4788 -0.0790 -0.1373
10908TIP3    H154215   6.362   2.844   3.032  0.0937 -0.9897  0.1050
10908TIP3    H254216   6.231   2.802   2.969 -0.4102  0.1834  0.3350
10909TIP3   OH254217   6.877   3.391   4.749 -0.2180  0.5271  0.5907
10909TIP3    H154218   6.919   3.477   4.749  0.4943  0.2143 -0.8295
10909TIP3    H254219   6.853   3.375   4.840  2.1988  0.9838  1.3738
10910TIP3   OH254220   3.685   0.543   3.404 -0.2642  0.1507 -0.3048
10910TIP3    H154221   3.611   0.515   3.349  0.9917  0.1346 -2.0810
10910TIP3    H254222   3.731   0.607   3.350  1.2238 -0.1081  0.6245
10911TIP3   OH254223   5.403   4.487  11.931  0.2717 -0.2000 -0.1559
10911TIP3    H154224   5.417   4.534  11.849 -1.0251  0.1130 -0.2270
10911TIP3    H254225   5.413   4.554  11.999  1.3041 -0.4507 -0.0452
10912TIP3   OH254226   0.035   3.517   3.033  0.0310  0.2685  0.0459
10912TIP3    H154227  -0.052   3.555   3.034 -0.0700  0.0314  0.5683
10912TIP3    H254228   0.030   3.445   2.970  0.0571  0.7325 -0.4847
10913TIP3   OH254229   6.884   5.240  11.273 -0.0122  0.0842  0.4989
10913TIP3    H154230   6.902   5.316  11.327 -1.2569  0.5169  0.3341
10913TIP3    H254231   6.816   5.269  11.212 -0.0594 -0.9753  0.0159
10914TIP3   OH254232   5.204   0.644  13.545  0.2944 -0.1036 -0.4271
10914TIP3    H154233   5.184   0.556  13.514 -1.7878  0.4788 -0.9214
10914TIP3    H254234   5.193   0.700  13.468 -3.2870  1.1589  0.7977
10915TIP3   OH254235   2.980   6.549   5.204  0.3129  0.1818 -0.7871
10915TIP3    H154236   2.982   6.485   5.133 -1.7800 -0.7313 -0.1171
10915TIP3    H254237   2.891   6.584   5.202  0.5101  0.8590  0.7562
10916TIP3   OH254238   1.496   2.234  12.105  0.1592 -0.3330 -0.2107
10916TIP3    H154239   1.520   2.160  12.161 -1.0984 -0.7859 -0.2240
10916TIP3    H254240   1.416   2.268  12.145  0.8860  1.2449 -0.0278
10917TIP3   OH254241   3.000   6.692   4.630 -0.1640 -0.0588 -0.9646
10917TIP3    H154242   3.071   6.722   4.573 -0.1095  1.1606 -0.2903
10917TIP3    H254243   3.022   6.602   4.650  1.2381  0.3144 -0.7203
10918TIP3   OH254244   1.096   5.310   5.030 -0.4164  0.3409  0.6657
10918TIP3    H154245   1.146   5.390   5.014  0.7033 -0.5633 -0.5791
10918TIP3    H254246   1.130   5.247   4.966 -1.9942 -0.8224  0.9056
10919TIP3   OH254247   4.858   5.162   4.160  0.5084 -0.1466  0.2859
10919TIP3    H154248   4.824   5.177   4.248  0.8359  1.7125  0.1406
10919TIP3    H254249   4.806   5.090   4.126  0.1471 -0.6748  1.8794
10920TIP3   OH254250   3.694   6.755   4.631 -0.5150 -0.0199 -0.1252
10920TIP3    H154251   3.733   6.774   4.545 -1.4698  0.4021 -0.4812
10920TIP3    H254252   3.713   6.833   4.684  1.6645 -1.0198  0.6559
10921TIP3   OH254253   0.916   4.200   3.655 -0.2407 -0.1736  0.3098
10921TIP3    H154254   0.962   4.143   3.593 -0.7939 -0.1980 -0.0897
10921TIP3    H254255   0.947   4.172   3.741  2.7870  1.7896  0.0033
10922TIP3   OH254256   3.705   3.425   1.888 -0.6453  0.6202  0.2397
10922TIP3    H154257   3.688   3.330   1.885  0.4972  0.4094 -0.0117
10922TIP3    H254258   3.740   3.445   1.801  0.0911  1.0744  0.6351
10923TIP3   OH254259   2.448   5.888  15.141  0.0180 -0.2517 -0.3590
10923TIP3    H154260   2.423   5.896  15.233 -2.2562  2.5141 -1.0806
10923TIP3    H254261   2.539   5.917  15.137  0.4989 -1.4571  1.1152
10924TIP3   OH254262   0.792   5.846  12.542 -0.2192  0.3441  0.3471
10924TIP3    H154263   0.864   5.881  12.489  1.0333 -2.0586  0.2795
10924TIP3    H254264   0.833   5.823  12.625 -1.7122  2.0811  1.6157
10925TIP3   OH254265   6.805   3.952  11.530 -0.1697 -0.0204 -0.2317
10925TIP3    H154266   6.735   3.998  11.576 -0.5643 -0.0275 -0.8088
10925TIP3    H254267   6.885   3.978  11.575 -0.4156  0.9984 -0.3631
10926TIP3   OH254268   2.058   1.698  13.592  0.8842  0.1254 -0.1955
10926TIP3    H154269   2.144   1.697  13.549  0.5741  0.0816 -0.8271
10926TIP3    H254270   2.078   1.686  13.685  1.6119  0.8308 -0.2478
10927TIP3   OH254271   6.578   0.219  15.016  0.1531 -0.0438  0.6784
10927TIP3    H154272   6.642   0.280  15.050  2.0927 -0.3719 -2.0270
10927TIP3    H254273   6.628   0.139  14.999 -0.7161 -0.1268 -2.0675
10928TIP3   OH254274   5.547   3.686  15.572  0.6157 -0.6798 -0.9074
10928TIP3    H154275   5.460   3.725  15.560  0.6016 -0.4986 -0.2618
10928TIP3    H254276   5.603   3.731  15.510  0.7094  0.7467  0.1738
10929TIP3   OH254277   6.838   3.315  12.239  0.7580 -0.2551 -0.2858
10929TIP3    H154278   6.747   3.291  12.223  0.2898  1.1752  0.0327
10929TIP3    H254279   6.848   3.308  12.334  0.8173  0.1232 -0.2640
10930TIP3   OH254280   4.252   4.490  11.603  0.9249 -0.0662 -0.7243
10930TIP3    H154281   4.210   4.568  11.567  0.4827 -0.8382 -1.9728
10930TIP3    H254282   4.181   4.442  11.645  0.5492 -1.1947 -2.5207
10931TIP3   OH254283   0.603   1.808   3.313 -0.2662  0.3520 -0.5282
10931TIP3    H154284   0.669   1.740   3.303 -1.7385 -1.2637  0.3249
10931TIP3    H254285   0.615   1.864   3.236  0.4593 -1.3465 -1.7175
10932TIP3   OH254286   3.052   2.602  16.370 -0.5913  0.3528  0.3398
10932TIP3    H154287   3.040   2.526  16.313 -3.9374  0.0787  1.2043
10932TIP3    H254288   3.049   2.567  16.459  2.4628  1.0289  0.8064
10933TIP3   OH254289   5.548   6.557  15.589  1.0822  0.1833  0.0393
10933TIP3    H154290   5.613   6.618  15.556 -0.5818  1.2291 -1.4734
10933TIP3    H254291   5.493   6.609  15.647  1.5490 -0.6888  1.3094
10934TIP3   OH254292   3.747   4.664  15.608 -0.1510 -0.4689  0.4011
10934TIP3    H154293   3.819   4.724  15.626 -0.3586 -0.6444  1.9100
10934TIP3    H254294   3.675   4.721  15.578  0.1422 -0.1360  0.3270
10935TIP3   OH254295   6.453   1.921   6.139 -0.5025  0.7592  0.0595
10935TIP3    H154296   6.449   1.826   6.141 -2.4392  0.7992  0.4768
10935TIP3    H254297   6.546   1.942   6.144 -0.1336 -1.0738  2.1259
10936TIP3   OH254298   4.557   2.971  12.472  0.0875 -0.4424  0.5597
10936TIP3    H154299   4.512   2.928  12.545 -0.2073 -1.5458 -0.2410
10936TIP3    H254300   4.627   2.911  12.448 -0.2041 -0.3976 -0.4506
10937TIP3   OH254301   1.657   0.156   0.332  0.2864  0.2249  0.2861
10937TIP3    H154302   1.684   0.236   0.287  0.4095  0.2597  0.4236
10937TIP3    H254303   1.677   0.172   0.424  2.0819 -0.6819  0.0966
10938TIP3   OH254304   1.425   1.247  14.590 -0.1444  0.6148  0.0189
10938TIP3    H154305   1.364   1.304  14.542 -0.6015  0.8710  0.8869
10938TIP3    H254306   1.501   1.303  14.607  0.3036  0.3283 -0.9651
10939TIP3   OH254307   1.080   2.723  15.897  0.0816 -0.0507  0.2611
10939TIP3    H154308   1.099   2.708  15.990  0.0668  0.8017  0.4128
10939TIP3    H254309   0.991   2.691  15.885 -0.8661  2.0387  1.1417
10940TIP3   OH254310   5.452   5.682   1.342  0.4750 -0.5627 -0.2341
10940TIP3    H154311   5.458   5.740   1.418  1.6685 -2.1153  0.9238
10940TIP3    H254312   5.523   5.712   1.284 -0.3290  0.5139 -0.6862
10941TIP3   OH254313   5.096   3.535  12.317 -0.2670  0.0680 -0.6122
10941TIP3    H154314   5.095   3.629  12.300 -1.5310  0.1154 -0.3155
10941TIP3    H254315   5.156   3.525  12.391 -0.8408  0.7441 -0.0495
10942TIP3   OH254316   1.683   3.342  12.905  0.2356 -0.1067 -0.0710
10942TIP3    H154317   1.717   3.260  12.868 -0.8141 -0.2922 -0.6801
10942TIP3    H254318   1.689   3.405  12.834 -1.5375 -0.3925 -0.5225
10943TIP3   OH254319   0.181   3.484   1.948  0.3322  0.0239 -0.5965
10943TIP3    H154320   0.167   3.569   1.990 -1.2756  0.6612 -2.2857
10943TIP3    H254321   0.195   3.424   2.021 -1.1091  1.2770  0.8053
10944TIP3   OH254322   2.423   6.440   5.066 -0.0416  0.1146 -0.1904
10944TIP3    H154323   2.335   6.405   5.081 -0.0655  0.4050  0.4018
10944TIP3    H254324   2.423   6.524   5.113  1.0337 -0.5721  1.0796
10945TIP3   OH254325   6.008   4.255  15.162  0.0172 -0.2750 -0.7795
10945TIP3    H154326   6.038   4.215  15.081 -0.6657 -0.8209 -0.7683
10945TIP3    H254327   5.960   4.333  15.135 -1.5712 -1.3080 -1.0006
10946TIP3   OH254328   5.834   4.978  11.181  0.0094  0.2522 -0.4171
10946TIP3    H154329   5.908   4.936  11.225  1.8195  1.6094 -2.0210
10946TIP3    H254330   5.831   5.066  11.218 -1.0431  0.1316 -0.1571
10947TIP3   OH254331   4.958   5.788  15.897  0.0739  0.4568 -0.1205
10947TIP3    H154332   4.987   5.876  15.873  0.7837  0.2407 -0.0828
10947TIP3    H254333   4.936   5.747  15.813  1.7599 -0.0191 -0.3716
10948TIP3   OH254334   5.498   1.750  15.777 -0.3227 -0.7059  0.2896
10948TIP3    H154335   5.517   1.664  15.740 -0.3373  0.7820 -3.6275
10948TIP3    H254336   5.403   1.750  15.790 -0.2775 -1.3801  0.6493
10949TIP3   OH254337   5.791   4.200   2.821 -0.6742 -0.0211  0.0318
10949TIP3    H154338   5.713   4.204   2.876 -0.6546 -2.5927  0.3923
10949TIP3    H254339   5.857   4.158   2.876  0.3823  0.3856 -0.8878
10950TIP3   OH254340   1.959   3.391  16.053 -0.4057 -0.0312  0.3445
10950TIP3    H154341   2.040   3.440  16.067 -0.3416  0.1325 -0.5284
10950TIP3    H254342   1.982   3.300  16.070  0.0615 -0.0265 -0.2249
10951TIP3   OH254343   6.237   1.534   5.410 -0.0927  0.2885 -1.0155
10951TIP3    H154344   6.324   1.495   5.400  0.5927  1.6458 -0.5111
10951TIP3    H254345   6.187   1.499   5.336  0.3049 -1.9460 -0.3170
10952TIP3   OH254346   5.547   0.407   0.818  0.0452 -0.0454  0.5139
10952TIP3    H154347   5.469   0.354   0.804 -0.4505  0.5071  1.1574
10952TIP3    H254348   5.535   0.447   0.904  1.4599 -0.6684  1.0309
10953TIP3   OH254349   1.947   3.068   4.907  0.1360  0.5569  0.0440
10953TIP3    H154350   1.952   3.003   4.836 -1.4725  0.1802  0.2457
10953TIP3    H254351   1.858   3.061   4.940  0.8640  0.6694  2.1887
10954TIP3   OH254352   2.385   0.257  11.232  0.3691  0.1420 -0.6343
10954TIP3    H154353   2.478   0.263  11.255 -0.0013  1.7086  0.6342
10954TIP3    H254354   2.365   0.163  11.237  1.9538 -0.2714 -1.3537
10955TIP3   OH254355   0.887   4.923  13.857  0.3206  0.4451 -0.8271
10955TIP3    H154356   0.924   4.900  13.771 -0.4945  0.8325 -1.2881
10955TIP3    H254357   0.828   4.996  13.839 -0.4989 -0.0197 -0.0538
10956TIP3   OH254358   4.167   4.876   0.192  0.2256  0.2460  0.1090
10956TIP3    H154359   4.218   4.856   0.270  0.0779 -0.0120  0.1449
10956TIP3    H254360   4.083   4.832   0.207  0.4602 -0.4459 -0.5240
10957TIP3   OH254361   1.551   0.405  14.293 -0.8396  0.6455  0.8007
10957TIP3    H154362   1.466   0.362  14.282 -0.4672 -0.0989  0.7799
10957TIP3    H254363   1.600   0.348  14.352  0.0170  0.5404  0.0163
10958TIP3   OH254364   1.686   4.274  12.848 -0.0088  0.6753  0.1660
10958TIP3    H154365   1.766   4.277  12.900  0.0394  1.5256  0.0473
10958TIP3    H254366   1.676   4.362  12.813 -0.4651  0.3219 -0.6308
10959TIP3   OH254367   2.314   5.128  12.854  0.5119  0.3792 -0.0521
10959TIP3    H154368   2.363   5.077  12.790  0.4074  1.5432 -1.0986
10959TIP3    H254369   2.336   5.088  12.939  0.0718 -1.6656 -0.8342
10960TIP3   OH254370   5.167   5.298  14.429  0.2334  0.2918 -0.5460
10960TIP3    H154371   5.076   5.277  14.405  0.1032 -0.6886  0.6885
10960TIP3    H254372   5.217   5.223  14.399  0.3735  0.0447  0.2731
10961TIP3   OH254373   4.582   6.194  16.324 -0.2564 -0.0350  0.8833
10961TIP3    H154374   4.575   6.288  16.343  0.4200  0.5677 -1.4892
10961TIP3    H254375   4.664   6.186  16.275 -0.7432 -1.7296  0.2863
10962TIP3   OH254376   5.692   1.576  15.099  0.0785  0.3735  0.1609
10962TIP3    H154377   5.626   1.509  15.082  1.3460 -0.4902 -1.6588
10962TIP3    H254378   5.644   1.658  15.099 -1.1281 -0.3108 -0.0994
10963TIP3   OH254379   3.321   1.193  11.551  0.7761 -0.1247  0.1326
10963TIP3    H154380   3.344   1.277  11.511  3.0550 -0.4326  0.6359
10963TIP3    H254381   3.263   1.151  11.488  2.2420  0.4564 -1.6986
10964TIP3   OH254382   6.517   0.872  16.440 -0.0653  0.6547  0.3927
10964TIP3    H154383   6.458   0.818  16.492  0.0044  0.9678  0.8002
10964TIP3    H254384   6.580   0.810  16.404 -0.8996  0.2514 -0.4217
10965TIP3   OH254385   4.849   4.093   5.070 -0.2457  0.3532 -0.0138
10965TIP3    H154386   4.765   4.061   5.037 -0.1064 -0.6676  0.5596
10965TIP3    H254387   4.840   4.091   5.165 -0.1014  1.7521  0.0514
10966TIP3   OH254388   5.948   0.961  15.558 -0.1666 -0.2757  0.2993
10966TIP3    H154389   5.967   0.979  15.649 -0.0930  0.1335  0.2051
10966TIP3    H254390   5.855   0.938  15.557 -0.5021  1.0025  0.3086
10967TIP3   OH254391   3.147   4.237  13.819  0.3642 -0.8909 -0.0197
10967TIP3    H154392   3.120   4.148  13.797  0.5159 -0.7731 -0.7026
10967TIP3    H254393   3.076   4.271  13.874 -1.0487 -0.4824 -2.0143
10968TIP3   OH254394   2.201   1.149   3.140  0.3346 -0.1976  0.0292
10968TIP3    H154395   2.119   1.182   3.177  0.1407 -1.5497  0.8513
10968TIP3    H254396   2.187   1.055   3.129  2.0536 -0.6089  0.9691
10969TIP3   OH254397   0.175   2.125   2.348 -0.3469  0.0088 -0.2958
10969TIP3    H154398   0.218   2.162   2.271  1.1209 -3.3050 -1.2615
10969TIP3    H254399   0.141   2.041   2.318 -1.7006 -0.4219  2.1648
10970TIP3   OH254400   0.374   5.453  11.019  0.1421 -0.0962  0.8620
10970TIP3    H154401   0.462   5.478  10.991  0.7518  0.0562  2.7924
10970TIP3    H254402   0.386   5.367  11.060 -0.6460 -0.1409  1.0080
10971TIP3   OH254403   5.323   4.446  12.835 -0.3007  0.1227 -0.5657
10971TIP3    H154404   5.242   4.401  12.856 -0.2208  0.4640  0.5325
10971TIP3    H254405   5.388   4.408  12.894  0.1549  0.4424 -0.8497
10972TIP3   OH254406   3.825   2.679  14.095 -0.0685 -0.0589  0.0603
10972TIP3    H154407   3.757   2.742  14.071 -0.2042  0.7977  2.4178
10972TIP3    H254408   3.779   2.596  14.108 -0.1759 -0.2160 -1.2703
10973TIP3   OH254409   6.853   1.141   0.139 -0.5491  0.0226 -0.1848
10973TIP3    H154410   6.906   1.110   0.212  2.5793  1.0883 -1.7857
10973TIP3    H254411   6.819   1.225   0.167 -1.6129 -0.7692  0.9577
10974TIP3   OH254412   0.318   6.239  15.562  0.0969  0.0661 -0.2178
10974TIP3    H154413   0.410   6.257  15.540  0.9984 -2.8561  0.6221
10974TIP3    H254414   0.290   6.315  15.612  0.5622  3.1108 -4.1095
10975TIP3   OH254415   4.139   4.316   3.252 -0.2303 -0.4225  0.1965
10975TIP3    H154416   4.131   4.313   3.347  2.5291 -0.4714  0.5083
10975TIP3    H254417   4.072   4.379   3.224  0.0142  0.8930  2.3513
10976TIP3   OH254418   1.252   3.086  12.895 -0.0677  0.0539  0.3522
10976TIP3    H154419   1.309   3.121  12.827  0.4379  0.4351  0.9609
10976TIP3    H254420   1.193   3.158  12.916  0.2095  0.1608  0.7786
10977TIP3   OH254421   2.015   4.613  12.588  0.1996  0.3137 -0.3784
10977TIP3    H154422   2.054   4.634  12.503  0.8200  0.4303 -0.0733
10977TIP3    H254423   1.942   4.674  12.597  2.4841  3.1689  0.8889
10978TIP3   OH254424   2.080   5.404  12.106 -0.0205  0.4634 -0.1297
10978TIP3    H154425   2.103   5.321  12.148  2.2937  0.9848 -0.2590
10978TIP3    H254426   2.054   5.379  12.017  1.7977 -0.0781 -0.5555
10979TIP3   OH254427   6.163   4.557  15.035 -0.2354 -0.0435  0.2681
10979TIP3    H154428   6.226   4.564  14.963  0.4484  0.4944  0.9169
10979TIP3    H254429   6.090   4.613  15.007  0.0522  0.2153  0.0231
10980TIP3   OH254430   3.143   3.571  15.916  0.1662  0.3026 -0.7496
10980TIP3    H154431   3.155   3.478  15.898 -0.0240  0.2915 -0.8194
10980TIP3    H254432   3.054   3.578  15.952  0.0010  0.5212 -1.1949
10981TIP3   OH254433   3.081   1.114  14.554  0.7154  0.3790  0.6167
10981TIP3    H154434   3.001   1.092  14.602  0.0054  0.8054 -0.3420
10981TIP3    H254435   3.133   1.166  14.615  0.6215 -0.5642  1.5212
10982TIP3   OH254436   5.614   4.095  12.319 -0.0244 -0.1715 -0.4549
10982TIP3    H154437   5.632   4.164  12.255 -0.0868  0.2593 -0.0175
10982TIP3    H254438   5.700   4.058  12.339  0.1851  0.6493  0.2573
10983TIP3   OH254439   3.644   3.975  11.021  0.7958  0.0665  0.2853
10983TIP3    H154440   3.624   4.057  11.066 -1.0284 -0.2670  0.1467
10983TIP3    H254441   3.628   3.994  10.928  0.2181 -0.4735  0.2672
10984TIP3   OH254442   5.511   5.702  15.001 -0.5145 -0.5901  0.2706
10984TIP3    H154443   5.484   5.790  15.027  1.6004  0.6224 -1.2799
10984TIP3    H254444   5.504   5.649  15.080 -0.6843  1.2667  1.5369
10985TIP3   OH254445   0.151   1.471  16.411 -0.6342 -0.0582  0.0906
10985TIP3    H154446   0.158   1.540  16.345  1.3046  1.9115  2.1807
10985TIP3    H254447   0.209   1.402  16.379 -0.3143  0.5302 -0.6328
10986TIP3   OH254448   6.007   2.632   0.070  0.0854  0.0398 -0.1086
10986TIP3    H154449   5.967   2.718   0.071 -1.0770 -0.4298 -1.6530
10986TIP3    H254450   6.046   2.625  -0.017 -0.5905 -1.2899 -0.3390
10987TIP3   OH254451   2.254   3.062   5.075 -0.1422  0.2123  0.5420
10987TIP3    H154452   2.332   3.025   5.033 -0.8186 -0.9927  0.2956
10987TIP3    H254453   2.277   3.153   5.093  1.0354  0.0862 -0.2342
10988TIP3   OH254454   4.337   3.583   0.839 -0.4758 -0.3034  0.0080
10988TIP3    H154455   4.246   3.613   0.849 -0.6754 -0.6288 -0.7742
10988TIP3    H254456   4.339   3.499   0.885 -0.5369 -0.2353  0.1365
10989TIP3   OH254457   4.628   3.051  13.095 -0.0359 -0.1718 -0.6006
10989TIP3    H154458   4.704   2.993  13.096 -1.3826 -2.0279  0.3189
10989TIP3    H254459   4.564   3.005  13.040 -0.5844  1.2535 -1.1922
10990TIP3   OH254460   0.662   3.061   0.668 -0.3573  0.1099 -0.1093
10990TIP3    H154461   0.567   3.070   0.672 -0.2535  1.2349  0.3966
10990TIP3    H254462   0.689   3.123   0.601  0.1902  1.6111  1.4305
10991TIP3   OH254463   1.211   0.038  15.449  0.1833 -0.7528 -0.0898
10991TIP3    H154464   1.180   0.030  15.359  2.0502 -0.9083 -0.7625
10991TIP3    H254465   1.207  -0.051  15.483 -1.8393 -0.4872  0.4888
10992TIP3   OH254466   6.486   1.980   1.737 -0.5093  0.1119 -0.1122
10992TIP3    H154467   6.546   1.959   1.809  2.7041  2.0010 -2.0183
10992TIP3    H254468   6.529   1.944   1.659 -2.2520  0.9308 -1.5000
10993TIP3   OH254469   1.711   0.711  13.792  0.2685 -0.4046  0.2120
10993TIP3    H154470   1.795   0.698  13.748  0.9372 -0.7237  1.5116
10993TIP3    H254471   1.726   0.787  13.849 -0.9383  0.7530 -0.9428
10994TIP3   OH254472   5.998   3.251   4.785  0.0074 -0.0709  0.7284
10994TIP3    H154473   6.026   3.192   4.854  2.1338 -0.0150 -0.0173
10994TIP3    H254474   5.990   3.195   4.707 -1.2155  0.0735  0.7210
10995TIP3   OH254475   5.039   4.710  15.920  0.7315  0.2634 -0.6044
10995TIP3    H154476   5.098   4.635  15.921  2.6601  1.7088  0.1215
10995TIP3    H254477   5.036   4.741  16.011 -1.1697  0.2521 -0.6211
10996TIP3   OH254478   5.879   2.322  13.723  0.2634  0.1488 -0.0318
10996TIP3    H154479   5.925   2.241  13.745 -0.0596 -0.1415 -0.4049
10996TIP3    H254480   5.868   2.367  13.807 -3.1974 -2.1058  0.9246
10997TIP3   OH254481   1.854   1.068  11.933  0.4998 -0.0794  0.2986
10997TIP3    H154482   1.833   1.061  11.840 -1.6150 -0.4842  0.7726
10997TIP3    H254483   1.848   0.979  11.967 -0.0391  0.2431  1.0815
10998TIP3   OH254484   4.936   3.595  16.881  0.0212 -0.4090 -0.0454
10998TIP3    H154485   5.018   3.637  16.851 -0.6227  0.0721 -1.2099
10998TIP3    H254486   4.906   3.651  16.953 -0.5702  0.8909 -1.2595
10999TIP3   OH254487   3.315   3.072  14.651 -0.0678 -0.1752  0.4599
10999TIP3    H154488   3.242   3.101  14.706 -1.2381 -1.0829 -0.5571
10999TIP3    H254489   3.316   2.977  14.661  0.5140 -0.2351 -0.1032
11000TIP3   OH254490   0.782   1.628   1.480  0.1578  0.1305  0.0006
11000TIP3    H154491   0.849   1.564   1.454 -0.3202 -0.0265 -0.8605
11000TIP3    H254492   0.832   1.708   1.499  0.5973  0.0108 -0.6147
11001TIP3   OH254493   4.337   6.540  13.553  0.9522  0.6529 -0.1613
11001TIP3    H154494   4.361   6.511  13.641  0.9629  0.9684 -0.0563
11001TIP3    H254495   4.269   6.605  13.567  1.0387  0.7935 -0.3800
11002TIP3   OH254496   4.928   5.423  12.054  0.3514  0.0939 -0.0726
11002TIP3    H154497   4.870   5.365  12.005 -1.0684  1.9951 -0.8023
11002TIP3    H254498   4.992   5.454  11.990  1.1166 -0.6533  0.3162
11003TIP3   OH254499   5.509   5.673   3.661  0.0608 -0.1911 -0.4646
11003TIP3    H154500   5.542   5.758   3.689  2.0746 -0.5934 -1.4293
11003TIP3    H254501   5.429   5.693   3.612  1.1328  1.3081 -1.6966
11004TIP3   OH254502   0.668   4.661   4.959 -0.1635 -0.6563 -0.0637
11004TIP3    H154503   0.700   4.712   4.884 -1.1406 -0.1831 -0.1775
11004TIP3    H254504   0.578   4.690   4.970  0.7599  1.5237  3.1691
11005TIP3   OH254505   4.795   1.568   4.484  0.2607 -0.0312  0.3550
11005TIP3    H154506   4.824   1.566   4.393  1.1165 -0.1058  0.6210
11005TIP3    H254507   4.700   1.575   4.479  0.4100  2.2016 -0.5798
11006TIP3   OH254508   1.213   0.781  12.579  0.2165 -0.1511 -0.5578
11006TIP3    H154509   1.149   0.817  12.517  0.9592  1.3785 -0.4875
11006TIP3    H254510   1.251   0.706  12.534 -1.4023 -0.9298 -0.7142
11007TIP3   OH254511   4.551   0.099   2.266 -0.0850  0.5415 -0.1913
11007TIP3    H154512   4.619   0.129   2.327 -0.1739 -0.9398  0.6868
11007TIP3    H254513   4.469   0.132   2.304 -0.8943 -4.6401  3.7891
11008TIP3   OH254514   1.764   4.478  13.436 -0.8330 -0.3340  0.1092
11008TIP3    H154515   1.812   4.423  13.498  0.4042  0.3743 -0.1631
11008TIP3    H254516   1.692   4.515  13.487  1.3743  1.9470  1.8278
11009TIP3   OH254517   3.053   6.659  15.756  0.0312 -0.1602  0.0029
11009TIP3    H154518   3.026   6.693  15.671  1.0244  0.7933  0.0535
11009TIP3    H254519   2.989   6.590  15.775 -0.9968  0.5023 -0.9024
11010TIP3   OH254520   2.173   4.153  11.823  0.8745  0.4455  0.1658
11010TIP3    H154521   2.251   4.202  11.851  0.4704  1.8601 -1.0367
11010TIP3    H254522   2.100   4.199  11.863  0.3932  1.6826 -1.9688
11011TIP3   OH254523   6.461   2.586   4.707 -0.3073 -0.0575  0.3403
11011TIP3    H154524   6.444   2.523   4.638  1.2383 -0.1238 -0.0133
11011TIP3    H254525   6.390   2.572   4.770 -0.5253 -1.4901 -0.1818
11012TIP3   OH254526   1.854   4.778  10.499  0.5653 -0.2814 -0.0321
11012TIP3    H154527   1.904   4.733  10.430 -1.9672 -2.3193 -0.6901
11012TIP3    H254528   1.781   4.819  10.453 -0.3794 -0.4500  1.2685
11013TIP3   OH254529   0.680   3.214  10.185 -0.3085  0.2574 -0.9069
11013TIP3    H154530   0.660   3.162  10.263  1.3114  0.1353 -0.5431
11013TIP3    H254531   0.640   3.300  10.203  0.1063  0.2554  0.0901
11014TIP3   OH254532   5.943   1.569   2.927 -0.0035 -0.7285  0.1342
11014TIP3    H154533   6.006   1.497   2.927 -1.8815 -2.5636  3.2425
11014TIP3    H254534   5.936   1.595   3.018 -0.5622  2.4426 -0.7045
11015TIP3   OH254535   4.854   4.153  12.296  0.2572 -0.0213 -0.8459
11015TIP3    H154536   4.817   4.232  12.334 -1.1071 -1.7882  1.7843
11015TIP3    H254537   4.947   4.171  12.289 -0.0798  1.9529 -0.7068
11016TIP3   OH254538   0.909   3.699   4.574  0.5549  0.2416  0.2524
11016TIP3    H154539   0.881   3.758   4.644  1.5128  0.7632  0.2132
11016TIP3    H254540   0.915   3.613   4.615  0.8426  0.4954  0.7492
11017TIP3   OH254541   6.792   6.509  15.942 -0.0597  0.0150  0.1368
11017TIP3    H154542   6.784   6.510  16.037  1.4760  0.9196  0.3084
11017TIP3    H254543   6.714   6.465  15.911  0.3401 -2.1088  1.9053
11018TIP3   OH254544   3.693   5.965  16.445 -0.2744  0.0284 -0.7529
11018TIP3    H154545   3.651   5.968  16.359  0.3679 -1.7556 -1.1824
11018TIP3    H254546   3.785   5.948  16.425  0.0169  0.3759  0.2779
11019TIP3   OH254547   4.140   3.973  14.480  0.1356 -0.2987 -0.3746
11019TIP3    H154548   4.190   4.031  14.536 -0.4330 -0.8687  0.7504
11019TIP3    H254549   4.166   3.885  14.507 -0.0578 -0.5904 -1.0970
11020TIP3   OH254550   0.270   5.318  14.785 -0.6809  0.6858  0.3584
11020TIP3    H154551   0.317   5.237  14.803 -0.5454  0.5936 -0.3861
11020TIP3    H254552   0.178   5.293  14.785 -0.6556  0.5914  0.4066
11021TIP3   OH254553   6.459   3.815  12.146  0.1514 -0.0569  0.5878
11021TIP3    H154554   6.446   3.721  12.158  0.6835 -0.2228 -0.0659
11021TIP3    H254555   6.547   3.823  12.109 -0.4240  0.5819 -0.7173
11022TIP3   OH254556   1.543   1.323   3.638 -0.6429  0.3887  0.0185
11022TIP3    H154557   1.565   1.245   3.689 -1.4502  0.4259  0.4420
11022TIP3    H254558   1.627   1.362   3.617 -0.2882  0.6026  1.6807
11023TIP3   OH254559   3.982   3.961   3.407  0.2161  0.7270  1.0892
11023TIP3    H154560   3.909   4.015   3.379  0.4794  1.1377  1.1856
11023TIP3    H254561   4.046   3.968   3.337  0.4486  0.9224  1.3198
11024TIP3   OH254562   3.465   0.185  13.541  0.2524 -0.1268 -0.3647
11024TIP3    H154563   3.463   0.223  13.629 -1.1695 -2.2051  0.5743
11024TIP3    H254564   3.542   0.128  13.542 -1.0630 -2.0167  0.4664
11025TIP3   OH254565   2.810   5.472  11.476  0.3387  0.4233 -0.3918
11025TIP3    H154566   2.836   5.455  11.385  0.4160  1.7724 -0.6540
11025TIP3    H254567   2.730   5.420  11.489  0.2241  0.3578 -1.2952
11026TIP3   OH254568   2.920   6.896  11.640 -0.0162 -0.1700  0.0849
11026TIP3    H154569   2.844   6.898  11.699  0.0975 -2.5982  0.4442
11026TIP3    H254570   2.995   6.916  11.696 -0.0966 -0.7405  0.4036
11027TIP3   OH254571   6.215   6.624  12.741 -0.1731  0.3537 -0.2935
11027TIP3    H154572   6.300   6.609  12.700  0.8138 -0.4464  1.8968
11027TIP3    H254573   6.172   6.539  12.739  0.0992  0.1729  0.7049
11028TIP3   OH254574   1.921   3.127   0.361 -0.1188  0.6898  0.2758
11028TIP3    H154575   1.916   3.209   0.409 -0.6601  0.9747 -0.2497
11028TIP3    H254576   1.955   3.151   0.275  0.6317  0.2185  0.4331
11029TIP3   OH254577   2.129   1.541   4.710 -0.0465  0.0335  0.3916
11029TIP3    H154578   2.222   1.528   4.692  0.2663  0.5750  1.5361
11029TIP3    H254579   2.111   1.489   4.788 -1.3554 -2.1872 -1.2596
11030TIP3   OH254580   0.154   4.308   4.754 -0.1062 -0.0320 -0.2340
11030TIP3    H154581   0.196   4.226   4.780 -0.1870  0.4230  1.4672
11030TIP3    H254582   0.112   4.288   4.671 -0.5363 -1.8796  0.3672
11031TIP3   OH254583   0.094   4.865   3.052 -0.0437  0.4246 -0.8866
11031TIP3    H154584   0.004   4.844   3.027 -0.1233  0.7965 -0.9134
11031TIP3    H254585   0.085   4.922   3.128  0.1973 -1.3828  0.5705
11032TIP3   OH254586   4.070   2.768  14.771 -0.2861 -0.2732 -0.4509
11032TIP3    H154587   4.042   2.714  14.698  0.1303 -0.2656 -0.6171
11032TIP3    H254588   4.154   2.804  14.744  0.6464 -1.5287  0.6475
11033TIP3   OH254589   6.009   2.470   1.138  0.2986 -0.6079  0.1489
11033TIP3    H154590   5.938   2.528   1.110  1.9599  1.1058 -0.7879
11033TIP3    H254591   5.971   2.418   1.209 -1.7981  0.3820 -0.1608
11034TIP3   OH254592   4.784   3.196   1.843 -0.1686 -0.2463 -0.1758
11034TIP3    H154593   4.827   3.230   1.922  0.6076 -1.3341 -0.1042
11034TIP3    H254594   4.827   3.112   1.827 -0.8664 -0.4049 -1.3107
11035TIP3   OH254595   4.418   4.143  15.839  0.3363 -0.3685  0.6734
11035TIP3    H154596   4.438   4.235  15.856  0.2445 -0.4315  1.1369
11035TIP3    H254597   4.341   4.125  15.894  0.3609 -0.7257  0.5931
11036TIP3   OH254598   6.677   3.942   3.222 -0.1777  0.6567  0.1419
11036TIP3    H154599   6.631   3.888   3.157 -1.2725  0.6758  0.8740
11036TIP3    H254600   6.713   4.015   3.171  0.3682 -0.1735 -0.6830
11037TIP3   OH254601   4.862   1.988  12.176 -0.0412 -0.1524 -0.3210
11037TIP3    H154602   4.803   1.956  12.108  2.9503 -1.1818 -2.6685
11037TIP3    H254603   4.903   1.909  12.211 -1.4457  0.3533  2.8385
11038TIP3   OH254604   6.388   4.178   1.280 -0.7176 -0.0143 -0.1742
11038TIP3    H154605   6.369   4.234   1.355 -0.9551  1.1209 -1.0546
11038TIP3    H254606   6.443   4.232   1.223  0.6615 -1.3587 -0.1762
11039TIP3   OH254607   4.670   1.548   1.071  0.2419  0.2645  0.4376
11039TIP3    H154608   4.764   1.532   1.069  0.1355 -0.3455  0.0358
11039TIP3    H254609   4.635   1.494   1.000 -0.4635  0.1422  0.8698
11040TIP3   OH254610   0.863   6.116  15.523  0.0409 -0.0164 -0.4862
11040TIP3    H154611   0.896   6.026  15.519  2.4484  0.8100 -1.0688
11040TIP3    H254612   0.791   6.113  15.585  0.0076 -2.3580 -0.5574
11041TIP3   OH254613   1.112   1.375   2.883  0.6872 -0.1796 -0.5281
11041TIP3    H154614   1.019   1.355   2.889  0.7349 -0.2214  0.1860
11041TIP3    H254615   1.154   1.314   2.944  1.0942  0.3985 -0.2159
11042TIP3   OH254616   3.434   0.566   2.881 -0.1103  0.3445 -0.6750
11042TIP3    H154617   3.528   0.575   2.864  0.0271  0.7372  0.2310
11042TIP3    H254618   3.411   0.645   2.930 -1.0454  0.5427 -1.4082
11043TIP3   OH254619   1.989   3.420  14.064  0.1067  0.0386 -0.0485
11043TIP3    H154620   2.014   3.376  13.983  0.1587  0.6986 -0.3932
11043TIP3    H254621   2.022   3.509  14.055 -0.7098  0.3859  0.2997
11044TIP3   OH254622   4.647   5.216  16.439  0.1573 -0.0995 -0.0353
11044TIP3    H154623   4.570   5.186  16.391  0.6460  0.5972 -1.2814
11044TIP3    H254624   4.612   5.269  16.510 -0.5237 -0.1683 -0.3155
11045TIP3   OH254625   6.856   5.818   1.967 -0.2418 -0.4943 -0.4045
11045TIP3    H154626   6.876   5.912   1.973  0.1174 -0.6086  0.3300
11045TIP3    H254627   6.795   5.811   1.893  0.5123  0.1822 -1.1067
11046TIP3   OH254628   6.338   1.714  16.397 -0.9141 -0.7488  0.1922
11046TIP3    H154629   6.313   1.805  16.409  0.3859 -0.3020 -0.3089
11046TIP3    H254630   6.406   1.699  16.462 -1.8648 -1.7158  1.0194
11047TIP3   OH254631   5.387   3.821  13.497  0.0191  0.6810 -0.2738
11047TIP3    H154632   5.431   3.747  13.538 -1.0692  0.9769  1.5191
11047TIP3    H254633   5.454   3.889  13.490  0.7150 -0.0539 -0.8428
11048TIP3   OH254634   6.474   3.669   4.733  0.4627  0.1348  0.4508
11048TIP3    H154635   6.552   3.615   4.722  0.1588 -0.4368  1.0433
11048TIP3    H254636   6.491   3.720   4.812 -0.3758 -1.1063  1.4789
11049TIP3   OH254637   6.809   5.884   2.658 -0.0728 -0.1562 -0.0598
11049TIP3    H154638   6.858   5.874   2.577 -2.8810  0.6471 -2.0067
11049TIP3    H254639   6.786   5.977   2.661 -1.9753 -0.6039  0.4041
11050TIP3   OH254640   1.866   3.347   0.572 -0.0957  0.4329 -0.1448
11050TIP3    H154641   1.917   3.418   0.611  1.4092 -0.7788  0.1759
11050TIP3    H254642   1.778   3.357   0.609  0.6968  0.7003  1.7753
11051TIP3   OH254643   4.977   2.466  10.725  0.0630  0.4536  0.2313
11051TIP3    H154644   4.893   2.509  10.711  0.1727  0.9247  0.9738
11051TIP3    H254645   4.956   2.374  10.735 -0.0949  0.1255 -2.3240
11052TIP3   OH254646   2.986   0.024   5.934 -0.4084 -0.0232 -0.5464
11052TIP3    H154647   2.988  -0.040   5.863 -0.1751  0.0274 -0.5858
11052TIP3    H254648   2.947  -0.023   6.008  0.5762 -0.4805 -0.3094
11053TIP3   OH254649   6.213   1.370  12.425  0.2059  0.0115 -0.3508
11053TIP3    H154650   6.141   1.374  12.362  0.7873  1.1760 -0.9566
11053TIP3    H254651   6.182   1.308  12.492 -0.8645 -0.4107 -1.2029
11054TIP3   OH254652   5.745   1.941   2.870  0.9384 -0.0310  0.3183
11054TIP3    H154653   5.717   1.932   2.962 -0.1950 -0.5582 -0.0647
11054TIP3    H254654   5.839   1.958   2.876  1.1215 -1.2967  1.5455
11055TIP3   OH254655   4.600   0.524   3.426 -0.1001  0.0758 -0.2352
11055TIP3    H154656   4.570   0.608   3.461  1.4901  0.0058  1.4144
11055TIP3    H254657   4.695   0.531   3.424  0.1081 -1.8597  0.4328
11056TIP3   OH254658   3.617   2.817   3.854  0.4920  0.0211 -0.0755
11056TIP3    H154659   3.614   2.835   3.761 -1.0309  2.0842  0.3103
11056TIP3    H254660   3.711   2.819   3.876  1.0656 -2.6798 -1.8609
11057TIP3   OH254661   5.508   1.034  11.014 -0.5932 -0.5803 -0.0923
11057TIP3    H154662   5.517   1.050  10.920  0.8770  1.8060  0.3655
11057TIP3    H254663   5.530   0.941  11.025 -0.0591 -0.7234 -2.0083
11058TIP3   OH254664   1.689   5.069   1.621  0.0469  0.6143  0.1098
11058TIP3    H154665   1.763   5.018   1.586 -0.1591  0.0770  0.4364
11058TIP3    H254666   1.620   5.058   1.555  0.3724  1.4216 -0.3757
11059TIP3   OH254667   2.041   2.863   3.552 -0.5892 -0.2327  0.2194
11059TIP3    H154668   2.070   2.922   3.482 -0.0249 -1.0303 -0.2371
11059TIP3    H254669   1.947   2.850   3.536 -1.3774  2.6386  1.9020
11060TIP3   OH254670   3.462   0.962  14.038 -0.4158 -0.1149 -0.2054
11060TIP3    H154671   3.554   0.977  14.058 -0.4037 -0.2728 -0.1413
11060TIP3    H254672   3.449   0.868  14.051 -0.1997 -0.4012 -1.8355
11061TIP3   OH254673   4.600   1.555  16.876  0.4315 -0.0096  0.0320
11061TIP3    H154674   4.606   1.591  16.965  1.4148  0.6628 -0.2849
11061TIP3    H254675   4.601   1.460  16.889 -0.5834  0.0657  0.7947
11062TIP3   OH254676   5.633   1.842   4.004  0.3141 -0.4688 -0.5563
11062TIP3    H154677   5.706   1.781   3.999  0.6005 -0.2046  0.1751
11062TIP3    H254678   5.589   1.820   4.087  1.4665  1.4304  0.6254
11063TIP3   OH254679   2.927   3.451  13.948  0.0923  0.6867 -0.4050
11063TIP3    H154680   2.995   3.392  13.918 -1.2730 -0.8033 -0.6898
11063TIP3    H254681   2.962   3.539  13.932  0.9267 -0.0282 -2.9044
11064TIP3   OH254682   3.484   4.302  16.650 -0.0800  0.2597  0.7271
11064TIP3    H154683   3.517   4.392  16.651  1.3159 -0.2053 -0.5470
11064TIP3    H254684   3.420   4.301  16.579  0.5414  0.0429  0.1658
11065TIP3   OH254685   3.991   2.653  11.338  0.7604 -0.6204 -0.1104
11065TIP3    H154686   4.010   2.560  11.327  1.0698 -0.5729 -0.0059
11065TIP3    H254687   4.074   2.691  11.368  1.1153 -0.0488 -1.6940
11066TIP3   OH254688   3.171   0.509   1.118  0.4192  0.3435 -0.5659
11066TIP3    H154689   3.102   0.509   1.052  0.4207  0.5797 -0.5679
11066TIP3    H254690   3.209   0.596   1.113 -0.8887  1.0544  1.1123
11067TIP3   OH254691   2.984   0.219  12.265  0.0260  0.1781 -0.7065
11067TIP3    H154692   3.057   0.229  12.203  0.5036 -0.6055 -0.2910
11067TIP3    H254693   2.924   0.290  12.243  0.5693  0.3941 -1.5402
11068TIP3   OH254694   2.052   6.007   2.068 -0.6378  0.4880  0.3021
11068TIP3    H154695   2.089   5.929   2.111 -0.0478 -1.3525 -3.1637
11068TIP3    H254696   2.097   6.080   2.110  2.8898 -1.3566  0.1842
11069TIP3   OH254697   4.843   3.992   3.480  0.3636 -0.6015 -0.1513
11069TIP3    H154698   4.905   4.015   3.411 -0.4290  0.8841 -0.4181
11069TIP3    H254699   4.869   3.904   3.507  1.4779 -0.7154 -1.4579
11070TIP3   OH254700   0.996   2.570   2.491 -0.5076 -0.4433  0.1327
11070TIP3    H154701   0.952   2.649   2.522 -0.3944 -0.8013  1.2720
11070TIP3    H254702   1.023   2.590   2.402 -1.2154  0.4972  0.1208
11071TIP3   OH254703   5.511   1.574   4.468 -0.2662  0.2940 -0.0665
11071TIP3    H154704   5.579   1.558   4.402 -0.1175 -0.0027  0.1529
11071TIP3    H254705   5.465   1.490   4.474 -1.4877  0.8424 -1.1367
11072TIP3   OH254706   2.123   4.485  13.946 -0.2674  0.0566  0.3703
11072TIP3    H154707   2.093   4.567  13.985  1.1503  0.1527  1.3362
11072TIP3    H254708   2.212   4.474  13.978 -0.0065 -1.2729 -0.7005
11073TIP3   OH254709   0.569   0.578   1.940 -0.3877 -0.0664  0.0853
11073TIP3    H154710   0.541   0.618   1.857 -1.9737 -1.3181 -0.0240
11073TIP3    H254711   0.507   0.507   1.954  1.1847 -1.2590  1.2554
11074TIP3   OH254712   4.080   1.181   5.263  0.4600 -0.3600  0.0606
11074TIP3    H154713   4.122   1.153   5.182  0.3005  2.9034 -1.3354
11074TIP3    H254714   4.148   1.233   5.308 -0.4752  0.6786  0.3161
11075TIP3   OH254715   4.072   6.527  15.021  0.0673 -0.4743 -0.2578
11075TIP3    H154716   4.018   6.499  14.947  0.3861  0.7162 -0.9707
11075TIP3    H254717   4.060   6.459  15.087  0.0768 -1.7667 -1.5483
11076TIP3   OH254718   1.487   2.862  10.360  0.1388 -0.0768  0.0112
11076TIP3    H154719   1.396   2.873  10.330 -1.2149 -1.4350  3.1693
11076TIP3    H254720   1.519   2.787  10.311 -1.4023 -1.1954  0.6217
11077TIP3   OH254721   0.003   3.443  10.773  0.2362 -0.4677 -0.7156
11077TIP3    H154722  -0.003   3.418  10.681  0.6325 -0.5293 -0.7259
11077TIP3    H254723   0.097   3.447  10.791  0.1615 -0.6429 -0.2628
11078TIP3   OH254724   4.596   2.091  12.773 -0.1428  0.4540  0.2618
11078TIP3    H154725   4.516   2.140  12.754 -0.4397 -0.7167 -1.8307
11078TIP3    H254726   4.565   2.011  12.816  0.1389  0.9843  1.5009
11079TIP3   OH254727   4.687   2.451   4.876 -0.9248  0.9342 -0.0101
11079TIP3    H154728   4.626   2.524   4.882 -1.8061  0.1859  0.4693
11079TIP3    H254729   4.631   2.373   4.877 -0.0476  0.2644 -1.1722
11080TIP3   OH254730   5.488   3.425   5.337 -0.1255 -0.0091 -0.2312
11080TIP3    H154731   5.535   3.416   5.420 -0.5574 -0.1250  0.0010
11080TIP3    H254732   5.555   3.453   5.275  0.5513 -1.5138 -0.2129
11081TIP3   OH254733   3.824   3.139   1.446  0.6378 -0.2021  0.3868
11081TIP3    H154734   3.913   3.159   1.418  1.2702  0.0092  2.4451
11081TIP3    H254735   3.825   3.046   1.469  0.0590 -0.4360 -0.4607
11082TIP3   OH254736   0.957   0.878  10.796 -0.8059 -0.1374  0.4354
11082TIP3    H154737   0.972   0.849  10.886 -1.3710  0.0938  0.6119
11082TIP3    H254738   0.952   0.974  10.803 -0.5409 -0.0992  0.1089
11083TIP3   OH254739   6.816   1.643  13.470 -0.1473  0.1809 -0.0960
11083TIP3    H154740   6.887   1.675  13.525  0.6916 -1.7253  0.0318
11083TIP3    H254741   6.742   1.699  13.491  0.9137  1.2720  0.8883
11084TIP3   OH254742   5.134   0.467  15.752  0.0876  0.2483 -0.0249
11084TIP3    H154743   5.064   0.523  15.720  1.0797  1.5803  0.0430
11084TIP3    H254744   5.111   0.449  15.843 -0.8771 -0.5382 -0.4006
11085TIP3   OH254745   2.209   5.305  13.820  0.3415  0.4627  0.6057
11085TIP3    H154746   2.161   5.321  13.902 -0.7892 -0.8527  0.2516
11085TIP3    H254747   2.199   5.211  13.806  1.7627  0.4236 -0.3106
11086TIP3   OH254748   6.367   1.657   5.681  0.3677  0.1848 -0.2359
11086TIP3    H154749   6.460   1.653   5.658  0.3566  3.0716 -1.2940
11086TIP3    H254750   6.322   1.625   5.603  0.4430 -1.0851  0.2261
11087TIP3   OH254751   0.303   4.958   1.290 -0.1226 -0.0327 -0.5281
11087TIP3    H154752   0.232   5.015   1.262  1.8089  1.8812 -1.7583
11087TIP3    H254753   0.291   4.877   1.240 -1.6804  0.0483 -0.3281
11088TIP3   OH254754   4.481   1.024   4.109  0.2504  0.1217 -0.5239
11088TIP3    H154755   4.531   0.954   4.066  0.2650  0.9097 -1.8435
11088TIP3    H254756   4.520   1.105   4.076 -0.5257  0.7605  0.0769
11089TIP3   OH254757   4.760   3.495   4.447 -0.1209  0.2915  0.6591
11089TIP3    H154758   4.761   3.584   4.411 -2.6401  0.7387  1.4932
11089TIP3    H254759   4.813   3.501   4.526 -0.9648  1.2998  1.1755
11090TIP3   OH254760   4.675   4.368   4.528 -0.2310 -0.1512  0.0486
11090TIP3    H154761   4.733   4.441   4.550  1.1002 -0.6725 -1.4599
11090TIP3    H254762   4.653   4.382   4.436 -0.5471 -1.2466 -0.0611
11091TIP3   OH254763   3.870   6.270  10.749  0.2209 -0.0899  0.3834
11091TIP3    H154764   3.859   6.335  10.819 -2.2239 -0.2270  0.1813
11091TIP3    H254765   3.828   6.191  10.782  1.0346 -0.8565 -0.3599
11092TIP3   OH254766   0.041   1.901  15.200 -1.4091  0.0594 -0.2180
11092TIP3    H154767  -0.035   1.891  15.257 -0.9225 -1.3369  0.2217
11092TIP3    H254768   0.105   1.949  15.252 -1.6729  0.4878 -0.2867
11093TIP3   OH254769   1.026   3.871   2.638 -0.5361  0.1753 -0.1347
11093TIP3    H154770   1.072   3.922   2.571 -0.2598  0.2071  0.0787
11093TIP3    H254771   1.092   3.853   2.704 -0.3005 -1.5214 -0.7820
11094TIP3   OH254772   5.391   5.765  16.058 -0.3913 -0.6573 -0.2102
11094TIP3    H154773   5.336   5.697  16.019 -0.3425  1.1693 -3.9399
11094TIP3    H254774   5.339   5.845  16.051  1.4961  0.5838 -0.9637
11095TIP3   OH254775   5.263   4.437  10.887  0.1168 -0.3739 -0.3681
11095TIP3    H154776   5.262   4.525  10.924 -1.3231  0.6648 -2.6568
11095TIP3    H254777   5.178   4.428  10.843  0.1228 -3.0102 -0.0030
11096TIP3   OH254778   1.616   1.111  13.677 -0.1947 -0.1784  0.0118
11096TIP3    H154779   1.603   1.082  13.587 -0.4887  0.4041 -0.1412
11096TIP3    H254780   1.709   1.130  13.683  0.5060 -3.2790  0.7780
11097TIP3   OH254781   3.782   5.191   3.240 -0.1697  0.4625  0.4530
11097TIP3    H154782   3.745   5.103   3.241 -0.5857  0.6344  0.7068
11097TIP3    H254783   3.722   5.242   3.295 -0.9222  1.3066 -1.0813
11098TIP3   OH254784   1.434   0.136  13.733  0.1876  0.2657 -0.2507
11098TIP3    H154785   1.519   0.133  13.777  0.5427  2.5928 -0.6627
11098TIP3    H254786   1.447   0.086  13.652  0.3319 -1.6609  0.9026
11099TIP3   OH254787   4.057   4.747   0.495  0.1081 -0.6744 -1.1253
11099TIP3    H154788   3.966   4.737   0.465 -0.1698 -0.3722 -0.3970
11099TIP3    H254789   4.064   4.839   0.520  0.5014 -0.7908 -0.8060
11100TIP3   OH254790   3.781   1.829  11.967 -0.0448 -0.6725  0.2157
11100TIP3    H154791   3.799   1.737  11.985 -0.4869 -0.8446 -0.1966
11100TIP3    H254792   3.856   1.876  12.003  0.9375 -1.3159 -0.9245
11101TIP3   OH254793   2.336   5.267   0.514  0.5341 -0.0654 -1.1129
11101TIP3    H154794   2.249   5.229   0.503 -0.0686  1.4394 -1.8150
11101TIP3    H254795   2.396   5.192   0.509 -0.7989 -1.5289  2.0610
11102TIP3   OH254796   0.844   3.046   2.213 -0.7266 -0.0929  0.0145
11102TIP3    H154797   0.750   3.056   2.224 -0.4879  1.4233  0.9057
11102TIP3    H254798   0.881   3.062   2.300  0.3729 -0.5180 -0.3537
11103TIP3   OH254799   1.728   6.311  10.096  0.3684 -0.5149  0.0848
11103TIP3    H154800   1.761   6.400  10.110 -0.1725 -0.3186  0.1112
11103TIP3    H254801   1.782   6.277  10.025 -0.8921  0.6187 -1.4780
11104TIP3   OH254802   5.176   1.713  16.225 -1.0494  0.1320  0.2896
11104TIP3    H154803   5.196   1.795  16.272 -0.6642 -0.4329  1.1385
11104TIP3    H254804   5.081   1.711  16.222 -1.1524 -0.4153  2.2006
11105TIP3   OH254805   2.284   4.539  12.664  0.1529 -0.2615 -0.2796
11105TIP3    H154806   2.319   4.461  12.707 -0.2327  0.6438  1.7966
11105TIP3    H254807   2.190   4.522  12.657  0.3105 -0.7082 -1.4851
11106TIP3   OH254808   0.441   0.289  15.809 -1.0829 -0.1901 -0.3371
11106TIP3    H154809   0.441   0.201  15.770  1.9143  0.1173 -1.2429
11106TIP3    H254810   0.492   0.279  15.889 -1.1464  0.6450 -0.1865
11107TIP3   OH254811   2.504   2.819  12.859 -0.3665  0.3251 -0.8346
11107TIP3    H154812   2.444   2.891  12.879  0.1449  0.1427  1.7771
11107TIP3    H254813   2.467   2.744  12.904  1.2416 -0.0317 -0.0328
11108TIP3   OH254814   6.091   2.743   4.144 -0.0026  0.3424 -0.7237
11108TIP3    H154815   6.000   2.754   4.116  0.1258  2.0466 -0.6323
11108TIP3    H254816   6.091   2.665   4.198 -1.7777  1.2336  0.6565
11109TIP3   OH254817   5.463   5.345  14.961 -0.3542 -0.0713 -0.5289
11109TIP3    H154818   5.511   5.382  15.035  0.5425  0.7903 -1.4899
11109TIP3    H254819   5.471   5.412  14.892 -0.5406 -1.1527 -1.6328
11110TIP3   OH254820   2.374   6.529  13.164 -0.2075  0.7804  0.4060
11110TIP3    H154821   2.344   6.482  13.242  0.3390 -0.7882 -0.3047
11110TIP3    H254822   2.325   6.491  13.092  2.5332 -1.0880 -0.6398
11111TIP3   OH254823   0.104   0.993   1.206 -0.2947 -0.1321 -0.1562
11111TIP3    H154824   0.087   1.087   1.210  1.0722  0.1309  0.2387
11111TIP3    H254825   0.079   0.967   1.118  0.8647  0.9671 -0.8444
11112TIP3   OH254826   2.332   5.037  11.430 -0.3198 -0.1628  0.2105
11112TIP3    H154827   2.290   5.123  11.436 -2.6359 -1.1164 -1.0518
11112TIP3    H254828   2.336   5.006  11.521 -2.5074 -0.0340  0.4081
11113TIP3   OH254829   2.696   0.026   1.598  0.7220 -0.5315  0.6038
11113TIP3    H154830   2.729   0.077   1.672  0.4115 -1.3315  1.3072
11113TIP3    H254831   2.654  -0.050   1.638 -1.9067  0.3591 -0.2088
11114TIP3   OH254832   6.465   3.098  14.123 -0.1388  0.5548  0.6954
11114TIP3    H154833   6.492   3.049  14.201  1.0530 -0.7709 -0.4989
11114TIP3    H254834   6.473   3.190  14.149 -0.6560  0.1561  2.4098
11115TIP3   OH254835   1.654   4.752   1.075 -0.2303  0.1828  0.3935
11115TIP3    H154836   1.570   4.796   1.089 -0.0320  0.5668  0.3845
11115TIP3    H254837   1.635   4.659   1.089 -0.7014  0.2457  0.1954
11116TIP3   OH254838   5.439   5.422   2.739 -0.0900  0.2757 -0.6287
11116TIP3    H154839   5.370   5.430   2.673  0.2129 -0.0661 -0.9817
11116TIP3    H254840   5.460   5.329   2.742 -0.2025  0.2616  0.0533
11117TIP3   OH254841   6.141   3.267   5.438 -0.2502 -0.0555 -0.0229
11117TIP3    H154842   6.096   3.187   5.465  0.6466 -0.2219  1.0183
11117TIP3    H254843   6.072   3.334   5.441 -1.2972 -0.9502 -2.0289
11118TIP3   OH254844   0.711   6.206  16.445 -0.2188 -0.3987 -0.0941
11118TIP3    H154845   0.704   6.114  16.420 -2.2135 -0.3162  0.0293
11118TIP3    H254846   0.753   6.204  16.531  2.1562 -0.9838 -1.1913
11119TIP3   OH254847   0.851   5.357  10.171  0.4931  0.1588  0.1723
11119TIP3    H154848   0.884   5.296  10.105 -2.1847  0.2650 -1.4082
11119TIP3    H254849   0.763   5.326  10.191  1.1688  0.1506  3.8152
11120TIP3   OH254850   3.264   2.968  13.729  0.3158 -0.4003 -0.0803
11120TIP3    H154851   3.277   2.875  13.711  1.2944 -0.0967 -1.0392
11120TIP3    H254852   3.259   2.973  13.825  0.6019 -1.3980 -0.0037
11121TIP3   OH254853   3.949   0.479  15.458  0.2677 -0.5848  0.2906
11121TIP3    H154854   3.913   0.545  15.518  0.7393  0.0198 -0.0851
11121TIP3    H254855   4.042   0.499  15.453  0.0412  0.2362 -1.6876
11122TIP3   OH254856   2.375   6.175  12.533  0.5750 -0.1292 -0.0475
11122TIP3    H154857   2.296   6.194  12.584  0.7945 -2.2321  1.1666
11122TIP3    H254858   2.343   6.126  12.457  0.7079 -1.5071  0.7457
11123TIP3   OH254859   1.243   4.679  14.444 -0.0548  0.1307 -0.4070
11123TIP3    H154860   1.215   4.609  14.386 -1.8478 -0.2198  0.8169
11123TIP3    H254861   1.297   4.636  14.510 -3.2890 -0.7396  1.9192
11124TIP3   OH254862   1.416   5.560  14.794 -0.6274 -0.5285  0.1738
11124TIP3    H154863   1.505   5.525  14.791 -0.1308  0.7637 -0.7724
11124TIP3    H254864   1.367   5.507  14.732 -0.6156 -1.4374  0.9137
11125TIP3   OH254865   1.146   6.894   3.811  0.1346 -0.1799 -0.8334
11125TIP3    H154866   1.169   6.817   3.758  0.4730  0.3679 -1.5096
11125TIP3    H254867   1.107   6.858   3.890  1.1385 -1.0913 -0.7173
11126TIP3   OH254868   1.849   0.583  15.087 -0.6571 -0.1667 -0.6384
11126TIP3    H154869   1.762   0.616  15.112 -0.0768  1.9405 -1.1891
11126TIP3    H254870   1.867   0.623  15.002  1.0834 -0.0675 -0.2702
11127TIP3   OH254871   6.512   2.095  13.495  0.0027  1.1103  0.2204
11127TIP3    H154872   6.526   2.153  13.420 -2.1213  1.5377  0.0982
11127TIP3    H254873   6.448   2.141  13.549  0.0169 -0.0930  1.2945
11128TIP3   OH254874   2.131   1.714   6.011 -0.8689 -0.7249  0.1732
11128TIP3    H154875   2.151   1.650   5.942  2.3756 -0.4100  0.6530
11128TIP3    H254876   2.190   1.787   5.993  0.8595 -1.0490  3.7672
11129TIP3   OH254877   5.390   1.441  14.621  0.2384 -0.1122  0.3597
11129TIP3    H154878   5.330   1.386  14.672  1.1972 -0.9590  0.6149
11129TIP3    H254879   5.420   1.384  14.550  1.9151 -0.2344  1.1267
11130TIP3   OH254880   2.623   3.614   5.947 -0.3908 -0.6939 -0.1247
11130TIP3    H154881   2.580   3.669   6.013  3.0369  2.0103  0.1651
11130TIP3    H254882   2.598   3.654   5.863 -2.2690 -2.2357 -0.3722
11131TIP3   OH254883   6.220   1.357   2.316 -0.9754  0.0778 -0.2510
11131TIP3    H154884   6.206   1.345   2.410  0.5852  0.4932  0.0567
11131TIP3    H254885   6.294   1.301   2.296 -2.0699 -0.9990 -1.5259
11132TIP3   OH254886   1.543   6.603   3.481  0.4612  0.0922  0.6286
11132TIP3    H154887   1.602   6.585   3.408  0.6806 -1.9375  1.2396
11132TIP3    H254888   1.587   6.565   3.557 -1.5986 -1.5382  1.0996
11133TIP3   OH254889   2.747   6.357  14.203  0.1402  0.0499 -0.3689
11133TIP3    H154890   2.808   6.419  14.163  0.7259 -0.8366 -0.8737
11133TIP3    H254891   2.765   6.363  14.297 -1.4483  2.3676 -0.1226
11134TIP3   OH254892   2.058   4.005  12.371 -0.2188  0.1356 -0.2161
11134TIP3    H154893   2.024   4.051  12.447  0.0880 -0.5729  0.3517
11134TIP3    H254894   2.063   3.913  12.397  0.7482  0.0130 -0.7691
11135TIP3   OH254895   3.652   6.461  14.993 -0.1888 -0.4650  0.0244
11135TIP3    H154896   3.567   6.447  14.952 -0.6177  0.2313  0.6614
11135TIP3    H254897   3.635   6.520  15.066  0.6537 -1.2432  0.8807
11136TIP3   OH254898   5.236   3.139  14.319 -0.1114  0.3463  0.3510
11136TIP3    H154899   5.155   3.187  14.332 -0.0123  0.1517  1.9886
11136TIP3    H254900   5.231   3.106  14.230 -1.1485  1.5822 -0.0730
11137TIP3   OH254901   1.397   3.619   1.655 -1.0121  0.6936  0.9184
11137TIP3    H154902   1.435   3.550   1.601 -2.0829 -0.8946  2.1292
11137TIP3    H254903   1.306   3.626   1.625 -1.4166  0.2875  2.0037
11138TIP3   OH254904   4.812   3.837   1.409  0.1513  0.6528 -0.8853
11138TIP3    H154905   4.849   3.871   1.491 -2.0609 -0.0679  0.5276
11138TIP3    H254906   4.877   3.774   1.378  1.1035  1.0284  0.2659
11139TIP3   OH254907   6.753   5.847   0.506 -0.2963 -0.2873 -0.6413
11139TIP3    H154908   6.746   5.770   0.450  0.3986 -0.2231 -0.8331
11139TIP3    H254909   6.680   5.903   0.479  0.5434  0.1431 -2.1494
11140TIP3   OH254910   3.042   6.426   4.711  0.3355 -0.6616 -0.0566
11140TIP3    H154911   3.137   6.437   4.717  0.2631 -0.1122  0.1274
11140TIP3    H254912   3.030   6.339   4.673  0.9072 -1.1578  0.8719
11141TIP3   OH254913   6.649   5.284  16.119  0.4413 -0.7764 -0.2829
11141TIP3    H154914   6.583   5.353  16.115  1.9153  0.6166 -2.7570
11141TIP3    H254915   6.599   5.203  16.112 -1.2130  0.0198  1.3058
11142TIP3   OH254916   5.412   2.917   3.587 -0.1368 -0.5732 -0.3417
11142TIP3    H154917   5.390   2.990   3.529  0.4206  0.1348  0.3169
11142TIP3    H254918   5.470   2.955   3.653 -0.7697 -1.3666  0.6981
11143TIP3   OH254919   2.198   2.088  13.582 -0.1338  0.0143  0.0469
11143TIP3    H154920   2.165   2.071  13.493  0.5943 -0.5624 -0.1212
11143TIP3    H254921   2.153   2.168  13.609 -1.1011 -0.3331 -0.4642
11144TIP3   OH254922   4.521   4.241   0.010  0.0420 -0.4629  0.3082
11144TIP3    H154923   4.521   4.148  -0.010  0.7089 -0.3392 -0.2991
11144TIP3    H254924   4.603   4.255   0.058  1.0958  0.2111 -1.6054
11145TIP3   OH254925   6.263   6.251   2.908  0.3779 -0.1791  0.2085
11145TIP3    H154926   6.341   6.219   2.952  0.5400  0.9744  0.7847
11145TIP3    H254927   6.289   6.262   2.816  1.2058  1.1843  0.5930
11146TIP3   OH254928   2.449   0.416  11.029  0.7071 -0.2011  0.8070
11146TIP3    H154929   2.419   0.352  11.094 -1.4877 -1.0987 -0.9396
11146TIP3    H254930   2.494   0.363  10.963 -0.9286 -0.0404 -0.5371
11147TIP3   OH254931   0.253   2.057  13.970 -0.2140  0.7953  0.0693
11147TIP3    H154932   0.279   2.129  14.029  0.5544 -0.7013  1.6385
11147TIP3    H254933   0.319   2.058  13.901  0.3433  0.9979  0.5971
11148TIP3   OH254934   2.034   2.219  15.665  0.1402  0.2217 -0.2313
11148TIP3    H154935   1.996   2.137  15.697  0.6159  0.4944  1.1164
11148TIP3    H254936   2.004   2.226  15.574  0.5206 -1.6923 -0.5332
11149TIP3   OH254937   1.531   3.879   1.469 -0.5582 -0.7919  0.7638
11149TIP3    H154938   1.624   3.880   1.446 -0.3497  1.6021  1.4565
11149TIP3    H254939   1.529   3.902   1.562 -1.8261 -1.2948  0.8750
11150TIP3   OH254940   6.843   3.718   4.376 -0.0450  0.2655  0.5790
11150TIP3    H154941   6.766   3.774   4.385 -0.3941 -0.1492  0.2224
11150TIP3    H254942   6.828   3.646   4.438 -0.0532  0.0675  0.3484
11151TIP3   OH254943   2.685   6.672  12.049  0.2599 -0.5592  0.3952
11151TIP3    H154944   2.718   6.626  12.127 -0.2415 -0.4472  0.6751
11151TIP3    H254945   2.594   6.693  12.070  0.5033  0.6420  0.2987
11152TIP3   OH254946   2.077   4.877  15.502 -0.4256  0.1551 -0.2041
11152TIP3    H154947   2.017   4.893  15.575  0.0061  1.5763 -0.1269
11152TIP3    H254948   2.163   4.869  15.544 -0.4741 -1.3904 -0.3561
11153TIP3   OH254949   0.156   0.664   5.426 -0.8879  0.0105 -0.0446
11153TIP3    H154950   0.204   0.746   5.415 -1.7960  0.2064 -4.3891
11153TIP3    H254951   0.224   0.597   5.431 -0.1294  0.7086 -0.6671
11154TIP3   OH254952   3.484   4.022  11.379  0.2522 -0.1668 -0.4235
11154TIP3    H154953   3.455   4.077  11.451  0.7760 -0.3347 -0.0829
11154TIP3    H254954   3.444   3.937  11.396 -0.7897  0.1683 -1.1027
11155TIP3   OH254955   5.786   2.870   1.603  0.1448  0.0728  0.4249
11155TIP3    H154956   5.839   2.934   1.555  1.7501 -0.3742  1.5158
11155TIP3    H254957   5.762   2.805   1.537 -2.0074  2.0027 -0.8388
11156TIP3   OH254958   1.665   3.471   2.163 -0.7064 -0.0127 -0.4848
11156TIP3    H154959   1.699   3.487   2.075 -0.1627 -1.0636 -0.4817
11156TIP3    H254960   1.618   3.388   2.156 -0.2187 -0.3659  0.3329
11157TIP3   OH254961   2.198   2.023  14.979 -0.2428  0.3005  0.1693
11157TIP3    H154962   2.128   2.038  15.042 -0.9319 -0.0765 -0.4906
11157TIP3    H254963   2.251   2.103  14.982 -1.3859  1.0920 -0.1840
11158TIP3   OH254964   4.747   1.439  10.945  0.5055  0.1600  0.0453
11158TIP3    H154965   4.780   1.502  10.882 -0.2116  1.3933  0.8432
11158TIP3    H254966   4.662   1.412  10.910  2.7126 -4.1114 -2.7534
11159TIP3   OH254967   0.437   5.947  14.979 -1.2868  0.2950  0.2051
11159TIP3    H154968   0.441   5.852  14.987 -2.7895  0.0040 -1.5440
11159TIP3    H254969   0.524   5.973  14.949 -0.4124 -0.3133  2.1267
11160TIP3   OH254970   3.858   4.157  14.419 -0.2078  0.1947  0.2736
11160TIP3    H154971   3.768   4.187  14.425 -0.7395 -1.2938  0.0076
11160TIP3    H254972   3.897   4.210  14.350 -1.5476 -0.7191 -1.2397
11161TIP3   OH254973   3.603   5.894   5.398 -0.0712 -0.4907  0.6590
11161TIP3    H154974   3.698   5.891   5.403 -0.0510 -1.0147  0.0406
11161TIP3    H254975   3.581   5.837   5.325 -0.8104  0.3684  0.1926
11162TIP3   OH254976   5.825   2.922  14.273  0.0154  0.1129 -0.3418
11162TIP3    H154977   5.914   2.892  14.292 -0.5834 -1.1284  0.6282
11162TIP3    H254978   5.770   2.875  14.336 -1.4898 -0.1992 -1.8242
11163TIP3   OH254979   0.119   6.379  15.985 -0.1453 -0.4466 -0.5829
11163TIP3    H154980   0.069   6.298  15.995 -0.0916 -0.6443 -1.7062
11163TIP3    H254981   0.055   6.443  15.953  0.1236 -0.4674 -1.1814
11164TIP3   OH254982   2.297   0.462  11.497  0.2902  0.1506  0.2171
11164TIP3    H154983   2.264   0.543  11.536 -1.6062 -0.2755 -0.3864
11164TIP3    H254984   2.377   0.488  11.450  1.0090  1.1884  1.9487
11165TIP3   OH254985   3.935   1.046  14.584 -0.3227  0.1788 -0.3110
11165TIP3    H154986   3.988   0.969  14.564  0.9549  0.4609  1.6336
11165TIP3    H254987   3.992   1.120  14.565 -1.1653  0.6220 -1.1579
11166TIP3   OH254988   6.555   3.434  12.764  0.2517  0.8070 -0.0139
11166TIP3    H154989   6.644   3.466  12.753  0.7117 -0.2741  0.3970
11166TIP3    H254990   6.523   3.420  12.675  1.2716 -0.7917 -0.1747
11167TIP3   OH254991   0.810   0.525   3.734  0.4625 -0.1536 -0.3163
11167TIP3    H154992   0.830   0.601   3.789 -1.2988 -0.5416  0.9267
11167TIP3    H254993   0.879   0.526   3.667  0.5868  2.4377 -0.2606
11168TIP3   OH254994   0.473   0.228   5.617 -0.0904 -0.7564 -0.0017
11168TIP3    H154995   0.539   0.183   5.669  0.1228 -0.7270 -0.2440
11168TIP3    H254996   0.438   0.160   5.559 -0.4664 -0.8345  0.3142
11169TIP3   OH254997   2.516   2.146  12.733  0.1804 -0.2017  0.1740
11169TIP3    H154998   2.554   2.130  12.819 -0.0366 -0.5663  0.2047
11169TIP3    H254999   2.589   2.136  12.672  0.5926  1.2406  0.4103
11170TIP3   OH255000   6.876   2.000   3.555  0.0168 -0.0601  0.3564
11170TIP3    H155001   6.931   1.921   3.557 -1.6102 -1.2961 -0.8578
11170TIP3    H255002   6.886   2.034   3.467  1.5373  1.7919  1.1771
11171TIP3   OH255003   5.629   1.425  14.735  0.3298 -0.3540  0.4573
11171TIP3    H155004   5.590   1.431  14.823  0.1295  0.5413  0.3199
11171TIP3    H255005   5.558   1.394  14.679 -0.4734  2.0046  0.0632
11172TIP3   OH255006   4.082   3.352   3.092 -0.6145 -0.0516  0.5209
11172TIP3    H155007   4.167   3.324   3.125  0.0202 -0.0411 -1.0238
11172TIP3    H255008   4.023   3.344   3.168  0.5784 -0.8006  1.4106
11173TIP3   OH255009   6.394   5.678   1.182 -0.5388 -0.3659  0.5729
11173TIP3    H155010   6.436   5.666   1.097 -0.1321  0.8148  0.5799
11173TIP3    H255011   6.321   5.738   1.164 -1.3105 -1.2166  0.8233
11174TIP3   OH255012   4.290   6.583   5.055  0.4147 -0.2554  0.2142
11174TIP3    H155013   4.374   6.615   5.086  1.1511  0.7950 -2.5622
11174TIP3    H255014   4.248   6.660   5.016  0.1460 -1.6061 -2.3806
11175TIP3   OH255015   6.694   4.521  15.522 -0.4921  0.3978  0.4655
11175TIP3    H155016   6.692   4.489  15.431 -1.0225  0.9107  0.2882
11175TIP3    H255017   6.602   4.520  15.549 -0.1845 -1.2576  1.5500
11176TIP3   OH255018   2.483   1.901  16.604  0.0333  0.7360  0.1517
11176TIP3    H155019   2.443   1.977  16.562 -1.6814  0.4977  1.2585
11176TIP3    H255020   2.419   1.830  16.592  0.1167  0.3175  1.9129
11177TIP3   OH255021   3.662   4.204  16.880  0.4966 -0.3203  0.1650
11177TIP3    H155022   3.618   4.261  16.817  2.0357 -1.2468 -1.8901
11177TIP3    H255023   3.603   4.201  16.955 -0.5880  2.2859 -0.4670
11178TIP3   OH255024   3.334   3.962   0.590 -0.2559 -0.4646 -0.3289
11178TIP3    H155025   3.264   3.903   0.618 -0.7544  0.3123  0.0794
11178TIP3    H255026   3.290   4.034   0.545  0.4145 -0.8154 -1.6129
11179TIP3   OH255027   6.394   1.448   4.872 -0.0043  0.3717  0.5510
11179TIP3    H155028   6.479   1.438   4.829  0.4302 -0.9562  1.6555
11179TIP3    H255029   6.358   1.359   4.876 -0.8245  0.7221  1.3180
11180TIP3   OH255030   5.604   3.169   3.234  0.1261 -0.0246  0.3597
11180TIP3    H155031   5.620   3.262   3.224 -1.4664  0.3792  1.3038
11180TIP3    H255032   5.689   3.132   3.256  0.2805  1.6667  2.9758
11181TIP3   OH255033   2.957   3.052   0.425  0.2679 -0.7029 -0.1043
11181TIP3    H155034   2.869   3.087   0.414  0.6714  0.7273  0.8732
11181TIP3    H255035   2.978   3.011   0.341 -0.7644  0.2461 -0.8495
11182TIP3   OH255036   0.582   1.185  10.924 -0.5497 -0.5534  0.1322
11182TIP3    H155037   0.611   1.175  10.833  0.2902  0.1094  0.3115
11182TIP3    H255038   0.597   1.278  10.944 -2.2735 -0.3002  0.4374
11183TIP3   OH255039   2.585   6.265  13.203 -0.0710 -0.2600  0.0931
11183TIP3    H155040   2.511   6.317  13.171 -0.8478 -1.0652  0.5702
11183TIP3    H255041   2.659   6.326  13.201 -0.8133  0.6570 -0.0382
11184TIP3   OH255042   5.969   2.023   0.315 -0.2673  0.2141  0.0246
11184TIP3    H155043   5.950   2.092   0.379  1.6482  1.3747 -0.5655
11184TIP3    H255044   5.885   2.008   0.271 -1.2102  0.6605  1.5697
11185TIP3   OH255045   2.279   2.840  15.179 -0.2688  0.0190 -0.0423
11185TIP3    H155046   2.278   2.874  15.268  1.8409 -1.0711  0.4763
11185TIP3    H255047   2.366   2.863  15.146 -1.2764  1.0979 -2.1529
11186TIP3   OH255048   1.198   4.338  10.833  0.0507  0.5092 -0.3704
11186TIP3    H155049   1.202   4.269  10.898  1.1602 -1.1726 -2.1182
11186TIP3    H255050   1.128   4.395  10.863  0.2539 -0.3944  2.0445
11187TIP3   OH255051   2.093   4.836   0.110  0.2161  0.0266  0.0003
11187TIP3    H155052   2.093   4.803   0.200  1.1364 -1.0461 -0.3725
11187TIP3    H255053   2.004   4.824   0.079  0.1266 -0.4859  0.4509
11188TIP3   OH255054   2.225   2.516  10.667  0.1093  0.1545 -0.5963
11188TIP3    H155055   2.201   2.603  10.635 -0.4902  0.3831  0.4217
11188TIP3    H255056   2.150   2.461  10.646  0.5327 -0.1596 -1.3375
11189TIP3   OH255057   0.350   6.481  10.666  0.3993 -0.4647 -0.2831
11189TIP3    H155058   0.334   6.388  10.677 -0.0495 -0.3249  0.3296
11189TIP3    H255059   0.317   6.521  10.747  3.0780 -0.0476  0.6961
11190TIP3   OH255060   2.854   3.864   3.788  0.0801 -0.8343  0.4814
11190TIP3    H155061   2.801   3.790   3.758 -0.4324 -0.7908  1.2580
11190TIP3    H255062   2.935   3.857   3.738 -1.3929  0.3048 -2.2929
11191TIP3   OH255063   3.961   6.218  12.083  0.2494  0.1084  0.4451
11191TIP3    H155064   4.011   6.258  12.154  2.3889  1.1677 -1.4951
11191TIP3    H255065   3.969   6.124  12.097  0.1700  0.2952  1.8595
11192TIP3   OH255066   1.400   3.661  16.183 -0.1930 -0.3195  0.4940
11192TIP3    H155067   1.352   3.730  16.137 -0.5002 -1.1054 -0.4089
11192TIP3    H255068   1.457   3.707  16.244  0.5265  0.8020 -0.9699
11193TIP3   OH255069   6.266   4.216   2.286 -0.1736  0.0406  0.1734
11193TIP3    H155070   6.270   4.184   2.376  1.2601  0.7555  0.3860
11193TIP3    H255071   6.283   4.139   2.232  2.4687  0.2022  0.6525
11194TIP3   OH255072   2.539   0.032   2.087  0.4979 -0.2596 -0.2573
11194TIP3    H155073   2.621  -0.008   2.057  1.8081  2.5607 -0.8120
11194TIP3    H255074   2.483   0.031   2.010  0.4681 -1.0683 -0.2355
11195TIP3   OH255075   6.249   6.682   4.869 -0.0951  0.0163 -0.1247
11195TIP3    H155076   6.300   6.761   4.850 -1.6136  0.8127 -1.1327
11195TIP3    H255077   6.266   6.664   4.961  1.6297  0.4927 -0.3229
11196TIP3   OH255078   1.308   6.146  16.462  0.8004 -0.1114  0.3884
11196TIP3    H155079   1.297   6.101  16.546  0.0230 -0.6407  0.0209
11196TIP3    H255080   1.305   6.239  16.484  1.5058 -0.2382  1.0519
11197TIP3   OH255081   6.477   6.284  14.512  0.0207 -0.3257 -0.3030
11197TIP3    H155082   6.500   6.366  14.555 -0.9958 -0.4486  0.5043
11197TIP3    H255083   6.548   6.224  14.535 -0.8146 -0.5819  1.7961
11198TIP3   OH255084   6.324   2.020   0.384  0.5659  0.0294 -0.7503
11198TIP3    H155085   6.281   1.978   0.458  0.6642 -0.1447 -0.7927
11198TIP3    H255086   6.341   1.949   0.322  0.9493  0.0931 -0.7164
11199TIP3   OH255087   6.895   2.865  15.365 -0.1192 -0.1848  0.2984
11199TIP3    H155088   6.904   2.822  15.280 -0.9677  0.6324 -0.2261
11199TIP3    H255089   6.985   2.887  15.390  0.0013  1.7876 -1.5831
11200TIP3   OH255090   5.442   3.902   0.909  0.1982  0.2427 -0.4313
11200TIP3    H155091   5.428   3.882   1.001  0.1119  0.1476 -0.4638
11200TIP3    H255092   5.371   3.962   0.886 -1.6031 -1.9841 -1.1702
11201TIP3   OH255093   6.437   4.554  10.502  0.1900  0.7532  0.1701
11201TIP3    H155094   6.499   4.626  10.490  0.4724  0.3263 -1.0520
11201TIP3    H255095   6.421   4.521  10.414 -1.4213  0.5434  0.5125
11202TIP3   OH255096   3.435   5.539   0.004  0.5311 -0.0672  0.0816
11202TIP3    H155097   3.376   5.609   0.033 -0.9389 -1.0185 -0.5329
11202TIP3    H255098   3.392   5.458   0.030  1.1238 -0.8272 -1.1839
11203TIP3   OH255099   4.077   5.797   1.812  0.0444 -0.3037 -0.0512
11203TIP3    H155100   4.119   5.873   1.852 -0.0330 -1.2803  2.0106
11203TIP3    H255101   4.144   5.729   1.815 -0.2571 -0.6333 -0.8325
11204TIP3   OH255102   6.639   0.316   3.568  0.7897  0.2690  0.0077
11204TIP3    H155103   6.653   0.366   3.487  0.4746 -0.9039 -0.8103
11204TIP3    H255104   6.642   0.381   3.638  1.2485  1.2908 -0.9353
11205TIP3   OH255105   2.827   5.797  16.118  0.1904 -1.1681 -0.6869
11205TIP3    H155106   2.862   5.830  16.035  1.8161 -0.6763  0.1496
11205TIP3    H255107   2.732   5.795  16.104 -0.0707  3.1164 -1.1519
11206TIP3   OH255108   1.309   6.634  13.043  0.0402 -0.4861  0.2449
11206TIP3    H155109   1.345   6.723  13.045  1.5316 -1.0700  1.4022
11206TIP3    H255110   1.219   6.646  13.014  1.1024  1.0626 -2.9660
11207TIP3   OH255111   3.977   5.631  15.269  0.4362  0.2289 -0.7039
11207TIP3    H155112   3.949   5.716  15.235 -0.6726 -0.4370 -1.5268
11207TIP3    H255113   3.895   5.586  15.291  1.0557  0.3994  2.3741
11208TIP3   OH255114   3.924   2.870  16.256 -0.7557 -0.1318  0.4710
11208TIP3    H155115   3.974   2.848  16.336 -1.5778  1.1304  1.3682
11208TIP3    H255116   3.923   2.965  16.254 -3.2384 -0.0936  0.5697
11209TIP3   OH255117   0.625   2.805   3.350 -0.4404  0.3940  0.4445
11209TIP3    H155118   0.650   2.715   3.327 -1.4437  0.1918  0.1108
11209TIP3    H255119   0.547   2.822   3.298  0.7568  2.1222 -0.9026
11210TIP3   OH255120   0.078   1.972  10.888 -0.3837 -0.1477 -0.6198
11210TIP3    H155121  -0.009   1.956  10.924  0.1270 -1.9826 -0.0741
11210TIP3    H255122   0.063   1.989  10.795 -1.2686 -1.8051 -0.8295
11211TIP3   OH255123   0.384   4.641  11.019  0.1864  0.0154  0.4787
11211TIP3    H155124   0.295   4.617  10.993 -0.3055  0.9623  1.2268
11211TIP3    H255125   0.380   4.650  11.114  1.5084 -1.5870  0.7164
11212TIP3   OH255126   3.398   3.959  13.560  0.5153 -0.1632  0.2068
11212TIP3    H155127   3.373   3.974  13.651 -1.0005 -2.0408  0.1507
11212TIP3    H255128   3.471   3.897  13.565  0.2144 -0.5242  0.1347
11213TIP3   OH255129   1.495   4.416  16.626 -0.0806  0.1198  0.1142
11213TIP3    H155130   1.419   4.422  16.567 -1.1299 -0.0485  1.4045
11213TIP3    H255131   1.547   4.494  16.607 -1.9071  1.6302  0.9644
11214TIP3   OH255132   0.334   5.304  13.971  0.1269  0.3290  0.2378
11214TIP3    H155133   0.405   5.325  13.910 -0.2500 -0.8483 -0.6294
11214TIP3    H255134   0.339   5.209  13.982 -3.9643 -0.6212 -3.3201
11215TIP3   OH255135   6.461   0.064  12.289  0.0026  0.2496 -0.3280
11215TIP3    H155136   6.464   0.117  12.369  1.1965  1.5402 -1.1685
11215TIP3    H255137   6.485  -0.024  12.318 -1.6599  0.1835  1.0527
11216TIP3   OH255138   3.939   6.182  14.494 -0.3233  0.3372 -0.4515
11216TIP3    H155139   3.891   6.100  14.481  1.4060 -1.2838  2.2889
11216TIP3    H255140   3.883   6.232  14.553 -0.0067 -0.2862  0.4022
11217TIP3   OH255141   0.274   0.068  13.630  0.0833  0.0671 -0.0856
11217TIP3    H155142   0.232   0.051  13.545 -1.8670  0.2853  0.7880
11217TIP3    H255143   0.282  -0.019  13.670 -0.5694  0.1187  0.1820
11218TIP3   OH255144   5.701   6.246   2.812 -0.1470 -0.3536 -0.4350
11218TIP3    H155145   5.672   6.185   2.880  0.5261  0.1668  0.3282
11218TIP3    H255146   5.775   6.202   2.770  2.2753  1.0515  2.0260
11219TIP3   OH255147   3.851   5.270  15.120 -0.0928  0.6710 -0.2254
11219TIP3    H155148   3.861   5.336  15.052  0.0006  0.8906 -0.0011
11219TIP3    H255149   3.931   5.217  15.115 -0.5053  0.0928 -0.9130
11220TIP3   OH255150   5.748   4.521  13.086 -0.0596  0.7304  0.2145
11220TIP3    H155151   5.784   4.586  13.026  1.3489  0.6882  0.9704
11220TIP3    H255152   5.706   4.571  13.155 -1.0239  0.7830 -0.3811
11221TIP3   OH255153   2.368   5.250  11.044 -0.1346 -0.1946 -0.1094
11221TIP3    H155154   2.302   5.248  11.112  1.2808 -1.5654  1.3048
11221TIP3    H255155   2.333   5.194  10.974 -0.7755 -0.2929  0.2856
11222TIP3   OH255156   0.121   6.872  11.739  0.1445  0.4760 -0.1043
11222TIP3    H155157   0.216   6.883  11.741  0.1634  0.2490  0.5013
11222TIP3    H255158   0.087   6.946  11.788  0.0741 -0.0428  0.6541
11223TIP3   OH255159   2.536   1.103  14.775 -0.2734 -0.1216 -0.6243
11223TIP3    H155160   2.546   1.009  14.794  1.1754 -0.2908 -1.9295
11223TIP3    H255161   2.456   1.108  14.723 -0.9447 -0.4735  0.3550
11224TIP3   OH255162   6.689   3.998  15.509 -0.0228  0.0845 -0.7479
11224TIP3    H155163   6.757   4.065  15.501  0.4952 -0.0502  1.6219
11224TIP3    H255164   6.736   3.918  15.529 -0.7749 -0.4081 -0.9083
11225TIP3   OH255165   6.143   1.052   0.761  0.1183  0.0352 -0.7262
11225TIP3    H155166   6.090   1.128   0.785  0.6362 -0.1905  1.3029
11225TIP3    H255167   6.121   0.985   0.826  1.3695 -0.7606 -1.0740
11226TIP3   OH255168   0.584   2.561  12.090 -0.5903 -0.1425  0.6381
11226TIP3    H155169   0.648   2.490  12.085 -0.4743 -0.0437  0.7154
11226TIP3    H255170   0.622   2.632  12.039 -1.5635 -0.7803 -1.0680
11227TIP3   OH255171   3.000   6.700  11.969  0.4345 -0.3558 -0.2426
11227TIP3    H155172   2.973   6.792  11.967 -0.2268 -0.5581 -0.8721
11227TIP3    H255173   2.979   6.671  12.058 -0.4712 -0.2226 -0.4094
11228TIP3   OH255174   6.294   5.527  12.124  0.3823  0.1454  0.0035
11228TIP3    H155175   6.327   5.605  12.168 -1.1374  1.0101 -0.3206
11228TIP3    H255176   6.333   5.454  12.172  1.9594  1.0847  0.2173
11229TIP3   OH255177   5.615   5.204   2.403  0.3119  0.0441  0.5557
11229TIP3    H155178   5.634   5.176   2.314 -0.3941  0.9630  0.0980
11229TIP3    H255179   5.663   5.142   2.458 -0.9287 -1.8576 -0.4000
11230TIP3   OH255180   0.483   1.842  13.760 -0.1988 -0.5364  0.0612
11230TIP3    H155181   0.406   1.809  13.715 -1.0750  2.2664 -0.6903
11230TIP3    H255182   0.548   1.855  13.691 -0.3253  0.4673  0.1127
11231TIP3   OH255183   0.281   3.653   3.539  0.5426  0.4764 -0.6704
11231TIP3    H155184   0.329   3.571   3.526  1.2812  0.9773 -1.1501
11231TIP3    H255185   0.189   3.629   3.527  0.4251 -0.8894  2.0072
11232TIP3   OH255186   3.564   4.323  12.264  0.2377 -0.7528 -0.2034
11232TIP3    H155187   3.627   4.251  12.254  1.4296  0.4362 -1.7160
11232TIP3    H255188   3.612   4.401  12.237 -0.9549  0.6871  1.6084
11233TIP3   OH255189   3.695   6.252  13.621  0.9599 -0.0715  0.4195
11233TIP3    H155190   3.604   6.227  13.607  0.5728 -0.3443  3.0242
11233TIP3    H255191   3.695   6.347  13.611  0.1120  0.0730  1.6458
11234TIP3   OH255192   1.798   2.710   6.239  0.2596  0.5597 -0.6887
11234TIP3    H155193   1.734   2.713   6.167  1.7980 -0.5976 -2.2080
11234TIP3    H255194   1.791   2.620   6.273 -0.0649  0.9349  0.2674
11235TIP3   OH255195   3.247   3.059  15.366 -0.3027 -0.6494  0.1868
11235TIP3    H155196   3.321   2.998  15.364  0.1942 -0.1679  2.2604
11235TIP3    H255197   3.171   3.004  15.382  0.1114 -0.8142  1.7757
11236TIP3   OH255198   2.983   3.332  12.945 -0.4480 -0.4874 -0.2828
11236TIP3    H155199   3.041   3.334  12.869  1.1433  0.4929  0.8898
11236TIP3    H255200   2.948   3.421  12.950  0.2701 -0.2399  0.6874
11237TIP3   OH255201   1.604   3.428   2.521 -0.0249 -0.4015 -0.1958
11237TIP3    H155202   1.592   3.510   2.569  0.0104 -0.2303 -0.4806
11237TIP3    H255203   1.672   3.446   2.458 -0.8470 -0.2894 -1.0712
11238TIP3   OH255204   3.717   5.373   4.361 -0.1312  0.5398  0.3507
11238TIP3    H155205   3.707   5.451   4.307  4.2433  0.0537 -1.5745
11238TIP3    H255206   3.679   5.303   4.308 -0.0201  0.7193  0.0342
11239TIP3   OH255207   1.885   0.865   4.522 -0.4797 -0.7614 -0.6613
11239TIP3    H155208   1.852   0.922   4.453  0.0833  0.0890 -0.2439
11239TIP3    H255209   1.819   0.796   4.530 -1.5325  0.2125 -0.7053
11240TIP3   OH255210   1.903   6.344  10.366 -1.0773 -0.2863  0.5563
11240TIP3    H155211   1.941   6.288  10.298  1.0406  1.1428  0.4503
11240TIP3    H255212   1.871   6.421  10.318  0.8576  0.9497  1.1206
11241TIP3   OH255213   2.311   5.870   0.277  0.4586  0.5257 -0.5414
11241TIP3    H155214   2.391   5.877   0.225 -0.1719 -0.8498 -1.7428
11241TIP3    H255215   2.249   5.824   0.221 -1.1431  1.4118  0.4336
11242TIP3   OH255216   3.076   0.559  13.143  0.4455 -0.0835  0.0663
11242TIP3    H155217   3.094   0.648  13.114 -0.1160  0.5501  1.5480
11242TIP3    H255218   3.108   0.556  13.233 -0.0895 -1.1821  0.2395
11243TIP3   OH255219   4.389   5.306  12.998 -0.6930  0.2103  0.2620
11243TIP3    H155220   4.441   5.235  12.960 -1.1006  0.5213 -0.9204
11243TIP3    H255221   4.446   5.344  13.065  0.7750  0.7393 -1.1998
11244TIP3   OH255222   2.485   4.768  10.698  0.3209 -0.0908  0.1194
11244TIP3    H155223   2.560   4.780  10.756 -0.3242  0.2030  0.9118
11244TIP3    H255224   2.452   4.856  10.681  0.6344 -0.1524 -0.8927
11245TIP3   OH255225   3.451   0.011  11.157  0.2444 -0.1629  0.2427
11245TIP3    H155226   3.394   0.080  11.191 -0.5880 -0.9863  0.5487
11245TIP3    H255227   3.500  -0.019  11.233  0.2103 -0.2854  0.2159
11246TIP3   OH255228   3.513   4.247  15.056 -0.2917  0.1628 -0.0339
11246TIP3    H155229   3.423   4.258  15.027 -0.0099  0.1098 -0.9686
11246TIP3    H255230   3.558   4.325  15.024 -0.2330  0.7552  1.4287
11247TIP3   OH255231   4.510   5.849  13.728  0.1599 -0.3040 -0.1132
11247TIP3    H155232   4.597   5.824  13.760  0.4659  1.3698  0.5203
11247TIP3    H255233   4.491   5.931  13.774 -1.3716 -0.1652 -0.9266
11248TIP3   OH255234   4.468   3.909   3.048 -0.1662 -0.1736 -0.3429
11248TIP3    H155235   4.486   3.866   2.964 -0.9498  0.5247 -0.8969
11248TIP3    H255236   4.385   3.955   3.033 -0.8883 -0.9305  1.1654
11249TIP3   OH255237   4.802   0.329  14.991  0.1213  0.1812  0.0672
11249TIP3    H155238   4.796   0.343  14.897 -1.5785 -0.3151  0.0695
11249TIP3    H255239   4.806   0.234  15.002  2.1653  0.2645  0.4533
11250TIP3   OH255240   5.322   4.931   1.913  0.5237 -0.2261 -0.1975
11250TIP3    H155241   5.287   4.854   1.958  1.8168 -0.1139  1.0678
11250TIP3    H255242   5.245   4.974   1.877 -0.4371 -1.0431  0.7908
11251TIP3   OH255243   1.307   5.560  12.222  0.6830  0.0462  0.2607
11251TIP3    H155244   1.310   5.465  12.230  0.3123 -0.2355 -2.0272
11251TIP3    H255245   1.390   5.590  12.260  1.1689 -1.2712  0.2995
11252TIP3   OH255246   3.043   1.242  12.197 -0.4559  0.0888 -0.4096
11252TIP3    H155247   3.132   1.261  12.228 -1.6523  1.0644  2.8102
11252TIP3    H255248   3.050   1.247  12.102  2.9677 -0.1388 -0.3275
11253TIP3   OH255249   0.743   1.160  14.968  0.1964  0.0033 -0.2877
11253TIP3    H155250   0.771   1.117  15.048 -1.3413 -1.0302 -0.2664
11253TIP3    H255251   0.669   1.216  14.994  1.4429  1.8718 -0.5210
11254TIP3   OH255252   4.936   0.019   3.390 -0.1501  0.4921  0.0975
11254TIP3    H155253   4.918   0.104   3.349 -0.2270  1.1501  1.4448
11254TIP3    H255254   5.007   0.036   3.451  0.0995 -0.5095  0.0993
11255TIP3   OH255255   5.510   6.708   4.512 -0.6360 -0.2630 -0.4431
11255TIP3    H155256   5.467   6.733   4.594  1.6417  2.8553 -0.0024
11255TIP3    H255257   5.570   6.638   4.537 -1.0986 -0.4471  0.2002
11256TIP3   OH255258   4.836   4.024   1.641 -0.4523  0.0245  0.3703
11256TIP3    H155259   4.812   4.094   1.701 -1.3865  0.4803 -0.5049
11256TIP3    H255260   4.874   3.956   1.698  1.0345  1.4500  1.1535
11257TIP3   OH255261   2.631   3.608   1.842  0.7519 -0.4659  0.1722
11257TIP3    H155262   2.580   3.548   1.787  1.9675 -0.5183 -0.9685
11257TIP3    H255263   2.686   3.550   1.896  0.5105 -0.3960  0.4960
11258TIP3   OH255264   1.158   1.392   0.749 -0.5589 -0.3768 -0.0292
11258TIP3    H155265   1.131   1.302   0.730  0.3358 -0.4548 -1.0563
11258TIP3    H255266   1.236   1.383   0.804 -0.6468 -0.2290  0.1193
11259TIP3   OH255267   2.954   0.725  11.141  0.1293  0.0578  0.0199
11259TIP3    H155268   3.002   0.665  11.198 -2.1403  0.2856  2.3498
11259TIP3    H255269   2.897   0.668  11.089  1.6419 -0.0873 -1.5804
11260TIP3   OH255270   5.073   6.416   4.349 -0.4048 -0.4695 -0.1635
11260TIP3    H155271   5.026   6.347   4.397  1.8141 -2.5127 -0.7101
11260TIP3    H255272   5.160   6.379   4.334  0.0955  1.4873 -2.7379
11261TIP3   OH255273   5.050   1.747   1.040  0.1758  0.0245  0.9831
11261TIP3    H155274   5.137   1.722   1.072  0.1313 -0.3094  0.8397
11261TIP3    H255275   5.009   1.792   1.115  0.4655  0.1746  1.0542
11262TIP3   OH255276   6.251   4.534   4.128  0.0505 -0.0989  0.2013
11262TIP3    H155277   6.324   4.518   4.187  0.7908  1.6770 -0.1637
11262TIP3    H255278   6.291   4.543   4.042 -0.6335  0.5083 -0.0645
11263TIP3   OH255279   3.849   4.554   0.817 -0.5592 -0.1129  0.2411
11263TIP3    H155280   3.900   4.477   0.839  0.4082  0.0841 -1.1607
11263TIP3    H255281   3.807   4.532   0.734  0.1962  1.0507 -0.4785
11264TIP3   OH255282   1.277   3.917  13.428 -0.1656  0.1903 -0.5775
11264TIP3    H155283   1.248   3.842  13.377  0.8624  0.3679 -1.4525
11264TIP3    H255284   1.277   3.887  13.519  1.4343 -1.2793 -1.0233
11265TIP3   OH255285   1.857   1.115  15.819 -0.1729 -0.0133  0.2156
11265TIP3    H155286   1.918   1.181  15.788  0.2229 -0.5703 -0.2196
11265TIP3    H255287   1.848   1.054  15.746 -0.7433 -0.2946  0.5096
11266TIP3   OH255288   5.611   5.359  13.982 -0.7762 -0.1680 -0.0641
11266TIP3    H155289   5.649   5.387  14.066 -0.6603 -0.4473 -0.0192
11266TIP3    H255290   5.591   5.266  13.996 -1.5572 -0.0019 -0.0596
11267TIP3   OH255291   2.428   0.076   4.437  0.2230 -0.3578 -0.1472
11267TIP3    H155292   2.473   0.024   4.504  0.6392 -3.9601 -2.9237
11267TIP3    H255293   2.341   0.093   4.473  1.1613 -0.0989  2.1517
11268TIP3   OH255294   6.077   5.455   3.346  0.3608  0.1770  0.3788
11268TIP3    H155295   6.133   5.463   3.268  0.3964 -0.7045  0.3012
11268TIP3    H255296   6.029   5.374   3.332 -0.4546  0.5804  0.7675
11269TIP3   OH255297   6.574   1.234   3.078  0.1721  0.0587  0.6936
11269TIP3    H155298   6.669   1.224   3.074  0.5910  3.1156 -0.2583
11269TIP3    H255299   6.556   1.306   3.017 -2.5897  0.5534  1.9580
11270TIP3   OH255300   5.316   2.903  16.073 -0.3713  0.3374 -0.0847
11270TIP3    H155301   5.278   2.991  16.064  1.8563  1.2194 -1.5197
11270TIP3    H255302   5.381   2.897  16.004  1.4413 -1.4623  1.6459
11271TIP3   OH255303   2.806   1.060   1.400 -0.1231  0.0266  0.4000
11271TIP3    H155304   2.782   0.993   1.335  0.0582  1.1403 -0.8438
11271TIP3    H255305   2.902   1.064   1.394 -0.2269  1.5459 -0.7502
11272TIP3   OH255306   4.910   5.224  14.333 -0.3510  0.1694  0.3010
11272TIP3    H155307   4.873   5.312  14.330  0.8501  0.6715 -0.4572
11272TIP3    H255308   4.838   5.169  14.364 -1.0263  1.4544  1.1094
11273TIP3   OH255309   3.981   3.460   2.574 -0.1505 -0.0081 -0.3499
11273TIP3    H155310   4.013   3.431   2.659  0.5448 -2.2992 -1.3217
11273TIP3    H255311   3.893   3.494   2.593 -0.2672 -1.0416  1.2137
11274TIP3   OH255312   0.171   4.135   5.043 -0.6241 -0.4875  0.4535
11274TIP3    H155313   0.166   4.079   4.966 -0.1100  0.8917 -0.6383
11274TIP3    H255314   0.087   4.181   5.044  0.0071  0.7400 -0.3174
11275TIP3   OH255315   3.624   6.608  11.884  0.2252  0.5157 -0.1570
11275TIP3    H155316   3.664   6.608  11.797  1.1860  1.5772  0.2591
11275TIP3    H255317   3.583   6.694  11.892  0.6876  0.6735  0.6673
11276TIP3   OH255318   0.525   3.791   1.858 -0.0298 -0.1559  0.3230
11276TIP3    H155319   0.506   3.863   1.797 -0.0303 -0.3114  0.1374
11276TIP3    H255320   0.439   3.764   1.891  0.0887  0.9598  1.5918
11277TIP3   OH255321   6.335   4.271  13.475 -0.5427  0.3431  0.3774
11277TIP3    H155322   6.307   4.316  13.555  0.2301 -0.2370  0.9860
11277TIP3    H255323   6.355   4.182  13.503 -0.1202  0.1669 -0.4393
11278TIP3   OH255324   6.112   6.135  15.853  0.2647 -0.1838  0.2894
11278TIP3    H155325   6.198   6.171  15.832 -0.4797  0.9911 -0.9306
11278TIP3    H255326   6.112   6.048  15.812  1.0815 -0.4431  0.8273
11279TIP3   OH255327   2.491   6.264   2.715  0.5339 -0.4257 -0.6570
11279TIP3    H155328   2.550   6.225   2.779 -0.8154 -0.4695  0.6173
11279TIP3    H255329   2.419   6.300   2.768 -0.8904 -0.9302 -2.1633
11280TIP3   OH255330   4.598   2.288   5.804 -0.0407  0.2835  0.1084
11280TIP3    H155331   4.649   2.238   5.867  1.0650 -0.6019 -1.4084
11280TIP3    H255332   4.517   2.237   5.793  0.6457 -0.6775 -0.6749
11281TIP3   OH255333   4.695   2.579  13.782 -0.4989 -0.7591 -0.5727
11281TIP3    H155334   4.668   2.658  13.829  2.0788  0.5502 -1.1298
11281TIP3    H255335   4.632   2.513  13.810 -1.4803  0.9399  1.5870
11282TIP3   OH255336   5.008   6.867   5.404  0.2581 -0.4995  0.2689
11282TIP3    H155337   5.090   6.885   5.451 -0.3395 -0.4237  1.3094
11282TIP3    H255338   4.997   6.772   5.409 -0.1958 -0.4140  0.9580
11283TIP3   OH255339   2.826   0.346  13.927  0.0898  0.3925  0.1601
11283TIP3    H155340   2.875   0.348  14.009  0.7035 -1.5055 -0.1242
11283TIP3    H255341   2.888   0.378  13.861  0.8780 -1.5865 -0.1254
11284TIP3   OH255342   6.092   6.387  12.686  0.0891 -0.0017  0.0121
11284TIP3    H155343   6.009   6.431  12.664  0.0852 -0.3583 -0.7147
11284TIP3    H255344   6.071   6.293  12.681  0.7613 -0.1032 -1.0739
11285TIP3   OH255345   3.326   2.425   2.336 -0.0212  0.5114 -0.2634
11285TIP3    H155346   3.299   2.517   2.327  1.4496  0.7914 -2.6457
11285TIP3    H255347   3.259   2.376   2.288  1.2159  0.7855 -2.3890
11286TIP3   OH255348   2.561   5.517  13.955 -0.0012  0.0344  0.0773
11286TIP3    H155349   2.476   5.551  13.982  0.0582  0.0578  0.2306
11286TIP3    H255350   2.621   5.542  14.025  0.1123 -0.0732  0.0184
11287TIP3   OH255351   3.605   0.299   1.517 -0.1695 -0.4057  0.5063
11287TIP3    H155352   3.526   0.306   1.465  0.0925 -3.0952 -0.3690
11287TIP3    H255353   3.664   0.365   1.479 -1.1609  0.0169 -0.3506
11288TIP3   OH255354   4.012   1.813   4.392  0.1835 -0.4099 -0.0791
11288TIP3    H155355   4.063   1.755   4.335  0.0123 -0.0157 -0.6406
11288TIP3    H255356   3.965   1.753   4.451  0.7007 -0.8024 -0.0560
11289TIP3   OH255357   5.203   3.353  14.007  0.2245 -0.7026 -0.2107
11289TIP3    H155358   5.239   3.383  13.923 -1.6482 -2.1206 -1.6033
11289TIP3    H255359   5.258   3.395  14.073  0.9378  1.5419 -2.1004
11290TIP3   OH255360   1.835   3.825   3.773  0.1776 -0.6781  0.4924
11290TIP3    H155361   1.768   3.781   3.826 -1.3967  0.6327 -0.3312
11290TIP3    H255362   1.795   3.834   3.687  1.1731  0.7164  0.1463
11291TIP3   OH255363   4.848   2.002  11.074 -0.7129  0.1106 -0.2883
11291TIP3    H155364   4.853   1.969  10.984 -0.7433 -2.6372  0.6244
11291TIP3    H255365   4.786   1.944  11.117  0.1333  0.6657  1.7898
11292TIP3   OH255366   1.181   6.795  12.081 -0.2909 -0.4401  0.0576
11292TIP3    H155367   1.092   6.779  12.051 -0.5499 -0.8824  1.0073
11292TIP3    H255368   1.228   6.824  12.004 -1.3888  0.3019 -0.3451
11293TIP3   OH255369   0.713   2.251  15.664  0.8164 -0.0906  0.1023
11293TIP3    H155370   0.645   2.306  15.703  0.8025 -0.6218  0.8381
11293TIP3    H255371   0.761   2.310  15.606 -0.6831  0.1353 -0.9446
11294TIP3   OH255372   4.881   0.462   0.110  0.9119  0.1956  0.6126
11294TIP3    H155373   4.786   0.477   0.117  0.7342 -0.6278 -0.0287
11294TIP3    H255374   4.912   0.532   0.052  0.5388 -0.1074  0.0374
11295TIP3   OH255375   6.261   6.642   0.819 -0.1201  0.6459  0.0880
11295TIP3    H155376   6.245   6.717   0.761  0.3207  1.3377  0.8435
11295TIP3    H255377   6.246   6.676   0.907  2.8374  0.6693  0.6938
11296TIP3   OH255378   4.874   3.082   0.209  0.3844  0.4256 -0.0869
11296TIP3    H155379   4.804   3.134   0.170 -1.4163 -1.5826  0.2837
11296TIP3    H255380   4.885   3.007   0.150  3.5442  1.5157 -1.0891
11297TIP3   OH255381   0.797   6.619  15.410 -0.0515 -0.1586  0.7651
11297TIP3    H155382   0.893   6.625  15.404 -0.1974  1.5102 -0.8350
11297TIP3    H255383   0.781   6.532  15.445  1.9887 -1.9464 -2.2720
11298TIP3   OH255384   5.519   4.914   5.733 -0.7875 -0.3230 -0.0314
11298TIP3    H155385   5.516   4.819   5.748  1.7056 -1.0068 -2.8153
11298TIP3    H255386   5.566   4.949   5.808 -1.5209 -1.2944  0.9180
11299TIP3   OH255387   4.030   0.841   5.315 -0.9196  0.0572  0.4302
11299TIP3    H155388   3.978   0.770   5.352  0.9949 -1.3171  0.6913
11299TIP3    H255389   4.116   0.831   5.357  0.2292  0.7486 -1.6271
11300TIP3   OH255390   0.803   2.261   0.878  0.3571 -0.2098 -0.4909
11300TIP3    H155391   0.784   2.349   0.847 -0.5784 -0.1003  0.3450
11300TIP3    H255392   0.865   2.274   0.950  1.4374 -0.3661 -1.3595
11301TIP3   OH255393   5.235   2.244   4.229  0.5990 -0.1994  0.6846
11301TIP3    H155394   5.216   2.319   4.285  0.9363  0.5973 -0.2277
11301TIP3    H255395   5.226   2.278   4.140 -0.0520 -1.4609  0.2355
11302TIP3   OH255396   2.546   0.751   1.265 -0.0191 -0.1000 -0.8299
11302TIP3    H155397   2.559   0.840   1.233  0.1981 -0.0953 -0.7284
11302TIP3    H255398   2.507   0.704   1.191 -0.1033  0.0701 -0.8932
11303TIP3   OH255399   2.932   1.760  15.865  0.5266 -0.2516  0.4157
11303TIP3    H155400   2.938   1.684  15.923 -0.4456 -2.7182 -2.4710
11303TIP3    H255401   3.009   1.754  15.809 -0.5538 -0.2735 -1.1223
11304TIP3   OH255402   2.904   0.155  11.392  0.1458 -0.7625 -0.5646
11304TIP3    H155403   2.889   0.097  11.467  0.6999 -0.7292 -0.4221
11304TIP3    H255404   2.952   0.229  11.428  0.2480 -0.6550 -0.9155
11305TIP3   OH255405   2.106   0.758   1.781  0.0398 -0.5560  0.5578
11305TIP3    H155406   2.144   0.671   1.774  0.7867 -0.3134  1.3707
11305TIP3    H255407   2.178   0.818   1.761  0.0810 -0.0920  1.9518
11306TIP3   OH255408   6.811   5.627   1.304 -0.0162  0.2237 -0.1874
11306TIP3    H155409   6.725   5.586   1.294 -0.7926  2.0248 -1.3362
11306TIP3    H255410   6.873   5.561   1.271 -1.1474 -0.2845 -1.3607
11307TIP3   OH255411   3.224   0.703   4.544  0.7943 -0.0148  0.0610
11307TIP3    H155412   3.296   0.766   4.550  2.9021 -2.3518  0.5030
11307TIP3    H255413   3.182   0.724   4.460  4.7446 -1.2088 -2.5042
11308TIP3   OH255414   0.074   0.701  14.320  0.2692  0.5918  0.2293
11308TIP3    H155415   0.008   0.748  14.371 -1.3753 -2.5801  1.3113
11308TIP3    H255416   0.153   0.707  14.372  0.0347  1.8085  0.4845
11309TIP3   OH255417   1.260   1.178  16.361 -0.1596  0.6156  0.1357
11309TIP3    H155418   1.300   1.259  16.330  1.0026 -0.7059 -2.0982
11309TIP3    H255419   1.314   1.151  16.435  1.4058  0.3496 -1.0433
11310TIP3   OH255420   3.416   5.958  16.264  0.1007  0.1181 -0.3449
11310TIP3    H155421   3.328   5.965  16.227  0.7079 -0.9795 -2.1680
11310TIP3    H255422   3.411   5.885  16.325 -0.6181  1.1345  0.8621
11311TIP3   OH255423   5.850   4.183  13.593  0.2223 -0.2277 -0.0690
11311TIP3    H155424   5.766   4.197  13.548 -0.0277 -0.3735  0.3457
11311TIP3    H255425   5.897   4.121  13.537  1.0968  1.7235 -1.6050
11312TIP3   OH255426   5.781   4.010   4.242 -0.0809  0.1032  0.1082
11312TIP3    H155427   5.834   3.954   4.298  0.0103 -0.0499 -0.1255
11312TIP3    H255428   5.756   4.084   4.297  2.5421  1.5469 -0.4645
11313TIP3   OH255429   0.820   0.713  10.576 -0.1985 -0.3069  0.2029
11313TIP3    H155430   0.741   0.766  10.583 -0.9583 -0.9299 -2.2916
11313TIP3    H255431   0.888   0.764  10.618 -1.3158  1.7162 -0.3228
11314TIP3   OH255432   2.086   2.547  11.393  0.1811 -0.3741 -0.0870
11314TIP3    H155433   1.991   2.555  11.395 -0.0783 -2.7514 -0.2882
11314TIP3    H255434   2.111   2.526  11.483  0.3368 -1.1193 -0.2922
11315TIP3   OH255435   6.412   6.073   3.079 -0.2124  0.1208  0.6684
11315TIP3    H155436   6.497   6.030   3.091 -0.9728 -2.2194 -1.4287
11315TIP3    H255437   6.366   6.059   3.162  0.1736 -1.8457  0.5940
11316TIP3   OH255438   1.253   5.319   0.873 -0.1363  0.1129 -0.0308
11316TIP3    H155439   1.283   5.314   0.782  1.3705  1.0445  0.3740
11316TIP3    H255440   1.195   5.244   0.883  1.4795 -1.3827 -1.1416
11317TIP3   OH255441   0.593   3.822   2.242 -0.6838 -0.3092  0.8725
11317TIP3    H155442   0.637   3.745   2.279  0.2819  0.0362  0.4792
11317TIP3    H255443   0.515   3.786   2.200 -1.6557 -0.7373  2.9364
11318TIP3   OH255444   2.775   1.128   4.678  0.5377 -0.1273  0.3375
11318TIP3    H155445   2.758   1.086   4.763  1.3960 -0.3123  0.4257
11318TIP3    H255446   2.864   1.101   4.655  0.8550  1.0804  0.0656
11319TIP3   OH255447   6.281   0.564   1.488  0.1047  0.1213 -0.8554
11319TIP3    H155448   6.243   0.647   1.460 -0.2150  0.1465 -0.3731
11319TIP3    H255449   6.340   0.539   1.417  0.6439  1.0398 -0.7470
11320TIP3   OH255450   4.581   1.571   3.794 -0.3124  0.9764 -0.0914
11320TIP3    H155451   4.540   1.486   3.809 -0.5984  0.5641 -2.6691
11320TIP3    H255452   4.507   1.631   3.784 -0.1559  1.2000  0.0966
11321TIP3   OH255453   5.356   2.862  11.667 -0.4071  0.2621  0.6222
11321TIP3    H155454   5.288   2.815  11.618  1.0679 -2.4449  0.9877
11321TIP3    H255455   5.345   2.833  11.757  0.1608  1.1484  0.9828
11322TIP3   OH255456   4.761   1.248   2.833 -0.5096  0.3580 -0.0519
11322TIP3    H155457   4.854   1.255   2.813 -0.2417  3.4044  1.5929
11322TIP3    H255458   4.717   1.268   2.750  0.3238  0.3811 -0.4998
11323TIP3   OH255459   0.551   3.905  15.600  0.3981 -0.3081  0.4929
11323TIP3    H155460   0.472   3.948  15.633  1.5815  1.0123  1.6838
11323TIP3    H255461   0.618   3.973  15.600  1.1163 -0.8741 -2.3918
11324TIP3   OH255462   1.127   2.296  13.787  0.2372 -0.1054 -0.2505
11324TIP3    H155463   1.063   2.267  13.722 -0.8918 -0.7134  1.0874
11324TIP3    H255464   1.105   2.388  13.803 -2.8747 -1.1884  2.9131
11325TIP3   OH255465   5.771   0.242   1.263 -0.0377  0.4187 -0.1250
11325TIP3    H155466   5.740   0.333   1.267  2.7210  1.5244 -1.3260
11325TIP3    H255467   5.803   0.224   1.351 -1.2996  0.2925  0.3300
11326TIP3   OH255468   6.495   4.025  13.723  0.0202 -0.8386 -0.5904
11326TIP3    H155469   6.533   4.044  13.637  0.3017 -0.0708 -0.3042
11326TIP3    H255470   6.501   4.107  13.770 -0.3846 -1.1853  0.0776
11327TIP3   OH255471   0.785   2.101  10.222 -0.6132  0.3519  0.2090
11327TIP3    H155472   0.704   2.071  10.180 -0.7837  0.8440  0.1798
11327TIP3    H255473   0.824   2.021  10.258 -0.9409  0.0609 -0.0688
11328TIP3   OH255474   3.171   2.532   3.111 -0.1196 -0.3507  0.3152
11328TIP3    H155475   3.164   2.557   3.203 -0.1954  0.4990  0.0913
11328TIP3    H255476   3.262   2.504   3.101  0.4647  1.4273  0.2299
11329TIP3   OH255477   4.455   2.712   0.086 -0.2239 -0.5218  0.8192
11329TIP3    H155478   4.395   2.750   0.150 -0.7761 -0.3027  0.1841
11329TIP3    H255479   4.528   2.775   0.082 -0.8322  0.1673  0.2447
11330TIP3   OH255480   6.291   4.924  14.941  0.1194  0.3892  0.0476
11330TIP3    H155481   6.315   4.845  14.894 -0.2179  1.5961 -2.2874
11330TIP3    H255482   6.368   4.945  14.994  0.7064 -0.7517 -0.3287
11331TIP3   OH255483   3.978   6.699  14.777  0.3007 -0.7635 -0.4397
11331TIP3    H155484   3.961   6.605  14.767 -0.8276 -0.5869 -0.2865
11331TIP3    H255485   3.892   6.737  14.795  0.8061  0.2510 -0.1114
11332TIP3   OH255486   6.658   6.687  15.474 -0.0201 -0.1135 -0.2840
11332TIP3    H155487   6.586   6.637  15.512  0.8028 -0.2551  1.1583
11332TIP3    H255488   6.638   6.690  15.380 -2.7702  1.2734  0.2356
11333TIP3   OH255489   4.255   2.822  15.762 -0.0772 -0.3983 -0.2881
11333TIP3    H155490   4.187   2.757  15.774  1.8611 -2.3282  0.9176
11333TIP3    H255491   4.284   2.844  15.850 -0.7820  2.3108 -0.6403
11334TIP3   OH255492   2.471   3.326  14.938  0.3216  0.2847 -0.1819
11334TIP3    H155493   2.467   3.313  15.033  1.2298  1.5822  0.0625
11334TIP3    H255494   2.419   3.405  14.922 -1.2417 -0.8519 -1.0177
11335TIP3   OH255495   0.349   4.479   4.282 -0.2262  0.3884 -0.4265
11335TIP3    H155496   0.307   4.549   4.231 -1.2445 -0.7576 -1.2000
11335TIP3    H255497   0.322   4.496   4.372 -1.0077  0.6057 -0.6962
11336TIP3   OH255498   2.986   0.477   5.844  0.4767 -0.0934  0.0163
11336TIP3    H155499   2.929   0.522   5.781  0.2382 -1.0456 -0.4630
11336TIP3    H255500   3.057   0.539   5.860 -0.6502  1.1165  0.5978
11337TIP3   OH255501   3.613   2.266   1.839 -0.1714 -0.2698  0.8430
11337TIP3    H155502   3.698   2.273   1.794  0.1374 -1.0705  1.2703
11337TIP3    H255503   3.553   2.233   1.772  0.1456 -0.8654  0.8411
11338TIP3   OH255504   0.157   4.787  15.709  0.3499 -0.4615 -1.1411
11338TIP3    H155505   0.098   4.716  15.682 -0.2891 -0.1031 -0.7022
11338TIP3    H255506   0.178   4.832  15.627  0.7655 -1.1619 -1.4230
11339TIP3   OH255507   4.626   2.187   3.758  0.1011  0.1317 -0.2835
11339TIP3    H155508   4.672   2.188   3.842 -1.1380  0.9720  0.4166
11339TIP3    H255509   4.695   2.181   3.693  1.0792 -0.8527  0.7949
11340TIP3   OH255510   2.878   2.549  13.538 -0.1803 -0.1100  0.1185
11340TIP3    H155511   2.817   2.609  13.497  1.6328  1.4076 -0.4696
11340TIP3    H255512   2.949   2.604  13.570  0.9709 -1.8132  0.6508
11341TIP3   OH255513   1.708   3.581  12.762  0.4409  0.2623 -0.0630
11341TIP3    H155514   1.634   3.624  12.805  1.9844  2.5061  0.6051
11341TIP3    H255515   1.698   3.602  12.669  1.5370  2.9620  0.3157
11342TIP3   OH255516   5.125   2.501  16.845 -0.0375  0.1935  0.3031
11342TIP3    H155517   5.120   2.487  16.939  1.6568  0.5600  0.4687
11342TIP3    H255518   5.139   2.595  16.835 -1.3400  0.3398 -0.3862
11343TIP3   OH255519   5.203   0.966   1.462 -0.1635  0.5146 -0.0932
11343TIP3    H155520   5.197   0.968   1.367 -1.0564 -0.8499 -0.0897
11343TIP3    H255521   5.163   0.883   1.488  0.0085  0.8739  1.4819
11344TIP3   OH255522   3.883   6.780  10.450 -0.4335 -0.6232  0.1639
11344TIP3    H155523   3.895   6.819  10.364 -1.1748 -0.8718 -0.0549
11344TIP3    H255524   3.862   6.854  10.507 -0.1292 -0.4837  0.0982
11345TIP3   OH255525   0.453   1.107   5.033  0.3627 -0.2382  0.4466
11345TIP3    H155526   0.498   1.064   5.106 -1.8288 -0.4368  1.7772
11345TIP3    H255527   0.401   1.176   5.073 -1.9862 -1.2227 -0.6743
11346TIP3   OH255528   3.156   3.506   0.590 -0.1968  0.6478  0.0517
11346TIP3    H155529   3.092   3.518   0.520  0.1875  0.0154 -0.4294
11346TIP3    H255530   3.212   3.434   0.559  0.6865  1.1246  0.4918
11347TIP3   OH255531   2.341   4.486   0.222 -0.3303  0.4917 -0.2507
11347TIP3    H155532   2.250   4.471   0.197 -0.6636 -0.4313  1.3338
11347TIP3    H255533   2.335   4.543   0.299  0.3936 -0.0642  0.2229
11348TIP3   OH255534   1.382   6.833   0.007  0.0856 -0.3146  0.6875
11348TIP3    H155535   1.355   6.807   0.095 -0.0097 -2.2826  0.1113
11348TIP3    H255536   1.428   6.757  -0.028  0.0203  0.3874 -1.0212
11349TIP3   OH255537   4.592   6.267   3.934  0.8055 -0.0178 -0.0451
11349TIP3    H155538   4.507   6.253   3.976  0.9962 -0.3351  0.2404
11349TIP3    H255539   4.656   6.231   3.996  1.1484  0.1988 -0.2650
11350TIP3   OH255540   3.634   2.791   5.205 -0.0909 -0.3002  0.2677
11350TIP3    H155541   3.702   2.814   5.143 -0.1675 -0.9066 -0.0449
11350TIP3    H255542   3.625   2.869   5.261  0.2902  0.0764 -0.1901
11351TIP3   OH255543   4.041   6.521  13.764 -0.1024  0.3048  0.3782
11351TIP3    H155544   4.006   6.547  13.850 -0.2117 -0.1944  0.4881
11351TIP3    H255545   4.009   6.431  13.752  0.7396  0.0135  0.2608
11352TIP3   OH255546   1.259   0.295  16.015  0.2748 -0.2283  0.3673
11352TIP3    H155547   1.175   0.326  16.051  0.3654  0.4328  0.0371
11352TIP3    H255548   1.259   0.201  16.031  0.3956  0.0516  2.2701
11353TIP3   OH255549   2.275   2.688  12.673 -0.0619 -0.2514 -0.3768
11353TIP3    H155550   2.266   2.694  12.768  0.7730  1.9133 -0.3845
11353TIP3    H255551   2.272   2.594  12.655 -1.2272 -0.6759  1.6664
11354TIP3   OH255552   6.656   3.223  11.464 -0.3557 -0.1350 -0.6082
11354TIP3    H155553   6.621   3.240  11.376  0.6701 -0.2416 -1.0446
11354TIP3    H255554   6.735   3.277  11.470  0.1792 -0.9505 -0.1527
11355TIP3   OH255555   2.880   6.357  15.296  0.4989  0.2321  0.3740
11355TIP3    H155556   2.951   6.306  15.258  0.5002 -1.1261  2.0606
11355TIP3    H255557   2.905   6.448  15.280  2.7063 -0.1894  1.0044
11356TIP3   OH255558   0.738   4.624   2.837  0.0721 -0.1664 -0.0553
11356TIP3    H155559   0.755   4.532   2.816 -1.5164 -0.5192  0.1287
11356TIP3    H255560   0.824   4.665   2.830  0.6336 -1.4441 -1.2064
11357TIP3   OH255561   5.812   4.060   3.581  0.3683  0.3098  1.0304
11357TIP3    H155562   5.871   4.132   3.559  0.2317 -0.1411 -1.0126
11357TIP3    H255563   5.725   4.091   3.557  0.3269 -0.5649 -0.0574
11358TIP3   OH255564   3.343   4.965  10.550  0.1476 -0.0174 -0.3744
11358TIP3    H155565   3.316   4.899  10.486  0.4176  0.0364 -0.5444
11358TIP3    H255566   3.299   4.938  10.631  1.7426 -1.5330  0.0668
11359TIP3   OH255567   2.306   5.962  12.783  0.5568 -0.2348 -0.0904
11359TIP3    H155568   2.232   6.023  12.786  0.9435  0.2867 -0.7866
11359TIP3    H255569   2.361   5.989  12.857 -0.3554 -1.1954  0.9835
11360TIP3   OH255570   4.463   3.307  16.441 -0.1580 -0.3033 -0.0163
11360TIP3    H155571   4.496   3.218  16.449 -0.0920 -0.4684 -1.7400
11360TIP3    H255572   4.384   3.298  16.387 -0.3227  0.6438  0.0549
11361TIP3   OH255573   3.014   0.611  12.580 -0.0025 -0.2798  0.3362
11361TIP3    H155574   3.004   0.637  12.489  0.6821  0.2058  0.3904
11361TIP3    H255575   3.022   0.516  12.578  0.1109 -0.2611 -0.1240
11362TIP3   OH255576   6.497   5.938  14.399 -0.0398  0.4427  0.2721
11362TIP3    H155577   6.493   5.954  14.493  2.4477 -1.0202  0.7260
11362TIP3    H255578   6.482   5.844  14.390 -0.4375  0.5969 -0.8403
11363TIP3   OH255579   1.835   2.007  13.722  0.0877  0.1192  0.1377
11363TIP3    H155580   1.838   2.002  13.627  0.7671  0.5701  0.1271
11363TIP3    H255581   1.800   1.923  13.750  0.1424 -0.1183 -0.4983
11364TIP3   OH255582   5.166   4.678   1.329  0.3087 -0.2927  0.7799
11364TIP3    H155583   5.137   4.592   1.361 -0.8482 -0.2396 -0.0381
11364TIP3    H255584   5.202   4.721   1.405  0.4633 -1.3274  1.3148
11365TIP3   OH255585   5.287   6.204  12.149 -0.4559  0.1189 -0.3407
11365TIP3    H155586   5.373   6.234  12.122  1.2005 -1.6624  2.4804
11365TIP3    H255587   5.250   6.278  12.198 -0.9211  1.1277 -2.1036
11366TIP3   OH255588   1.868   0.643   0.228 -0.2502  0.1583 -0.1883
11366TIP3    H155589   1.958   0.670   0.251  0.6620 -1.4477 -1.6501
11366TIP3    H255590   1.813   0.691   0.290  1.7682 -0.8910  2.6571
11367TIP3   OH255591   3.156   5.295  12.961 -0.1999  0.4044  0.0488
11367TIP3    H155592   3.120   5.258  12.880  1.3480 -1.8504  0.2790
11367TIP3    H255593   3.188   5.381  12.936  1.5976 -0.7767 -2.2140
11368TIP3   OH255594   3.821   1.662   5.077 -0.0055  0.0097  0.1122
11368TIP3    H155595   3.772   1.731   5.032 -1.0532 -0.5079  0.4320
11368TIP3    H255596   3.912   1.677   5.052 -0.5982 -0.7019 -2.7985
11369TIP3   OH255597   2.220   6.053  15.075 -0.5618  0.6702 -0.7488
11369TIP3    H155598   2.216   6.134  15.126 -0.6824  1.8686 -2.5887
11369TIP3    H255599   2.279   5.996  15.125 -0.6135  1.8066  0.6707
11370TIP3   OH255600   6.842   2.124   5.127 -0.2574 -0.2132  0.1116
11370TIP3    H155601   6.799   2.144   5.210  1.5108 -0.3435  1.1157
11370TIP3    H255602   6.887   2.205   5.103  0.1664 -0.5133 -0.1141
11371TIP3   OH255603   4.532   5.318  16.659 -0.0806  0.2966  0.1067
11371TIP3    H155604   4.598   5.360  16.715  0.9384 -3.3263  1.9202
11371TIP3    H255605   4.454   5.311  16.715 -0.1133 -0.5287 -0.0398
11372TIP3   OH255606   5.605   5.340   1.521  0.0215 -0.1864  0.2505
11372TIP3    H155607   5.512   5.356   1.505  0.0974 -0.7561 -0.8893
11372TIP3    H255608   5.621   5.252   1.487  1.5169  0.8732 -2.0387
11373TIP3   OH255609   3.203   6.803  11.562 -0.0652  0.5566  0.0940
11373TIP3    H155610   3.151   6.724  11.574  0.4903  0.0009 -0.9785
11373TIP3    H255611   3.169   6.842  11.481  0.2873  0.9179  0.1157
11374TIP3   OH255612   4.996   5.549   5.506  0.1636  0.0628  0.3618
11374TIP3    H155613   4.958   5.545   5.418  0.0884 -1.0874  0.4321
11374TIP3    H255614   5.091   5.553   5.490  0.2371 -1.6805  0.2270
11375TIP3   OH255615   1.751   6.105  14.252 -0.3105 -0.4230 -0.4449
11375TIP3    H155616   1.773   6.035  14.191  0.3613 -0.7976  0.2071
11375TIP3    H255617   1.835   6.136  14.285 -0.5559  1.0620 -1.0999
11376TIP3   OH255618   5.472   2.902  14.907  0.5369  0.6293  0.0790
11376TIP3    H155619   5.475   2.852  14.989  0.7013  0.1781 -0.1982
11376TIP3    H255620   5.524   2.980  14.925  2.9899 -0.7609 -0.4337
11377TIP3   OH255621   1.501   5.883  12.802  0.1369  0.0364 -0.1618
11377TIP3    H155622   1.529   5.899  12.712 -0.2397 -0.8555 -0.4457
11377TIP3    H255623   1.582   5.888  12.854  0.2099  1.6942 -0.3611
11378TIP3   OH255624   0.503   3.819   0.552 -0.0608  0.1367 -0.1249
11378TIP3    H155625   0.460   3.904   0.537 -0.0450  0.0944 -0.4216
11378TIP3    H255626   0.465   3.787   0.633  1.3417  1.3292  1.0631
11379TIP3   OH255627   3.485   1.303  13.284 -0.3247  0.2373 -0.1207
11379TIP3    H155628   3.452   1.234  13.226  0.6904 -1.1185  0.8392
11379TIP3    H255629   3.571   1.325  13.249 -0.3476  0.5045 -0.0109
11380TIP3   OH255630   2.183   0.901  15.208 -0.3539 -0.2067 -0.7595
11380TIP3    H155631   2.234   0.820  15.203 -1.1092 -0.7112 -0.3949
11380TIP3    H255632   2.230   0.962  15.150  0.8680 -0.5380 -0.1579
11381TIP3   OH255633   1.892   4.261   0.528  0.3007 -0.4999  0.4045
11381TIP3    H155634   1.974   4.227   0.492  0.4129  0.0329  0.1616
11381TIP3    H255635   1.888   4.352   0.499  0.2022 -0.1725  1.4034
11382TIP3   OH255636   4.761   4.616   9.996  0.2076  0.0052  0.2279
11382TIP3    H155637   4.836   4.668   9.969  0.2725  0.5607  1.3821
11382TIP3    H255638   4.685   4.669   9.972  0.1792 -0.4800 -0.7860
11383TIP3   OH255639   1.847   4.618  16.319 -0.1173  0.2608 -0.6067
11383TIP3    H155640   1.805   4.621  16.233 -1.9094 -1.9423  0.0789
11383TIP3    H255641   1.775   4.600  16.380  1.3872 -0.2960  1.0948
11384TIP3   OH255642   4.479   5.241   1.026 -0.5154 -0.3838 -0.6265
11384TIP3    H155643   4.499   5.325   0.985 -0.8183  0.1079  0.2046
11384TIP3    H255644   4.561   5.191   1.020  0.1469  0.5507  0.2251
11385TIP3   OH255645   2.033   5.968  14.071 -0.3579  0.4882 -0.0826
11385TIP3    H155646   2.045   6.063  14.074  2.0995  0.2186  0.4981
11385TIP3    H255647   2.063   5.937  14.157 -1.2908 -0.8193 -0.1970
11386TIP3   OH255648   0.308   5.036   5.250 -0.0874 -0.3769  0.2582
11386TIP3    H155649   0.320   5.131   5.258  1.5319 -0.5691  0.4937
11386TIP3    H255650   0.380   5.008   5.194 -1.1317 -1.3521 -0.6161
11387TIP3   OH255651   1.261   3.615   4.740  0.4735  0.0743 -0.1926
11387TIP3    H155652   1.188   3.666   4.705  1.8920  2.8844  0.6429
11387TIP3    H255653   1.241   3.607   4.834  1.6177  1.6198  0.2007
11388TIP3   OH255654   2.316   6.551   4.270  0.0463  0.1637  0.2746
11388TIP3    H155655   2.275   6.570   4.355 -0.4015  2.1587 -0.3391
11388TIP3    H255656   2.243   6.530   4.212  0.2499 -0.1001  0.1118
11389TIP3   OH255657   2.693   2.766  16.150 -0.0469  0.0735  0.0032
11389TIP3    H155658   2.653   2.812  16.076 -1.4091  1.7246  1.6692
11389TIP3    H255659   2.720   2.682  16.114 -2.4388  0.0124 -1.9367
11390TIP3   OH255660   6.591   2.960   4.307 -0.1865 -0.3702  0.4758
11390TIP3    H155661   6.607   2.934   4.398  3.1800  0.6762  0.3453
11390TIP3    H255662   6.603   2.879   4.257  1.1461 -0.3897  0.7806
11391TIP3   OH255663   0.261   6.226   3.719  0.4876 -0.6038  0.1078
11391TIP3    H155664   0.210   6.304   3.743  0.7518 -0.7723  1.2627
11391TIP3    H255665   0.239   6.211   3.627 -0.9776 -0.2403  0.3713
11392TIP3   OH255666   2.121   0.729   5.616 -0.4652  0.1172  0.2667
11392TIP3    H155667   2.174   0.761   5.688  0.3008 -0.2199 -0.1389
11392TIP3    H255668   2.085   0.646   5.647  1.1873 -0.8505 -0.3179
11393TIP3   OH255669   1.650   6.022  11.146  0.1474  0.1024 -0.2029
11393TIP3    H155670   1.694   5.987  11.068 -0.0296 -0.0036 -0.2566
11393TIP3    H255671   1.583   5.957  11.166  0.4646 -0.0800  0.2866
11394TIP3   OH255672   1.691   5.907   0.096 -0.4300 -0.0699  0.0265
11394TIP3    H155673   1.693   6.003   0.088 -2.3065  0.0319  0.3527
11394TIP3    H255674   1.599   5.884   0.081 -0.5618 -1.5644  2.6252
11395TIP3   OH255675   2.897   2.207  16.506  0.0351  0.1320 -0.1204
11395TIP3    H155676   2.906   2.296  16.538  4.7858  0.3702 -1.3751
11395TIP3    H255677   2.854   2.216  16.421 -1.5420  0.8527  0.7020
11396TIP3   OH255678   5.331   1.380   4.840 -0.2536  0.0321 -0.7592
11396TIP3    H155679   5.281   1.422   4.911 -0.5129  0.3375 -1.1162
11396TIP3    H255680   5.377   1.308   4.883  0.9455  1.2370  0.0515
11397TIP3   OH255681   1.212   4.026   2.996 -0.5703 -0.3012 -0.0957
11397TIP3    H155682   1.196   3.993   3.085  1.4602  0.5193  0.6432
11397TIP3    H255683   1.247   3.950   2.949  2.7932  0.2720  1.2130
11398TIP3   OH255684   6.512   0.251   0.502 -0.4542 -0.0723  0.2025
11398TIP3    H155685   6.433   0.199   0.516  0.8063 -1.9459  0.8587
11398TIP3    H255686   6.533   0.237   0.409 -1.0211  0.6283 -0.0330
11399TIP3   OH255687   3.593   2.945  16.094  0.2269  0.0111 -0.0955
11399TIP3    H155688   3.505   2.980  16.084  0.5058  1.1613  1.2052
11399TIP3    H255689   3.644   2.988  16.025  0.0451  0.3437 -0.0231
11400TIP3   OH255690   1.645   2.883   4.221 -0.6526  0.5444  0.2487
11400TIP3    H155691   1.686   2.798   4.237 -0.6219  0.2197 -1.3830
11400TIP3    H255692   1.553   2.864   4.206 -0.4371  0.6110 -1.3535
11401TIP3   OH255693   4.459   0.670  13.580  0.2213  0.1543  0.0853
11401TIP3    H155694   4.456   0.632  13.668  1.0827  0.5158  0.2820
11401TIP3    H255695   4.454   0.765  13.595 -0.7177  0.1854 -0.3318
11402TIP3   OH255696   0.268   5.860   3.693  0.3918  0.1116 -0.1192
11402TIP3    H155697   0.259   5.950   3.662  1.3330  0.0886 -0.5093
11402TIP3    H255698   0.278   5.808   3.613 -3.1617 -0.8000 -0.1432
11403TIP3   OH255699   0.789   6.509   4.336  0.2201  0.3945 -0.4102
11403TIP3    H155700   0.798   6.556   4.253  0.1771  0.1907 -0.5331
11403TIP3    H255701   0.812   6.418   4.314  0.5083  0.3965 -0.1317
11404TIP3   OH255702   2.363   0.610   5.809  0.1713 -0.0867  0.0206
11404TIP3    H155703   2.394   0.625   5.898 -0.8487  0.3192  0.3187
11404TIP3    H255704   2.439   0.573   5.763  1.2469  1.3493  0.5732
11405TIP3   OH255705   2.782   2.976  12.127  0.2635  0.3810  0.2880
11405TIP3    H155706   2.708   3.008  12.179  0.0596  1.8379 -0.8405
11405TIP3    H255707   2.808   3.050  12.073 -0.4897 -1.4103 -2.8148
11406TIP3   OH255708   6.010   1.941   3.945  0.3808 -0.2650  0.1535
11406TIP3    H155709   5.940   1.955   4.009  0.8790 -1.5221  0.9925
11406TIP3    H255710   6.043   1.854   3.964  0.3646 -0.7911 -2.0185
11407TIP3   OH255711   5.780   1.076  15.830 -0.0347  0.2577  0.5400
11407TIP3    H155712   5.866   1.067  15.872 -1.0724 -1.8161  2.4383
11407TIP3    H255713   5.748   0.986  15.822 -1.9066  0.9584 -0.3935
11408TIP3   OH255714   6.243   5.142  10.708  0.0337  0.3087  0.3567
11408TIP3    H155715   6.322   5.088  10.700 -0.0074 -0.0190  1.7926
11408TIP3    H255716   6.190   5.118  10.632  1.1198  0.2028 -0.3842
11409TIP3   OH255717   1.659   1.392  11.567  0.1490  0.5733  0.0099
11409TIP3    H155718   1.668   1.395  11.662  1.7294 -2.2040  0.0631
11409TIP3    H255719   1.586   1.333  11.551  1.0604 -0.4744 -0.4442
11410TIP3   OH255720   0.903   1.327   1.425  0.1804  0.1577 -0.1500
11410TIP3    H155721   0.810   1.348   1.420  0.1273  0.1581  0.6909
11410TIP3    H255722   0.932   1.324   1.334 -0.5688  0.4802 -0.4061
11411TIP3   OH255723   3.099   4.053  12.900  0.5866  0.3966 -0.4472
11411TIP3    H155724   3.157   4.087  12.832  0.6521  0.5577 -0.3108
11411TIP3    H255725   3.012   4.055  12.860  0.4332  1.6916 -0.0917
11412TIP3   OH255726   6.308   3.179  11.081 -0.1025 -0.4389  0.3642
11412TIP3    H155727   6.243   3.109  11.090  1.0020 -1.3558  1.6421
11412TIP3    H255728   6.389   3.133  11.059  0.4380  0.5403  0.2774
11413TIP3   OH255729   0.087   3.566   2.506  0.0845  0.1308 -0.4464
11413TIP3    H155730   0.002   3.526   2.526  0.2094  0.0759 -0.0207
11413TIP3    H255731   0.069   3.660   2.502 -0.0648  0.0916 -0.7113
11414TIP3   OH255732   5.876   6.060  13.170 -0.3049 -0.1681  0.0311
11414TIP3    H155733   5.792   6.043  13.211 -0.0334  0.5047  0.8913
11414TIP3    H255734   5.923   5.977  13.175 -0.4331 -0.2024  0.7082
11415TIP3   OH255735   4.871   1.063  16.802  0.3605 -0.0752 -0.8517
11415TIP3    H155736   4.900   1.056  16.893 -0.1725 -0.3903 -0.7022
11415TIP3    H255737   4.927   1.131  16.764 -0.0057  0.7025 -0.0454
11416TIP3   OH255738   3.607   4.270  16.329 -0.0134  0.6609 -0.3522
11416TIP3    H155739   3.573   4.359  16.342 -1.4409  0.1044 -0.0836
11416TIP3    H255740   3.529   4.214  16.331  0.9764 -0.7600  0.8556
11417TIP3   OH255741   1.229   2.021   1.342  0.1169 -0.3344  0.5160
11417TIP3    H155742   1.261   2.019   1.433 -1.5620 -0.1106  1.1424
11417TIP3    H255743   1.291   2.078   1.297  1.7220 -1.4484  1.1942
11418TIP3   OH255744   2.042   5.766  15.599  0.0438 -0.2052  0.6631
11418TIP3    H155745   2.111   5.715  15.641  2.0425  0.8108 -1.2132
11418TIP3    H255746   2.047   5.743  15.507  0.4121  2.5998 -0.1126
11419TIP3   OH255747   5.051   4.262   6.252  0.0505 -0.2417  0.2254
11419TIP3    H155748   5.057   4.201   6.178 -0.9332  0.1341 -0.1831
11419TIP3    H255749   5.080   4.211   6.328 -1.6961 -1.5551  0.0590
11420TIP3   OH255750   6.557   5.587   1.374  0.5437  0.4598  0.4413
11420TIP3    H155751   6.495   5.618   1.308  1.1347 -0.3639 -0.5341
11420TIP3    H255752   6.553   5.653   1.443 -1.6037  0.3024  0.5487
11421TIP3   OH255753   4.813   0.837  13.449 -0.4161 -0.1207 -0.1101
11421TIP3    H155754   4.887   0.893  13.472  0.1060 -1.7030  2.5299
11421TIP3    H255755   4.793   0.789  13.529 -0.5317 -4.0214 -2.2035
11422TIP3   OH255756   3.943   5.884  12.552  0.1860  0.0314  0.0114
11422TIP3    H155757   3.966   5.834  12.473 -1.1903  0.2858 -0.5888
11422TIP3    H255758   3.999   5.848  12.620  1.0865 -0.5137 -0.9873
11423TIP3   OH255759   3.641   5.488   0.168  0.1672  0.7379 -0.2654
11423TIP3    H155760   3.578   5.486   0.097  1.7841 -0.1592 -1.7645
11423TIP3    H255761   3.643   5.579   0.197 -0.7963  1.0377 -1.1201
11424TIP3   OH255762   6.622   1.984   4.963 -0.5286 -0.0964  0.0923
11424TIP3    H155763   6.716   1.995   4.982 -0.3692 -3.0577  1.4333
11424TIP3    H255764   6.594   2.072   4.937  2.7905  0.7445 -1.2851
11425TIP3   OH255765   6.491   5.220  12.720 -0.1769  0.1680  0.1578
11425TIP3    H155766   6.573   5.172  12.707  0.0490  1.1013 -2.2460
11425TIP3    H255767   6.497   5.295  12.662 -2.8552  0.1512 -0.2734
11426TIP3   OH255768   2.264   1.085  10.442 -0.6858  0.3838 -0.1773
11426TIP3    H155769   2.222   1.030  10.376  1.2293  0.2852 -1.3893
11426TIP3    H255770   2.347   1.041  10.461  0.8028  2.6385 -1.0009
11427TIP3   OH255771   3.581   4.215   4.482 -0.1046  0.3195 -0.0532
11427TIP3    H155772   3.656   4.268   4.508 -0.3953  0.5968  0.2189
11427TIP3    H255773   3.532   4.270   4.421 -0.4333  0.3867  0.2682
11428TIP3   OH255774   3.989   3.836   5.345 -0.8500  0.2225  0.0106
11428TIP3    H155775   4.013   3.892   5.271 -1.3998 -0.7822 -0.9508
11428TIP3    H255776   3.907   3.873   5.378  0.1137  1.5400  1.0773
11429TIP3   OH255777   1.311   4.382   0.428  0.0428  0.0267 -0.0048
11429TIP3    H155778   1.251   4.312   0.453  0.2146  0.0429  0.4611
11429TIP3    H255779   1.260   4.463   0.438  0.6482  0.2038  2.1332
11430TIP3   OH255780   1.472   2.861   3.057  0.1347 -0.9180  0.1728
11430TIP3    H155781   1.391   2.891   3.097  1.0807 -2.1984  3.4338
11430TIP3    H255782   1.445   2.804   2.985 -1.6874  2.3869 -1.9717
11431TIP3   OH255783   4.565   5.938   5.544  0.4618  0.3752 -0.6388
11431TIP3    H155784   4.541   5.859   5.497 -1.8410  1.1623 -0.9532
11431TIP3    H255785   4.581   5.909   5.634 -3.2196 -0.2294 -0.0040
11432TIP3   OH255786   1.205   2.889   0.518 -0.5643 -0.0060  0.0626
11432TIP3    H155787   1.166   2.910   0.603 -0.4046 -1.6298  0.5849
11432TIP3    H255788   1.282   2.945   0.513 -0.5898  0.1317  1.0008
11433TIP3   OH255789   3.775   1.528  14.712 -0.2052 -0.0301  0.3365
11433TIP3    H155790   3.834   1.603  14.711  0.3237 -0.4324  0.4104
11433TIP3    H255791   3.731   1.531  14.627  0.3310 -0.0319  0.0542
11434TIP3   OH255792   1.288   6.883  10.868  0.6671 -0.4965  0.1732
11434TIP3    H155793   1.372   6.838  10.883 -0.1264 -1.8810  0.6924
11434TIP3    H255794   1.268   6.924  10.952  2.1007  2.2235 -0.6881
11435TIP3   OH255795   3.331   1.874   5.304 -0.4717 -0.4649 -0.3335
11435TIP3    H155796   3.401   1.928   5.268 -1.7849 -0.1790 -2.6398
11435TIP3    H255797   3.375   1.795   5.335  1.0881  0.5522  0.1451
11436TIP3   OH255798   3.341   4.667  16.842 -0.5642  0.0925  0.3660
11436TIP3    H155799   3.326   4.752  16.883  0.8996  0.5282  0.0461
11436TIP3    H255800   3.392   4.618  16.906 -1.1793 -0.4637  0.4393
11437TIP3   OH255801   0.604   1.188   2.186 -0.5241  0.3334  0.1761
11437TIP3    H155802   0.638   1.255   2.127 -3.2412 -0.5944 -2.7197
11437TIP3    H255803   0.679   1.131   2.204  0.8811  1.8721 -0.5882
11438TIP3   OH255804   0.042   1.937   3.872 -0.4549  0.3409 -0.2100
11438TIP3    H155805  -0.017   1.862   3.862 -2.1819  1.6076  0.0296
11438TIP3    H255806  -0.005   1.996   3.931  0.6805  1.7810 -0.6943
11439TIP3   OH255807   2.283   0.651   4.278  0.4561 -0.0224 -0.3742
11439TIP3    H155808   2.276   0.747   4.277 -0.0029 -0.0567 -0.5483
11439TIP3    H255809   2.269   0.628   4.370 -1.5435 -0.0636 -0.6434
11440TIP3   OH255810   3.647   5.807  13.547 -0.0369 -0.0539 -0.5503
11440TIP3    H155811   3.564   5.781  13.586 -0.0797  0.7523 -0.0883
11440TIP3    H255812   3.713   5.762  13.599 -0.0710  1.3504  0.7816
11441TIP3   OH255813   4.148   0.164  11.268  0.2262  0.2845  0.0413
11441TIP3    H155814   4.075   0.131  11.216 -0.2755  3.0223 -1.1635
11441TIP3    H255815   4.226   0.132  11.223 -0.2068 -0.9841  0.1620
11442TIP3   OH255816   1.222   4.844   4.041  0.1059  0.0531  0.6812
11442TIP3    H155817   1.297   4.899   4.021 -0.0994 -0.2600 -1.0587
11442TIP3    H255818   1.259   4.762   4.075  0.4886  0.3473  0.9774
11443TIP3   OH255819   5.036   5.856   2.712  0.7574 -0.6995 -0.3180
11443TIP3    H155820   5.007   5.781   2.763 -0.5236  0.7457  1.2232
11443TIP3    H255821   5.013   5.932   2.767  0.6912  0.8802 -2.4205
11444TIP3   OH255822   3.888   0.852  16.744  0.0875  0.0728  0.2990
11444TIP3    H155823   3.912   0.917  16.810 -1.3939  1.7158 -0.7045
11444TIP3    H255824   3.806   0.884  16.707  0.2764 -1.3911 -1.5489
11445TIP3   OH255825   4.735   1.922  14.752  0.0934 -0.1535 -0.3462
11445TIP3    H155826   4.773   1.850  14.701  1.1867 -0.1660  0.4431
11445TIP3    H255827   4.802   1.942  14.818 -0.9395  0.4097  0.5561
11446TIP3   OH255828   0.677   4.409  16.776  0.4253  0.1641  0.4941
11446TIP3    H155829   0.584   4.432  16.780  0.4037 -0.1083  2.0413
11446TIP3    H255830   0.685   4.357  16.695 -0.4899  1.2814 -0.3403
11447TIP3   OH255831   2.998   2.699  11.841 -0.2745 -0.0390  0.1040
11447TIP3    H155832   2.973   2.659  11.925  0.1005 -1.1253 -0.2872
11447TIP3    H255833   3.037   2.783  11.865  2.3071 -1.4642  1.2621
11448TIP3   OH255834   3.735   0.135   0.379  0.0497  0.1882 -0.3731
11448TIP3    H155835   3.674   0.061   0.379 -0.7923  0.8220  1.4128
11448TIP3    H255836   3.814   0.100   0.421 -0.5154  0.3853  0.9062
11449TIP3   OH255837   4.545   1.458  13.310 -0.2158  0.3686  0.3875
11449TIP3    H155838   4.597   1.530  13.346  1.0018  0.2643 -1.0517
11449TIP3    H255839   4.610   1.393  13.282 -1.2458 -0.9460  0.8872
11450TIP3   OH255840   5.218   4.418   0.380 -0.1020 -0.1082 -0.2606
11450TIP3    H155841   5.155   4.489   0.384  0.8451  0.8119 -1.2243
11450TIP3    H255842   5.202   4.367   0.460 -0.4235  1.4833  0.7251
11451TIP3   OH255843   6.681   3.317   0.719  0.0434 -0.8913 -0.4838
11451TIP3    H155844   6.765   3.344   0.758 -0.5496 -0.6859  0.6886
11451TIP3    H255845   6.688   3.222   0.712  0.6287 -0.8192 -1.0183
11452TIP3   OH255846   5.538   0.778   4.731  0.1076  0.5110 -0.7951
11452TIP3    H155847   5.488   0.804   4.808 -0.9779  0.4331 -1.4564
11452TIP3    H255848   5.593   0.705   4.762  0.9865  1.6049  0.3192
11453TIP3   OH255849   5.905   0.932   4.181 -0.4098  0.0420  0.1206
11453TIP3    H155850   5.939   0.947   4.270 -0.5996 -0.9698  0.3690
11453TIP3    H255851   5.931   0.843   4.160  0.2274  0.5076 -1.1219
11454TIP3   OH255852   1.670   1.915   3.727 -0.1741  0.0647 -0.3163
11454TIP3    H155853   1.695   1.966   3.649  1.1682 -1.1252 -0.6993
11454TIP3    H255854   1.601   1.857   3.696 -1.6180  1.4843  0.0897
11455TIP3   OH255855   4.474   0.779  14.206 -0.1831  0.3435  0.2064
11455TIP3    H155856   4.503   0.798  14.117 -2.1759  1.4131 -0.2893
11455TIP3    H255857   4.455   0.865  14.244 -0.1083 -0.1473  1.3865
11456TIP3   OH255858   0.150   6.094  15.002 -0.8219 -0.3759  0.4274
11456TIP3    H155859   0.127   6.123  15.090  0.2829  0.1023  0.5797
11456TIP3    H255860   0.240   6.064  15.010 -0.6635 -0.1935 -0.5678
11457TIP3   OH255861   5.890   3.180   4.296  0.5540  0.5654  0.1131
11457TIP3    H155862   5.975   3.157   4.333  0.4060 -0.0662  0.0726
11457TIP3    H255863   5.882   3.275   4.310  1.3084  0.6437  0.0140
11458TIP3   OH255864   1.404   4.997  12.248 -0.1125 -0.2126 -0.3639
11458TIP3    H155865   1.446   4.912  12.236  0.9022 -0.0212  1.5465
11458TIP3    H255866   1.461   5.044  12.307 -1.2177  1.4229 -0.5407
11459TIP3   OH255867   6.365   6.143  14.316 -0.3469  0.4907 -0.1058
11459TIP3    H155868   6.406   6.060  14.341 -1.7682 -0.3399 -0.4264
11459TIP3    H255869   6.373   6.198  14.394 -2.4639 -1.1803  1.4009
11460TIP3   OH255870   1.464   1.286  15.825 -0.4895  0.7116 -0.0624
11460TIP3    H155871   1.391   1.228  15.804 -0.8108  1.1800 -0.2564
11460TIP3    H255872   1.433   1.338  15.899 -0.0569  0.3717  0.3660
11461TIP3   OH255873   5.262   4.032   6.097  0.1700 -0.6703  0.3531
11461TIP3    H155874   5.280   4.121   6.066  0.2491 -0.0006  2.1749
11461TIP3    H255875   5.167   4.022   6.088  0.2701 -0.7768 -0.7289
11462TIP3   OH255876   6.018   3.006   3.750  0.1893 -0.1439 -0.6113
11462TIP3    H155877   5.954   2.952   3.795 -0.7145  1.5363  0.2019
11462TIP3    H255878   5.991   3.005   3.658  0.6187 -1.6200 -0.7416
11463TIP3   OH255879   1.238   5.149   4.805  0.9554  0.2822 -0.1285
11463TIP3    H155880   1.331   5.162   4.822  1.3728 -1.6418 -0.7030
11463TIP3    H255881   1.208   5.090   4.874  0.3516  0.2251 -0.4269
11464TIP3   OH255882   6.322   2.290  13.594 -0.4637  0.2413 -0.1272
11464TIP3    H155883   6.399   2.347  13.598 -0.1884 -0.1877  0.9356
11464TIP3    H255884   6.289   2.288  13.684 -1.0617 -0.4664 -0.3569
11465TIP3   OH255885   2.368   2.103   1.667  0.3956  0.3674  0.3256
11465TIP3    H155886   2.329   2.089   1.581 -1.5298  0.4466  1.1352
11465TIP3    H255887   2.450   2.053   1.665 -0.4939 -1.1158 -0.9245
11466TIP3   OH255888   0.084   4.949  11.263 -0.0792  0.1113  0.0138
11466TIP3    H155889   0.113   5.039  11.255  0.8308 -0.1295  0.4146
11466TIP3    H255890   0.059   4.940  11.356 -1.5343  0.3288 -0.3331
11467TIP3   OH255891   3.034   0.069   2.684 -0.1416 -0.3903 -0.1924
11467TIP3    H155892   3.105   0.092   2.625  0.6901 -3.2081 -0.4686
11467TIP3    H255893   3.076   0.062   2.770 -0.4825 -0.2086 -0.0095
11468TIP3   OH255894   0.987   2.197  10.476  0.7260 -0.6867  0.1241
11468TIP3    H155895   0.948   2.273  10.434  0.1693  0.5306  2.6495
11468TIP3    H255896   0.916   2.133  10.480  0.3655 -0.2727  0.4665
11469TIP3   OH255897   2.231   2.229   0.029 -0.2492  0.1301  0.7890
11469TIP3    H155898   2.249   2.315  -0.009  0.2182  0.3300  1.4430
11469TIP3    H255899   2.156   2.196  -0.020  0.0589  0.5704 -0.0004
11470TIP3   OH255900   5.230   3.403   3.350  1.3357  0.3446 -0.1080
11470TIP3    H155901   5.247   3.404   3.256  1.7261  2.5275 -0.0671
11470TIP3    H255902   5.258   3.490   3.380  0.2191  0.0751  1.8432
11471TIP3   OH255903   6.379   6.310   2.664  0.4732 -0.2756  0.5193
11471TIP3    H155904   6.353   6.259   2.588 -0.8101  1.3689 -0.2185
11471TIP3    H255905   6.440   6.254   2.712  1.1733 -1.4225 -1.6106
11472TIP3   OH255906   2.793   0.168  11.004 -0.7324 -0.4393 -0.4135
11472TIP3    H155907   2.788   0.080  10.967  1.3195 -1.1372  0.8096
11472TIP3    H255908   2.808   0.225  10.929  0.5374 -1.4772 -0.9827
11473TIP3   OH255909   6.244   6.708   3.249  0.9131 -0.1763 -1.0420
11473TIP3    H155910   6.222   6.620   3.280  2.8286 -0.1875  0.5105
11473TIP3    H255911   6.339   6.714   3.261  0.7315  2.4045 -0.2487
11474TIP3   OH255912   6.387   6.451  11.811  0.4905  0.8536 -0.5772
11474TIP3    H155913   6.386   6.537  11.768  1.9225  0.2993 -1.8070
11474TIP3    H255914   6.432   6.467  11.894  3.1605  0.8875 -1.9168
11475TIP3   OH255915   6.316   0.089  13.183  0.0412 -0.2473  0.5115
11475TIP3    H155916   6.243   0.033  13.158 -0.6088  0.4919  0.7411
11475TIP3    H255917   6.336   0.063  13.274 -0.4003  0.0393  0.6925
11476TIP3   OH255918   2.657   1.186   5.618  0.0723 -0.1708  0.2834
11476TIP3    H155919   2.711   1.263   5.601 -0.3224  0.7774  2.8379
11476TIP3    H255920   2.608   1.173   5.537  1.0008  1.5388 -0.6227
11477TIP3   OH255921   2.157   4.071  12.756  0.1734 -0.3641 -0.0233
11477TIP3    H155922   2.082   4.081  12.697 -0.3513  0.5323  0.7699
11477TIP3    H255923   2.218   4.139  12.727 -0.3448  0.4939  0.8158
11478TIP3   OH255924   1.325   3.019  15.989 -0.1296 -0.1776 -0.2336
11478TIP3    H155925   1.373   2.967  16.054 -1.5124 -2.8520 -1.2014
11478TIP3    H255926   1.261   3.068  16.039 -0.8759 -1.8537  0.5139
11479TIP3   OH255927   2.381   5.231   5.169  0.0921 -0.0039 -0.6926
11479TIP3    H155928   2.416   5.182   5.244 -0.8483 -0.8197 -0.7716
11479TIP3    H255929   2.353   5.315   5.207 -2.5746 -1.2759  0.4117
11480TIP3   OH255930   2.902   1.142   2.893  0.7535  0.0470  0.4724
11480TIP3    H155931   2.856   1.066   2.857 -0.1238  1.6567 -2.0724
11480TIP3    H255932   2.987   1.108   2.920  0.0380 -2.0115  0.2896
11481TIP3   OH255933   0.168   0.381   5.676  0.2523 -0.5926  0.4780
11481TIP3    H155934   0.201   0.292   5.682  2.4402  0.1737  1.1298
11481TIP3    H255935   0.235   0.428   5.625 -2.0965  0.1712 -2.1468
11482TIP3   OH255936   3.600   2.398   0.437  0.4355  0.4342  0.1504
11482TIP3    H155937   3.525   2.339   0.432  1.0710 -0.3190 -2.0029
11482TIP3    H255938   3.676   2.340   0.444  0.9863  1.0114 -0.6928
11483TIP3   OH255939   1.178   5.603  10.167 -0.3401  0.1912 -0.2576
11483TIP3    H155940   1.228   5.634  10.091 -1.2107 -1.7597 -1.6938
11483TIP3    H255941   1.087   5.619  10.144 -0.5688  1.0098  1.0992
11484TIP3   OH255942   6.297   3.913  14.603  0.5889  0.7621  0.0991
11484TIP3    H155943   6.352   3.896  14.680  0.9685  0.1200 -0.3085
11484TIP3    H255944   6.208   3.891  14.631  0.7810  0.1393  0.2385
11485TIP3   OH255945   2.095   5.204  11.216  0.1352  0.0520  0.1659
11485TIP3    H155946   2.038   5.255  11.159 -1.0393 -1.7216 -0.3305
11485TIP3    H255947   2.058   5.116  11.214  1.9613 -0.7872  1.1390
11486TIP3   OH255948   5.720   1.433  12.052 -0.0569 -0.4177  0.0645
11486TIP3    H155949   5.657   1.421  11.982 -0.3132 -0.1858  0.2529
11486TIP3    H255950   5.668   1.425  12.133  0.0316  0.4011  0.2145
11487TIP3   OH255951   0.093   6.479  14.182  0.1465 -0.7127  0.4876
11487TIP3    H155952   0.175   6.459  14.227  0.7687 -1.9848 -1.1089
11487TIP3    H255953   0.107   6.565  14.142  1.4079 -1.6296 -1.1895
11488TIP3   OH255954   5.342   6.763   4.741  0.1557  0.3198  0.6674
11488TIP3    H155955   5.257   6.787   4.706  0.1734  0.8971  1.0207
11488TIP3    H255956   5.332   6.671   4.768 -0.0730  0.0965 -0.1499
11489TIP3   OH255957   4.978   3.715   4.440  0.0464 -0.1624  0.5832
11489TIP3    H155958   5.022   3.769   4.506 -1.7998  0.0592  1.7110
11489TIP3    H255959   4.991   3.625   4.470  3.3186 -0.4914 -1.4176
11490TIP3   OH255960   3.503   1.033   5.610  0.1823 -0.4317 -0.0904
11490TIP3    H155961   3.476   1.050   5.700  3.5172  1.3581  0.7445
11490TIP3    H255962   3.474   0.943   5.594 -1.5101 -0.4301  2.3224
11491TIP3   OH255963   3.588   0.829  14.787  0.2877 -0.3670 -0.2292
11491TIP3    H155964   3.646   0.866  14.853  1.8551  0.0800 -1.7907
11491TIP3    H255965   3.646   0.792  14.721 -1.2296 -1.9743 -0.7614
11492TIP3   OH255966   3.140   4.751  15.048  0.1225 -0.1823 -0.1006
11492TIP3    H155967   3.235   4.756  15.056  0.0506  0.1661  0.5779
11492TIP3    H255968   3.125   4.677  14.990  0.7788 -0.7859  0.4908
11493TIP3   OH255969   5.673   0.974  13.305 -0.2036 -0.1452  0.6112
11493TIP3    H155970   5.648   1.054  13.349 -3.8237 -0.5935 -0.3171
11493TIP3    H255971   5.639   0.904  13.361 -0.6814 -0.8674 -0.5506
11494TIP3   OH255972   3.982   1.355  12.576 -0.4856  0.4839  0.0345
11494TIP3    H155973   3.905   1.390  12.621 -0.3302 -1.1635  1.7207
11494TIP3    H255974   4.013   1.284  12.633  1.0531 -0.2697 -1.6322
11495TIP3   OH255975   2.103   2.823   4.068  0.0081 -0.3276  0.0549
11495TIP3    H155976   2.024   2.798   4.020 -0.8836  1.0023  0.7762
11495TIP3    H255977   2.092   2.784   4.154  0.2646 -0.3615  0.0730
11496TIP3   OH255978   3.815   0.352   4.453 -0.3590  0.0332 -0.1002
11496TIP3    H155979   3.797   0.274   4.399 -3.4660  1.4048 -1.2521
11496TIP3    H255980   3.908   0.345   4.473 -0.7079 -4.7747  1.1707
11497TIP3   OH255981   4.849   6.660  11.603  0.3608 -0.0191  0.0731
11497TIP3    H155982   4.931   6.611  11.612  0.5799  0.5008  1.0855
11497TIP3    H255983   4.873   6.735  11.548  0.6352  0.2710  0.5808
11498TIP3   OH255984   6.564   6.692   1.240  0.1616  0.1582 -0.2462
11498TIP3    H155985   6.480   6.676   1.197  0.0960 -0.9755  0.2630
11498TIP3    H255986   6.545   6.687   1.333  0.7559  0.1037 -0.1206
11499TIP3   OH255987   4.032   5.395   4.022  0.9837  0.3467 -0.1024
11499TIP3    H155988   4.089   5.337   3.971  1.4819  2.1406 -1.6603
11499TIP3    H255989   3.944   5.378   3.988  1.2840  1.3604 -1.4410
11500TIP3   OH255990   6.082   4.639  10.160  0.5201  0.4460  0.7547
11500TIP3    H155991   5.988   4.625  10.154  0.7130 -1.5640  1.5380
11500TIP3    H255992   6.104   4.689  10.082 -0.6636 -2.4721 -1.6466
11501TIP3   OH255993   0.096   6.894  14.408  0.4816  0.1022  0.0844
11501TIP3    H155994   0.111   6.932  14.495 -0.2595 -0.0995  0.3102
11501TIP3    H255995   0.002   6.876  14.406  0.9967 -3.4725  0.7510
11502TIP3   OH255996   0.137   2.762   5.231  0.4938 -0.1011  0.1491
11502TIP3    H155997   0.132   2.710   5.150  0.3979 -1.4444  0.9955
11502TIP3    H255998   0.210   2.724   5.279  0.0621  0.1814  1.0432
11503TIP3   OH255999   4.635   6.258  12.471  0.3924 -0.5522 -0.4280
11503TIP3    H156000   4.662   6.349  12.460  0.3093 -0.1663  1.9717
11503TIP3    H256001   4.699   6.221  12.532 -1.8919 -0.8549  1.9611
11504TIP3   OH256002   4.478   3.010   0.315  0.7419  0.0085  0.0006
11504TIP3    H156003   4.544   2.970   0.259 -0.0017 -1.4662  0.1332
11504TIP3    H256004   4.413   2.941   0.329 -1.2358  1.6297 -0.7495
11505TIP3   OH256005   2.714   0.427   3.786  0.1491 -0.5626 -0.1028
11505TIP3    H156006   2.701   0.346   3.835 -0.4467 -0.5566 -0.2389
11505TIP3    H256007   2.785   0.407   3.725  1.2131 -0.4314  1.0506
11506TIP3   OH256008   4.492   6.594   4.180  0.7179 -0.3841  0.1718
11506TIP3    H156009   4.448   6.603   4.265  4.2497  0.9676  2.0424
11506TIP3    H256010   4.584   6.584   4.201  1.8456  0.4584 -3.5513
11507TIP3   OH256011   4.606   6.688  10.940 -0.3816 -0.2481 -0.3746
11507TIP3    H156012   4.633   6.757  10.879  2.9613 -1.2205 -0.1772
11507TIP3    H256013   4.631   6.606  10.896 -1.8810 -1.2261  0.5036
11508TIP3   OH256014   2.350   1.432   4.623 -0.0189 -0.1957 -0.0238
11508TIP3    H156015   2.390   1.350   4.593  0.1563  0.5180 -1.8317
11508TIP3    H256016   2.423   1.486   4.652  0.2277  0.5041 -1.8398
11509TIP3   OH256017   5.285   4.025  16.152  0.7284 -0.2071 -0.2673
11509TIP3    H156018   5.275   3.993  16.242 -2.0565 -1.8287 -1.0407
11509TIP3    H256019   5.220   4.096  16.145  1.9172  0.8806 -0.6462
11510TIP3   OH256020   2.862   5.107   4.295  0.3491  0.7952 -0.3869
11510TIP3    H156021   2.837   5.021   4.330 -1.5673  0.3314 -2.6613
11510TIP3    H256022   2.810   5.169   4.345 -0.4255  0.3795 -0.6667
11511TIP3   OH256023   5.134   3.160  15.613  0.1122 -0.1344  0.5084
11511TIP3    H156024   5.136   3.218  15.689 -1.4548  0.1074  0.3806
11511TIP3    H256025   5.052   3.180  15.569  1.3602  0.3572 -1.7612
11512TIP3   OH256026   6.414   3.245   2.504 -0.0897  0.2396 -0.0486
11512TIP3    H156027   6.417   3.338   2.530  0.9231 -0.5432  3.0886
11512TIP3    H256028   6.434   3.246   2.411 -1.6288  3.2705 -0.5057
11513TIP3   OH256029   2.686   1.441  16.880  0.2048 -0.0093  0.4303
11513TIP3    H156030   2.648   1.528  16.892  0.2161 -0.0461  0.7229
11513TIP3    H256031   2.681   1.400  16.966  0.1477 -0.3203  0.2793
11514TIP3   OH256032   3.965   4.589  15.832 -0.5170  0.3371 -0.0154
11514TIP3    H156033   4.016   4.653  15.783 -0.9324  0.4306 -0.3298
11514TIP3    H256034   3.919   4.640  15.899 -1.4854  0.4950 -0.7813
11515TIP3   OH256035   5.541   1.736  11.019  0.1395  0.3410  0.3941
11515TIP3    H156036   5.575   1.770  10.936 -2.8541 -0.3132 -1.2595
11515TIP3    H256037   5.610   1.679  11.052  1.5925  0.9273 -1.4496
11516TIP3   OH256038   1.725   6.544  13.006  0.6025 -0.1553 -0.0432
11516TIP3    H156039   1.700   6.572  13.094  1.2108 -2.0688  0.7974
11516TIP3    H256040   1.643   6.524  12.962  0.2723  1.1568 -0.0700
11517TIP3   OH256041   3.715   0.573   1.706 -0.1317  0.5149 -0.5010
11517TIP3    H156042   3.696   0.560   1.613  0.8179  0.1752 -0.6639
11517TIP3    H256043   3.645   0.630   1.737 -1.4519 -0.7809 -1.0110
11518TIP3   OH256044   1.201   6.186  14.717  0.3312 -0.3954 -0.2413
11518TIP3    H156045   1.116   6.212  14.753  0.0741 -0.4265 -0.8177
11518TIP3    H256046   1.257   6.174  14.794  0.8902  3.1629  0.0769
11519TIP3   OH256047   6.341   4.683  12.701  0.0301 -0.0912  0.3959
11519TIP3    H156048   6.376   4.767  12.732  1.5041 -0.4349 -0.2775
11519TIP3    H256049   6.246   4.697  12.697  0.2265  1.4469  0.5715
11520TIP3   OH256050   3.764   5.722   1.779  0.4241 -0.6518 -0.5325
11520TIP3    H156051   3.689   5.707   1.836  0.1960 -0.8333 -0.8803
11520TIP3    H256052   3.814   5.641   1.784  0.9118 -0.3203  0.1610
11521TIP3   OH256053   3.355   1.951   1.513  0.2305  0.1201 -0.2152
11521TIP3    H156054   3.335   1.864   1.478  0.7785  0.6906 -2.0770
11521TIP3    H256055   3.445   1.968   1.483 -0.1375  1.6224 -0.5084
11522TIP3   OH256056   5.506   1.388  14.958 -0.0421 -0.6320 -0.0123
11522TIP3    H156057   5.545   1.318  15.010 -2.3633 -2.2017 -0.2434
11522TIP3    H256058   5.419   1.355  14.936 -0.9602  2.0690 -0.7171
11523TIP3   OH256059   6.708   6.602  14.385 -1.1570  0.4664  0.7295
11523TIP3    H156060   6.704   6.603  14.480 -0.2691  0.7540  0.7787
11523TIP3    H256061   6.737   6.513  14.363 -2.2878  0.0964  0.6633
11524TIP3   OH256062   4.526   5.323   5.040 -0.5399 -0.6700 -0.8323
11524TIP3    H156063   4.440   5.322   5.082  0.3811 -2.2674  1.1816
11524TIP3    H256064   4.514   5.269   4.962 -0.8378 -3.1102  0.7943
11525TIP3   OH256065   3.651   6.064  10.358 -0.2254 -0.6595 -0.3504
11525TIP3    H156066   3.699   6.131  10.406 -2.2288  0.4040  0.2928
11525TIP3    H256067   3.636   6.103  10.271  0.1064 -0.9987 -0.5605
11526TIP3   OH256068   0.309   5.679  12.586  0.6233 -0.2352 -0.2017
11526TIP3    H156069   0.336   5.643  12.670  0.6985 -1.9804 -0.9105
11526TIP3    H256070   0.379   5.739  12.561  0.4942  0.4587  1.0559
11527TIP3   OH256071   2.432   3.755   7.549 -0.0362  0.0984  0.0759
11527TIP3    H156072   2.513   3.739   7.499 -0.1592  0.4429 -0.2357
11527TIP3    H256073   2.404   3.842   7.522  1.0748  1.2598  2.3734
11528TIP3   OH256074   1.432   5.993   0.885 -0.1738 -0.3479  0.2230
11528TIP3    H156075   1.496   6.054   0.919  0.2872 -1.1616  0.8425
11528TIP3    H256076   1.399   6.034   0.805  0.1030  0.7059  0.6431
11529TIP3   OH256077   3.408   2.784  14.384 -0.7013 -0.5126 -0.1858
11529TIP3    H156078   3.366   2.730  14.317  0.2130 -0.7848 -0.5478
11529TIP3    H256079   3.406   2.873  14.348  1.5310 -0.9246 -1.5001
11530TIP3   OH256080   1.844   3.159   3.533 -0.9513 -0.5882  0.2188
11530TIP3    H156081   1.904   3.232   3.543 -0.8358 -0.5895 -0.4357
11530TIP3    H256082   1.842   3.142   3.439 -1.2306 -1.2128  0.3325
11531TIP3   OH256083   3.300   1.672   3.878 -1.0626  0.0485  0.2082
11531TIP3    H156084   3.208   1.646   3.877 -1.1900  0.3371  1.5511
11531TIP3    H256085   3.341   1.608   3.936 -0.7231  0.8070  0.8190
11532TIP3   OH256086   5.266   2.230   2.081 -0.7007 -0.1020 -0.2203
11532TIP3    H156087   5.258   2.229   2.177 -2.7484 -0.0326 -0.3534
11532TIP3    H256088   5.334   2.295   2.063 -0.2448 -0.1590  1.1691
11533TIP3   OH256089   3.329   1.740   4.966  0.6118  0.3340  0.4198
11533TIP3    H156090   3.240   1.710   4.984  0.9900 -2.4382 -1.7562
11533TIP3    H256091   3.383   1.693   5.029  0.6870  1.2771  1.0912
11534TIP3   OH256092   3.194   2.138  14.469  0.5953  0.0204 -0.3332
11534TIP3    H156093   3.122   2.079  14.490 -1.0744  2.7919  2.4723
11534TIP3    H256094   3.153   2.209  14.419  1.8536  0.5461 -0.6519
11535TIP3   OH256095   5.597   4.636   0.520 -0.0141 -0.0488  0.8316
11535TIP3    H156096   5.664   4.704   0.507 -1.2700  1.3566  1.4278
11535TIP3    H256097   5.639   4.573   0.580  1.2311  0.0880  0.1429
11536TIP3   OH256098   4.234   3.367   5.678 -0.2599 -0.4383  0.4659
11536TIP3    H156099   4.236   3.280   5.718 -0.4327  0.1106  1.7318
11536TIP3    H256100   4.149   3.371   5.633 -0.5001 -0.7190  0.8922
11537TIP3   OH256101   1.604   4.618  11.569 -0.4601 -0.1041  0.6434
11537TIP3    H156102   1.678   4.669  11.536  0.5457 -1.9368 -0.0664
11537TIP3    H256103   1.534   4.682  11.579  0.5101  1.2992 -0.9257
11538TIP3   OH256104   2.432   0.786   4.989 -0.4273 -0.1264 -0.0514
11538TIP3    H156105   2.353   0.805   5.040 -0.7674  0.5415 -0.8062
11538TIP3    H256106   2.472   0.711   5.033 -2.3214 -1.5102 -0.5777
11539TIP3   OH256107   4.468   3.499   4.682  0.2873  0.4354 -0.0146
11539TIP3    H156108   4.551   3.453   4.683  0.6008  0.9881  1.1192
11539TIP3    H256109   4.489   3.587   4.713 -0.7312  0.5535  0.3804
11540TIP3   OH256110   3.884   1.273   0.732  0.1490  0.2364  0.5177
11540TIP3    H156111   3.832   1.337   0.780  0.7683  0.5530  0.7698
11540TIP3    H256112   3.819   1.212   0.695 -0.6228  2.0166 -1.2723
11541TIP3   OH256113   4.224   4.300  16.127 -0.0529 -0.9327 -0.2941
11541TIP3    H156114   4.176   4.342  16.198  1.2912  0.9261 -0.4297
11541TIP3    H256115   4.159   4.284  16.059 -0.8461 -0.3071  0.3083
11542TIP3   OH256116   6.376   2.901   3.722 -0.0259 -0.1276  0.4920
11542TIP3    H156117   6.327   2.900   3.804 -1.0604 -0.1903 -0.0969
11542TIP3    H256118   6.338   2.828   3.672  2.6081 -2.0301  1.0829
11543TIP3   OH256119   0.226   5.017   6.012  0.4414  0.1247 -0.0273
11543TIP3    H156120   0.223   5.098   6.061  0.1564 -1.2245  2.3367
11543TIP3    H256121   0.139   4.978   6.023  1.0381 -1.2037  0.1885
11544TIP3   OH256122   4.737   6.271   3.260 -0.0856 -0.5537 -0.0943
11544TIP3    H156123   4.658   6.227   3.290  2.2780 -4.0540  1.7393
11544TIP3    H256124   4.758   6.333   3.330 -1.4376  0.9152 -0.9156
11545TIP3   OH256125   3.907   1.329  15.288  0.5312  0.3050  0.6059
11545TIP3    H156126   3.817   1.362  15.281  0.2728 -0.5958 -0.6975
11545TIP3    H256127   3.900   1.237  15.263  2.0282  0.5712 -0.9351
11546TIP3   OH256128   3.569   6.173   1.567 -0.1880 -0.1874  0.5083
11546TIP3    H156129   3.545   6.265   1.560  0.0507 -0.0592  1.2960
11546TIP3    H256130   3.487   6.125   1.552 -0.6110  0.2010  1.4763
11547TIP3   OH256131   0.488   3.914  13.260 -0.6851  0.8822  0.1967
11547TIP3    H156132   0.410   3.954  13.222 -0.6512 -0.9661 -2.0467
11547TIP3    H256133   0.560   3.941  13.203 -0.4134 -0.8729 -0.3602
11548TIP3   OH256134   1.505   1.812   1.776  0.2747 -0.4139 -0.6834
11548TIP3    H156135   1.526   1.902   1.799 -0.9031 -0.2542 -0.1492
11548TIP3    H256136   1.422   1.818   1.729  0.8202 -1.1077 -1.7519
11549TIP3   OH256137   0.556   5.801  14.332 -0.2584 -0.4138 -0.1479
11549TIP3    H156138   0.573   5.707  14.326  0.0055 -0.4372  0.7869
11549TIP3    H256139   0.557   5.831  14.241 -1.9484 -1.5673 -0.5924
11550TIP3   OH256140   1.154   0.082   9.671  0.2987  0.5635 -0.0828
11550TIP3    H156141   1.071   0.043   9.643 -1.4663  2.9323  1.4308
11550TIP3    H256142   1.181   0.029   9.746 -0.9374  0.8771  0.6249
11551TIP3   OH256143   1.127   5.764  12.459  0.0447 -0.5121 -0.6687
11551TIP3    H156144   1.104   5.688  12.405  1.8559  0.2413 -2.6276
11551TIP3    H256145   1.134   5.836  12.397  1.9504  0.4565  0.5956
11552TIP3   OH256146   4.032   5.144   1.553 -0.9059  0.1206 -0.4747
11552TIP3    H156147   4.068   5.232   1.567  0.7689 -0.0964 -2.7739
11552TIP3    H256148   4.001   5.145   1.462 -0.8027 -1.6646 -0.5652
11553TIP3   OH256149   0.777   1.954   3.808  0.0072 -0.4070  0.1025
11553TIP3    H156150   0.707   2.019   3.810  1.1066  0.7947  1.8460
11553TIP3    H256151   0.738   1.878   3.763 -2.0816  0.5545  0.1949
11554TIP3   OH256152   4.243   3.013   1.478 -0.4442 -0.1959 -0.2038
11554TIP3    H156153   4.334   3.042   1.469 -0.1240 -0.7893  1.0086
11554TIP3    H256154   4.197   3.061   1.409  0.3058  2.1778  0.8247
11555TIP3   OH256155   0.107   4.738   4.143 -0.1011 -0.4329  0.5534
11555TIP3    H156156   0.071   4.818   4.106  1.5532  0.0482 -0.1006
11555TIP3    H256157   0.097   4.673   4.074  0.0782 -0.3640  0.4635
11556TIP3   OH256158   6.469   3.977   4.731  0.1945 -0.3821 -0.2879
11556TIP3    H156159   6.433   3.973   4.820  0.0430 -1.1555 -0.3731
11556TIP3    H256160   6.560   3.947   4.742  0.8154  1.4583 -0.0877
11557TIP3   OH256161   5.448   2.547  11.784  0.8184  0.2156 -0.1743
11557TIP3    H156162   5.374   2.514  11.732  0.5932  0.4128  0.0181
11557TIP3    H256163   5.526   2.522  11.734  0.6730 -0.9583  0.1639
11558TIP3   OH256164   3.824   0.113   0.038 -0.1508 -0.1884 -0.0536
11558TIP3    H156165   3.842   0.204   0.064  1.7722 -0.1544 -1.2658
11558TIP3    H256166   3.903   0.086  -0.009 -0.7818 -2.4315  0.0682
11559TIP3   OH256167   1.964   0.452   4.473  0.2253 -0.5186 -0.1406
11559TIP3    H156168   2.007   0.492   4.397  0.7727  0.8847  0.8719
11559TIP3    H256169   1.871   0.456   4.451  0.3973 -0.5844 -0.9452
11560TIP3   OH256170   4.720   1.007   5.840  0.4957 -0.1812  0.7909
11560TIP3    H156171   4.762   0.924   5.862  0.8498 -0.6047 -1.2430
11560TIP3    H256172   4.791   1.070   5.835  0.3166  0.1000  1.5904
11561TIP3   OH256173   2.497   3.712  10.621 -0.0834 -0.6332  0.2736
11561TIP3    H156174   2.519   3.718  10.714 -0.9585  0.4831  0.4387
11561TIP3    H256175   2.408   3.679  10.619 -0.0980 -0.5770 -0.1598
11562TIP3   OH256176   3.237   6.227  16.829 -0.1042  0.1901  0.0008
11562TIP3    H156177   3.236   6.268  16.742  1.9133  0.3025 -0.0208
11562TIP3    H256178   3.213   6.135  16.812  0.4254  0.1738 -0.7135
11563TIP3   OH256179   0.319   0.884   1.344 -0.4406 -0.3573  0.3803
11563TIP3    H156180   0.248   0.930   1.298  0.2292 -0.9566 -1.3674
11563TIP3    H256181   0.301   0.791   1.329 -0.3622 -0.5921  1.6501
11564TIP3   OH256182   6.596   6.814  13.053 -0.0487 -0.2229 -0.0944
11564TIP3    H156183   6.573   6.802  13.145  1.0301 -0.0880  0.2080
11564TIP3    H256184   6.525   6.773  13.005 -1.7769  1.6373  0.7494
11565TIP3   OH256185   4.436   3.943  15.653  0.4798  0.0057  0.7117
11565TIP3    H156186   4.360   3.888  15.672  1.9252 -2.7414 -0.8050
11565TIP3    H256187   4.444   4.000  15.729 -1.8506 -1.0395  1.8607
11566TIP3   OH256188   1.608   0.924   0.884 -0.1109 -0.1629 -0.2710
11566TIP3    H156189   1.690   0.904   0.839 -0.2513 -1.2077 -0.0753
11566TIP3    H256190   1.595   1.018   0.868  0.6870 -0.1608 -0.9992
11567TIP3   OH256191   3.357   3.257   5.052  0.2432  0.3886  0.2360
11567TIP3    H156192   3.421   3.264   5.123  2.0017  1.0220 -1.3229
11567TIP3    H256193   3.339   3.347   5.027  0.4875  0.1597 -0.8131
11568TIP3   OH256194   4.687   3.640   6.619 -0.2919  0.6252 -0.5540
11568TIP3    H156195   4.714   3.565   6.565  2.2254  1.6184 -0.7955
11568TIP3    H256196   4.756   3.705   6.607 -1.5614  2.3664  0.9582
11569TIP3   OH256197   0.272   1.435   2.300  0.2484 -0.4591  0.3463
11569TIP3    H156198   0.309   1.362   2.350 -1.2983 -0.4906  1.5390
11569TIP3    H256199   0.189   1.401   2.267 -0.0526  0.4766  0.1123
11570TIP3   OH256200   1.140   2.174   0.268  0.4035 -0.0503  0.2481
11570TIP3    H156201   1.147   2.085   0.302 -2.2387  0.2604  1.7801
11570TIP3    H256202   1.226   2.213   0.287  1.6899 -2.2376 -0.6039
11571TIP3   OH256203   5.197   0.463  14.483 -0.6373 -0.0284  0.1624
11571TIP3    H156204   5.161   0.407  14.552 -0.0483  1.1285  1.4535
11571TIP3    H256205   5.228   0.402  14.417 -0.2535 -1.2264  1.4075
11572TIP3   OH256206   5.631   4.665  13.750  0.4897 -0.0382 -0.1925
11572TIP3    H156207   5.620   4.694  13.840  4.5725  0.9422  0.1829
11572TIP3    H256208   5.649   4.572  13.757 -4.7399 -1.4275 -0.7339
11573TIP3   OH256209   1.163   1.481  11.071  0.2429  0.2583  0.1644
11573TIP3    H156210   1.087   1.539  11.071 -1.2885 -1.6071  1.5376
11573TIP3    H256211   1.230   1.529  11.119 -0.4137  1.5339 -0.1656
11574TIP3   OH256212   6.315   3.222  13.808  0.2692 -0.1128 -0.5433
11574TIP3    H156213   6.379   3.155  13.828 -1.5030 -1.7545 -0.0671
11574TIP3    H256214   6.283   3.251  13.894  0.3332  0.6767 -0.7727
11575TIP3   OH256215   0.289   1.632   4.317  0.5074 -0.3077 -0.1574
11575TIP3    H156216   0.273   1.571   4.389 -0.3178  0.5467  0.4183
11575TIP3    H256217   0.355   1.692   4.350  0.8685 -0.5199 -0.4915
11576TIP3   OH256218   0.963   6.354  10.557  0.0377 -0.0160  0.4094
11576TIP3    H156219   0.945   6.359  10.464  0.7576  0.2441  0.2816
11576TIP3    H256220   0.951   6.443  10.590 -1.9623 -0.4200  0.9118
11577TIP3   OH256221   1.058   6.749  13.929 -0.2562 -0.1656  0.4518
11577TIP3    H156222   1.017   6.825  13.889 -0.4167 -0.1280  0.6867
11577TIP3    H256223   1.025   6.675  13.879  1.1163  0.0273 -0.8019
11578TIP3   OH256224   2.147   3.231  16.636 -0.4961  0.2684 -0.2698
11578TIP3    H156225   2.203   3.291  16.685  0.7594 -0.7963 -0.3609
11578TIP3    H256226   2.126   3.278  16.555 -1.0400  1.2887  0.4468
11579TIP3   OH256227   6.714   3.959  13.910 -0.0552 -0.1771 -0.2790
11579TIP3    H156228   6.737   4.002  13.992  0.5852 -1.0529  0.0220
11579TIP3    H256229   6.644   4.012  13.873  0.3163  0.7800  0.3551
11580TIP3   OH256230   5.730   6.740   3.922 -0.0331 -0.5818  0.3454
11580TIP3    H156231   5.731   6.669   3.986 -1.1741 -0.1918  0.8246
11580TIP3    H256232   5.791   6.805   3.957  0.7582 -1.1514  0.0738
11581TIP3   OH256233   1.860   5.401   2.691  0.3848  0.2851 -0.0182
11581TIP3    H156234   1.765   5.413   2.700  0.5380  1.2250  0.4773
11581TIP3    H256235   1.875   5.310   2.718 -0.0762  0.8926  2.5690
11582TIP3   OH256236   3.493   3.447  10.922  0.0001  0.1929 -0.1480
11582TIP3    H156237   3.527   3.458  10.833 -0.8822 -1.0148 -0.6536
11582TIP3    H256238   3.572   3.446  10.977  0.5324  1.3945 -0.8437
11583TIP3   OH256239   2.190   2.594   1.984 -0.9183  0.0371  0.2907
11583TIP3    H156240   2.217   2.553   1.901  1.7372 -1.2972  1.6642
11583TIP3    H256241   2.096   2.581   1.988 -0.9653 -0.8166 -2.0050
11584TIP3   OH256242   5.296   5.787   2.121 -0.2171  0.3423  0.4454
11584TIP3    H156243   5.386   5.818   2.107 -0.9015  2.2349 -0.1567
11584TIP3    H256244   5.242   5.861   2.093 -2.0068 -1.2681 -0.5599
11585TIP3   OH256245   0.289   6.265  10.885 -0.2074  0.5210 -0.4133
11585TIP3    H156246   0.325   6.177  10.870 -2.0080 -0.3977  0.3619
11585TIP3    H256247   0.261   6.265  10.976 -1.9523  1.2086 -0.8972
11586TIP3   OH256248   5.575   5.126  14.453  0.0229 -0.0304  0.1394
11586TIP3    H156249   5.578   5.221  14.456 -0.5463 -0.0171  0.5911
11586TIP3    H256250   5.487   5.106  14.419 -0.1087 -0.3921  0.6811
11587TIP3   OH256251   6.692   0.884  16.760  0.1138 -1.0494 -0.4253
11587TIP3    H156252   6.693   0.920  16.671 -1.3358 -2.0619 -0.8751
11587TIP3    H256253   6.765   0.822  16.761 -2.3427 -4.2952 -2.3880
11588TIP3   OH256254   1.990   6.607  13.195 -0.6242 -0.4175 -0.2315
11588TIP3    H156255   2.029   6.615  13.282 -1.2223 -0.7569  0.0729
11588TIP3    H256256   1.988   6.513  13.179 -1.9515 -0.4666  0.0607
11589TIP3   OH256257   4.309   2.767   3.079  0.3060  0.1879 -0.5561
11589TIP3    H156258   4.280   2.858   3.075 -0.5791 -0.0114  0.6104
11589TIP3    H256259   4.401   2.769   3.052  0.1382  1.3357 -1.0801
11590TIP3   OH256260   0.895   1.438   0.844  0.0976 -0.1996  0.0388
11590TIP3    H156261   0.884   1.431   0.750  0.8092 -1.2220  0.0196
11590TIP3    H256262   0.990   1.431   0.858  0.1340  1.2407  0.7369
11591TIP3   OH256263   6.657   1.556   3.266  0.6448 -0.3543 -0.6727
11591TIP3    H156264   6.728   1.619   3.277 -0.8926  1.1526  1.4836
11591TIP3    H256265   6.591   1.602   3.214 -0.5527 -0.0185  1.0411
11592TIP3   OH256266   6.097   6.409   4.511 -0.4204 -0.1105  0.4414
11592TIP3    H156267   6.077   6.316   4.522  0.0065 -0.3333 -0.5300
11592TIP3    H256268   6.111   6.441   4.600  0.3788 -1.2057  0.7388
11593TIP3   OH256269   4.774   3.603  16.662  0.0798 -0.3794  0.0720
11593TIP3    H156270   4.848   3.664  16.666 -0.2292 -0.0497  1.3517
11593TIP3    H256271   4.808   3.523  16.703  0.0166 -0.5460 -0.2029
11594TIP3   OH256272   3.162   0.945   3.906  0.0881 -0.3001  0.0916
11594TIP3    H156273   3.162   0.978   3.995 -0.8275 -0.8811  0.3204
11594TIP3    H256274   3.197   0.856   3.913  0.6483 -0.1101 -0.2286
11595TIP3   OH256275   5.452   5.700  14.064  0.7523 -0.0979 -0.0861
11595TIP3    H156276   5.441   5.688  14.158  0.1751  0.9396 -0.0172
11595TIP3    H256277   5.546   5.689  14.050  1.1979  1.9883  0.9638
11596TIP3   OH256278   6.851   6.890  12.391 -0.4776  0.5937  0.1651
11596TIP3    H156279   6.890   6.882  12.304 -2.6678 -0.4590 -0.8139
11596TIP3    H256280   6.863   6.982  12.414  1.6927  0.5155 -0.4335
11597TIP3   OH256281   3.200   4.269  16.155  0.0425  0.0154  0.0755
11597TIP3    H156282   3.232   4.202  16.094 -0.7296 -0.0813 -0.2395
11597TIP3    H256283   3.118   4.233  16.189 -0.4224  0.8310 -0.1556
11598TIP3   OH256284   6.778   5.161  14.501  0.1634  0.1952 -0.2833
11598TIP3    H156285   6.749   5.088  14.446 -0.4440 -0.1211  0.4313
11598TIP3    H256286   6.810   5.227  14.439 -0.1928 -0.2831 -0.9924
11599TIP3   OH256287   4.890   3.809   1.793 -0.2821 -0.1591  0.2801
11599TIP3    H156288   4.884   3.730   1.846  1.4017  0.3668  1.3307
11599TIP3    H256289   4.926   3.875   1.852  0.7507  0.7140 -1.2535
11600TIP3   OH256290   5.390   2.008  12.256 -0.3125 -0.2948  0.2755
11600TIP3    H156291   5.460   2.039  12.199 -1.2266  0.9422 -0.2286
11600TIP3    H256292   5.384   1.914  12.239 -1.0728  0.1428 -2.3045
11601TIP3   OH256293   0.643   1.383   4.022 -0.0907  0.1591  0.3045
11601TIP3    H156294   0.687   1.449   4.075 -0.2401  1.9419 -1.6902
11601TIP3    H256295   0.551   1.408   4.023 -0.3106 -0.6132  0.3173
11602TIP3   OH256296   6.020   4.820   2.753  0.7271 -0.2498 -0.3866
11602TIP3    H156297   5.925   4.826   2.759  0.6406  0.7851 -2.1660
11602TIP3    H256298   6.052   4.873   2.826 -0.0655  0.3580 -0.4666
11603TIP3   OH256299   2.707   1.419   1.360 -0.4080 -0.1194  0.3358
11603TIP3    H156300   2.746   1.377   1.283  0.6167 -0.6638  1.1190
11603TIP3    H256301   2.716   1.513   1.344 -2.4525 -0.1504 -1.3068
11604TIP3   OH256302   6.402   5.320   2.893  0.7073 -0.1493  0.7347
11604TIP3    H156303   6.367   5.406   2.869  1.4794  0.6149  2.2509
11604TIP3    H256304   6.327   5.261   2.886 -0.2499  0.9591  1.3045
11605TIP3   OH256305   0.492   1.112   4.319  0.4435  0.0702 -0.2167
11605TIP3    H156306   0.494   1.096   4.413 -1.0694  2.1414  0.2399
11605TIP3    H256307   0.440   1.039   4.283 -0.9819  0.4991  0.8917
11606TIP3   OH256308   2.915   6.093   0.137 -0.0390  0.1055 -0.3264
11606TIP3    H156309   2.888   6.115   0.048  1.0731 -1.3208 -1.0513
11606TIP3    H256310   2.930   5.999   0.135  2.2799  0.3744  0.7065
11607TIP3   OH256311   4.145   5.254  15.256 -0.4529 -0.0203  0.2776
11607TIP3    H156312   4.161   5.161  15.277  0.1863 -0.0344 -0.2335
11607TIP3    H256313   4.219   5.300  15.296 -0.6210  0.2425  0.2859
11608TIP3   OH256314   1.334   4.330  13.011 -0.1085 -0.1920  0.0269
11608TIP3    H156315   1.377   4.256  12.968  0.0139  0.4866 -1.0759
11608TIP3    H256316   1.388   4.406  12.988  0.3635  0.1278  1.9949
11609TIP3   OH256317   0.623   4.624  10.150  0.2828 -0.7652 -0.4665
11609TIP3    H156318   0.633   4.669  10.066  2.6897  0.4534  0.3707
11609TIP3    H256319   0.673   4.677  10.212  1.0351 -3.1564  1.1446
11610TIP3   OH256320   0.173   6.572  14.444 -0.6064  0.3578  0.6698
11610TIP3    H156321   0.123   6.572  14.525 -1.6576  0.3478  0.0423
11610TIP3    H256322   0.166   6.661  14.410  0.4581  0.5643  0.9513
11611TIP3   OH256323   1.772   2.219  15.949  0.9667 -0.1765 -0.6710
11611TIP3    H156324   1.728   2.198  15.867 -1.1770  3.0838 -0.5111
11611TIP3    H256325   1.829   2.292  15.928 -0.8025  1.7885  0.9506
11612TIP3   OH256326   1.707   1.376  15.733  0.0063 -0.0183 -0.4060
11612TIP3    H156327   1.731   1.321  15.659  1.2701 -1.4714  0.9884
11612TIP3    H256328   1.624   1.338  15.764  1.0882 -1.5176  0.8131
11613TIP3   OH256329   6.220   3.928  12.756 -0.0260  0.2596  0.2652
11613TIP3    H156330   6.196   3.901  12.844  0.4679  0.9142  0.6049
11613TIP3    H256331   6.216   3.847  12.704 -1.3580  0.0567  0.6470
11614TIP3   OH256332   0.477   6.525  15.337  0.0388  0.0863  0.1961
11614TIP3    H156333   0.393   6.567  15.353  0.2799  1.0024 -0.7939
11614TIP3    H256334   0.475   6.502  15.244 -0.0346 -2.0321  0.6796
11615TIP3   OH256335   0.438   0.642   4.430 -0.1127 -1.2591  0.0266
11615TIP3    H156336   0.417   0.582   4.502 -0.1558 -2.0158 -0.6059
11615TIP3    H256337   0.528   0.618   4.405  0.0460 -0.7342  0.0766
11616TIP3   OH256338   3.420   5.082  11.875  0.2170  0.2206 -0.2071
11616TIP3    H156339   3.376   5.096  11.959  0.0718 -1.0272 -0.0505
11616TIP3    H256340   3.485   5.152  11.870 -1.5391  1.9341 -0.3132
11617TIP3   OH256341   5.388   5.885   1.804 -0.2363 -0.0087  1.0030
11617TIP3    H156342   5.409   5.860   1.894  2.0541 -0.6238  0.3522
11617TIP3    H256343   5.438   5.965   1.789 -0.2598 -0.1507  0.1394
11618TIP3   OH256344   1.761   1.343  13.132 -0.3565  0.4371  0.1713
11618TIP3    H156345   1.680   1.344  13.080 -0.5420  0.0619  0.4459
11618TIP3    H256346   1.731   1.327  13.222  0.0043  0.5357  0.3086
11619TIP3   OH256347   1.136   5.605   4.964 -0.2311 -0.2352  0.3544
11619TIP3    H156348   1.208   5.605   5.027  0.9187 -0.5821 -0.9259
11619TIP3    H256349   1.165   5.547   4.894 -1.1760  0.6654 -0.8301
11620TIP3   OH256350   3.270   3.955   4.904 -0.1480  0.5926  0.3019
11620TIP3    H156351   3.182   3.936   4.871  0.5690  0.5471 -1.7057
11620TIP3    H256352   3.287   4.044   4.876  0.8995  0.1872 -0.3875
11621TIP3   OH256353   3.168   5.790   0.506 -0.5832 -0.1944 -0.0019
11621TIP3    H156354   3.208   5.871   0.538  0.1910 -1.6529  3.1192
11621TIP3    H256355   3.081   5.817   0.478 -0.2260  1.7816  0.5733
11622TIP3   OH256356   0.250   0.243   0.811 -0.4887 -0.0477  0.9944
11622TIP3    H156357   0.252   0.163   0.759 -2.5724  0.7520 -0.5000
11622TIP3    H256358   0.306   0.304   0.764 -2.2173  0.6126 -0.3417
11623TIP3   OH256359   5.256   3.951  12.125  0.4720 -0.0507 -0.4745
11623TIP3    H156360   5.335   3.995  12.096 -0.0793  0.3920 -1.3446
11623TIP3    H256361   5.187   4.017  12.117  0.3848  0.3866  2.6286
11624TIP3   OH256362   0.293   0.296   1.712 -0.0548  0.0408 -0.0902
11624TIP3    H156363   0.287   0.204   1.736 -0.2391 -0.0671 -0.5399
11624TIP3    H256364   0.319   0.341   1.793  1.1200 -0.5391 -0.1190
11625TIP3   OH256365   3.000   2.493   5.416 -0.0670 -0.1877  0.1395
11625TIP3    H156366   3.021   2.547   5.492  1.3289  1.5121 -1.3372
11625TIP3    H256367   2.909   2.515   5.395  0.2198  1.0164  0.0607
11626TIP3   OH256368   2.233   3.894   2.151 -0.7472  0.6477 -0.2528
11626TIP3    H156369   2.147   3.852   2.142 -0.0601 -0.6923 -0.6987
11626TIP3    H256370   2.257   3.878   2.242  0.1710 -1.2732 -0.7981
11627TIP3   OH256371   5.761   1.759   2.493 -0.1475  0.1729 -0.0798
11627TIP3    H156372   5.751   1.761   2.398 -0.5412  2.7044 -0.0597
11627TIP3    H256373   5.814   1.681   2.510 -2.2305 -1.8550 -2.0928
11628TIP3   OH256374   4.503   6.761   4.865 -0.0102  0.0549 -0.1240
11628TIP3    H156375   4.566   6.725   4.928 -0.1546  0.1221  0.0606
11628TIP3    H256376   4.466   6.837   4.909  0.7035  0.7718 -0.7382
11629TIP3   OH256377   0.318   4.005   0.487 -0.2246  0.6106 -0.9216
11629TIP3    H156378   0.301   4.085   0.436 -2.2120 -0.3098 -1.7952
11629TIP3    H256379   0.257   3.941   0.452 -1.4477 -0.1959  2.3672
11630TIP3   OH256380   5.966   5.023   5.420 -0.0192  0.0894  0.5022
11630TIP3    H156381   5.961   4.951   5.483 -1.6417 -0.4755 -0.2090
11630TIP3    H256382   5.936   4.984   5.337  0.8734  1.1200 -0.3309
11631TIP3   OH256383   2.979   3.413   1.481 -0.5073  0.8533  0.5920
11631TIP3    H156384   2.887   3.391   1.493 -0.5888  1.6863  1.7929
11631TIP3    H256385   3.008   3.441   1.568  1.1024 -0.1429  0.4251
11632TIP3   OH256386   5.076   4.685  11.640  0.0313 -0.4812 -0.2076
11632TIP3    H156387   5.122   4.637  11.710 -1.7549 -1.5896  0.2746
11632TIP3    H256388   4.997   4.719  11.682 -0.0656  0.6172 -1.2216
11633TIP3   OH256389   4.896   3.245   4.406 -0.4658  0.6205 -0.3519
11633TIP3    H156390   4.854   3.331   4.409 -0.7341  0.4705  0.8213
11633TIP3    H256391   4.952   3.248   4.328 -0.7030  1.7441 -0.4970
11634TIP3   OH256392   0.795   6.887  15.012 -0.0252  0.5878  0.6330
11634TIP3    H156393   0.775   6.941  14.935 -2.3518  0.0423  0.7854
11634TIP3    H256394   0.810   6.799  14.977  0.2281  0.6044  0.6976
11635TIP3   OH256395   2.083   1.083   4.973 -0.1388 -0.1589  0.0571
11635TIP3    H156396   2.029   1.059   4.897 -1.4661  1.3129  0.4657
11635TIP3    H256397   2.021   1.084   5.046  0.8155 -0.0847  0.8770
11636TIP3   OH256398   2.698   5.370  16.785  0.0242 -0.0466  0.1202
11636TIP3    H156399   2.618   5.382  16.734 -0.3372 -0.3540  0.6009
11636TIP3    H256400   2.707   5.275  16.794  0.0005  0.0051  0.7461
11637TIP3   OH256401   0.883   0.695   3.972 -0.4441  0.5217 -0.0164
11637TIP3    H156402   0.969   0.697   3.931 -0.3130 -1.4578  0.0749
11637TIP3    H256403   0.894   0.742   4.054 -0.0766  2.3234 -1.0434
11638TIP3   OH256404   1.739   6.028   0.764 -0.0536 -0.2549 -0.4277
11638TIP3    H156405   1.671   6.056   0.826 -0.2368 -0.9394 -0.3104
11638TIP3    H256406   1.815   6.082   0.786  0.0366 -0.8177  0.7261
11639TIP3   OH256407   1.287   0.614   5.186 -1.1131 -0.6285 -0.4765
11639TIP3    H156408   1.271   0.564   5.106  0.7528 -0.7311 -0.8450
11639TIP3    H256409   1.318   0.549   5.249 -0.5518 -0.2495 -0.3494
11640TIP3   OH256410   5.331   0.880  13.382  0.0576 -0.7189  0.3853
11640TIP3    H156411   5.291   0.966  13.396  0.5853 -0.2870 -0.6329
11640TIP3    H256412   5.272   0.835  13.322  0.0565 -0.8567  0.4897
11641TIP3   OH256413   0.782   5.837  13.897  0.3961  0.1484 -0.1318
11641TIP3    H156414   0.814   5.918  13.857  1.0839 -0.5786 -1.1066
11641TIP3    H256415   0.799   5.848  13.991 -0.4305  1.5287 -0.1304
11642TIP3   OH256416   3.595   6.371   3.315 -0.0683 -0.1232  0.5978
11642TIP3    H156417   3.610   6.461   3.346 -0.0068 -0.2605  0.9715
11642TIP3    H256418   3.642   6.366   3.232 -2.6281  1.1533 -1.0352
11643TIP3   OH256419   0.312   0.911   3.234  0.0473 -0.4201  0.5465
11643TIP3    H156420   0.348   0.864   3.158 -3.0384 -1.3949 -0.4723
11643TIP3    H256421   0.339   0.857   3.309  0.5330 -1.1874 -0.1485
11644TIP3   OH256422   5.049   0.417   1.231 -0.3357 -0.0748  0.2209
11644TIP3    H156423   5.085   0.398   1.145 -0.6332 -0.6721  0.2238
11644TIP3    H256424   4.961   0.380   1.230 -0.9072  1.2139  0.2799
11645TIP3   OH256425   6.090   5.291   5.168 -0.1187  0.7197 -0.2249
11645TIP3    H156426   6.172   5.288   5.119 -0.0341  0.4793 -0.0722
11645TIP3    H256427   6.033   5.228   5.124  0.0484  0.3055  0.1401
11646TIP3   OH256428   0.166   5.414   3.517 -0.1759  0.0142  0.0066
11646TIP3    H156429   0.080   5.373   3.525 -1.0554  1.7231 -0.1893
11646TIP3    H256430   0.211   5.363   3.449 -1.3526 -0.3875 -0.4928
11647TIP3   OH256431   3.538   5.819  10.268  0.6647  0.0558 -0.5762
11647TIP3    H156432   3.577   5.897  10.308  0.1183  1.2136 -2.1807
11647TIP3    H256433   3.609   5.781  10.215  0.7711 -0.2392 -0.2294
11648TIP3   OH256434   5.857   2.083   5.112 -0.2023  0.1933 -0.1205
11648TIP3    H156435   5.762   2.083   5.121 -0.2153  1.5538 -0.0816
11648TIP3    H256436   5.881   2.176   5.110  1.1615 -0.1272  0.2666
11649TIP3   OH256437   3.969   1.445  15.566 -0.4410  0.1628 -0.2661
11649TIP3    H156438   3.915   1.524  15.557 -1.0584 -0.2558 -0.2802
11649TIP3    H256439   3.937   1.386  15.498 -1.5221 -0.9683  1.1632
11650TIP3   OH256440   5.115   4.905   3.385 -0.1896  0.0533  0.2185
11650TIP3    H156441   5.133   4.940   3.472  0.3107  1.2038 -0.3336
11650TIP3    H256442   5.066   4.974   3.340  0.4502 -0.0992 -0.7530
11651TIP3   OH256443   2.592   0.180  15.915  0.2231  0.3565 -0.1563
11651TIP3    H156444   2.508   0.133  15.909  0.2503  0.0501  1.4677
11651TIP3    H256445   2.641   0.151  15.838  0.1348 -2.1189  0.6403
11652TIP3   OH256446   4.419   5.347  14.497  0.1011  0.7100  0.4912
11652TIP3    H156447   4.328   5.368  14.476 -0.0239  1.2884  1.5515
11652TIP3    H256448   4.458   5.432  14.520  1.2143  0.6411 -0.9966
11653TIP3   OH256449   6.719   3.219   5.341  0.7783 -0.0709 -0.4351
11653TIP3    H156450   6.688   3.299   5.297  0.1853  1.1178  1.9635
11653TIP3    H256451   6.640   3.169   5.359  1.0517 -0.7246 -0.9903
11654TIP3   OH256452   5.871   5.384  15.895  0.1309 -0.2615  0.4688
11654TIP3    H156453   5.909   5.429  15.971  0.5957  1.6924 -0.8450
11654TIP3    H256454   5.782   5.418  15.890  0.0484 -0.5153  0.2210
11655TIP3   OH256455   5.964   1.870  14.432 -0.7334 -0.1138  0.0136
11655TIP3    H156456   5.962   1.915  14.517 -1.6506 -2.6098  1.4290
11655TIP3    H256457   6.057   1.866  14.409 -0.5783  1.7488  0.2111
11656TIP3   OH256458   6.820   2.590   0.869 -0.1904 -0.0094  0.3022
11656TIP3    H156459   6.787   2.680   0.868 -0.1759 -0.0002  0.6432
11656TIP3    H256460   6.814   2.563   0.961  1.7226  0.3735  0.5813
11657TIP3   OH256461   1.713   3.649   2.900 -0.4678  0.9562 -0.1423
11657TIP3    H156462   1.728   3.724   2.957  0.5464 -0.1562  1.1162
11657TIP3    H256463   1.640   3.602   2.941  1.2104 -0.6431  1.1601
11658TIP3   OH256464   6.783   5.411  14.294 -0.4524 -0.3148 -0.2584
11658TIP3    H156465   6.874   5.405  14.266  1.0229  0.9468  3.5381
11658TIP3    H256466   6.773   5.503  14.320 -1.9078 -0.9908  1.8251
11659TIP3   OH256467   1.932   4.235   2.914  0.4632  0.5640 -0.8611
11659TIP3    H156468   1.890   4.262   2.996 -2.6155 -1.8653 -1.4463
11659TIP3    H256469   2.005   4.296   2.904 -0.4997  2.5435  2.3873
11660TIP3   OH256470   0.237   2.675   5.877  0.0964  0.7072  0.3517
11660TIP3    H156471   0.277   2.755   5.908 -0.5991  0.7676  1.1466
11660TIP3    H256472   0.151   2.673   5.920 -0.7338  0.5644 -1.2495
11661TIP3   OH256473   1.485   1.536   4.894  0.1227  0.3446  0.4229
11661TIP3    H156474   1.457   1.521   4.984 -0.8345  0.7492  0.2074
11661TIP3    H256475   1.555   1.601   4.901  1.9300 -1.5812  1.0684
11662TIP3   OH256476   2.282   0.342  14.446 -0.3591  0.4015  0.5279
11662TIP3    H156477   2.215   0.304  14.503  0.3328 -1.8825 -0.1013
11662TIP3    H256478   2.235   0.365  14.366 -0.5911 -0.2457  0.4707
11663TIP3   OH256479   4.302   2.926   0.939  0.4467 -0.2188 -0.0685
11663TIP3    H156480   4.355   2.895   0.865 -0.0294  0.2650 -0.6287
11663TIP3    H256481   4.225   2.966   0.898 -1.0636 -2.1534  0.7584
11664TIP3   OH256482   6.834   6.720   2.622  0.5145 -0.1812 -0.2684
11664TIP3    H156483   6.807   6.773   2.547 -0.4724  3.7859  2.5748
11664TIP3    H256484   6.930   6.719   2.618  0.4841 -1.2104 -2.1568
11665TIP3   OH256485   3.199   3.449  16.840  0.4477  0.0735 -0.4610
11665TIP3    H156486   3.248   3.377  16.799  2.2940  0.1809  1.4186
11665TIP3    H256487   3.266   3.503  16.881 -1.0693  1.8721 -0.2458
11666TIP3   OH256488   6.277   3.938   2.199  0.2063 -0.3483 -0.3816
11666TIP3    H156489   6.231   3.903   2.276  1.6515  0.6073  0.9708
11666TIP3    H256490   6.291   3.862   2.142  0.3789 -1.3619  0.9758
11667TIP3   OH256491   0.021   2.231  16.024  0.0260 -0.1144 -0.3693
11667TIP3    H156492  -0.032   2.247  15.945  0.1802  0.6179 -0.3264
11667TIP3    H256493   0.031   2.317  16.064 -0.1425 -0.4992  0.5147
11668TIP3   OH256494   6.828   1.628   0.767 -0.0627 -0.0287 -0.4129
11668TIP3    H156495   6.873   1.649   0.686  1.4322 -0.1541  0.3624
11668TIP3    H256496   6.796   1.713   0.799  1.2781  0.3486 -0.0187
11669TIP3   OH256497   2.522   0.222   2.496  0.4758 -0.3679  0.0848
11669TIP3    H156498   2.615   0.243   2.491  0.8362 -1.3093  1.8599
11669TIP3    H256499   2.478   0.293   2.449  2.0979 -0.1385 -1.1582
11670TIP3   OH256500   4.033   6.748  16.544 -0.2998  0.0217  0.0516
11670TIP3    H156501   4.071   6.712  16.624  1.1838 -0.5262 -0.8595
11670TIP3    H256502   4.100   6.734  16.477 -1.1021  1.3462 -1.0864
11671TIP3   OH256503   3.486   5.087   0.616 -0.0858 -0.7153 -0.4964
11671TIP3    H156504   3.435   5.129   0.547  1.9679  1.7154 -0.6735
11671TIP3    H256505   3.477   4.993   0.598 -3.5494 -0.4149 -1.0857
11672TIP3   OH256506   6.278   1.798   0.123  0.3628 -0.7011 -0.0761
11672TIP3    H156507   6.324   1.728   0.077  0.2998 -0.3010 -0.7586
11672TIP3    H256508   6.346   1.863   0.141 -0.2512  0.9650 -3.1222
11673TIP3   OH256509   2.772   1.358   4.882 -0.1555 -0.4883  0.3176
11673TIP3    H156510   2.685   1.344   4.921 -0.3646  1.5907  0.6764
11673TIP3    H256511   2.758   1.343   4.788 -1.2690  1.1329  0.1807
11674TIP3   OH256512   3.191   0.149  13.974  0.1299  0.2493 -0.2359
11674TIP3    H156513   3.114   0.098  13.998 -0.3373  1.6222  1.3153
11674TIP3    H256514   3.188   0.226  14.030  0.9448  1.8927 -2.3239
11675TIP3   OH256515   3.563   5.993   2.446  0.0867 -0.2778 -0.4188
11675TIP3    H156516   3.634   5.962   2.503 -0.3854  0.5168  0.6360
11675TIP3    H256517   3.603   6.061   2.393  0.4259 -0.7251 -0.7467
11676TIP3   OH256518   0.391   2.197   4.589  0.0310  0.7225  0.6596
11676TIP3    H156519   0.311   2.227   4.547 -0.9373 -1.0857  1.0922
11676TIP3    H256520   0.400   2.253   4.666  0.3800  2.3239 -0.5038
11677TIP3   OH256521   2.719   0.930  14.245  0.4351  0.1956  0.2107
11677TIP3    H156522   2.741   0.872  14.317 -0.4140  0.7877  0.9749
11677TIP3    H256523   2.796   0.930  14.189  0.8398 -0.8308  0.7421
11678TIP3   OH256524   4.377   3.348   1.003 -0.4655  0.1650  0.1130
11678TIP3    H156525   4.458   3.335   1.052 -0.1805  0.1320 -0.3551
11678TIP3    H256526   4.327   3.268   1.016 -0.8311  0.5424  1.1465
11679TIP3   OH256527   2.188   4.554  15.538  0.3196  0.2368 -0.3042
11679TIP3    H156528   2.106   4.568  15.584  1.0023 -0.6962  1.3097
11679TIP3    H256529   2.247   4.621  15.573  0.1067  1.3380 -1.9469
11680TIP3   OH256530   1.995   1.176   5.306  0.2261 -0.3503  0.2909
11680TIP3    H156531   1.993   1.262   5.347  3.2519  0.0402 -0.1386
11680TIP3    H256532   1.921   1.176   5.245  0.5431  2.2562 -0.1980
11681TIP3   OH256533   3.734   2.425   1.372 -0.5996  0.1298 -0.5079
11681TIP3    H156534   3.690   2.422   1.457  0.7798  0.0855  0.2356
11681TIP3    H256535   3.698   2.351   1.324 -0.5687 -0.5324  0.4651
11682TIP3   OH256536   2.936   6.427  12.093 -0.4368 -0.5378 -0.0255
11682TIP3    H156537   3.026   6.404  12.073  0.3611  1.5217  0.8451
11682TIP3    H256538   2.906   6.474  12.015  0.3420  1.4585  0.8080
11683TIP3   OH256539   5.376   4.435  13.108 -0.3487 -0.6870 -0.3119
11683TIP3    H156540   5.317   4.388  13.167 -1.5719 -0.7212 -1.5226
11683TIP3    H256541   5.464   4.417  13.144 -0.9148 -2.2831  0.3864
11684TIP3   OH256542   0.673   0.643  12.756 -0.5600  0.2637 -0.4122
11684TIP3    H156543   0.698   0.736  12.760  0.2845  0.0327 -0.1694
11684TIP3    H256544   0.641   0.624  12.844  0.3116  0.0469 -0.1327
11685TIP3   OH256545   1.073   1.537  13.202 -0.5358  0.0744 -0.2116
11685TIP3    H156546   1.071   1.459  13.146 -0.1655 -0.5039  0.5554
11685TIP3    H256547   1.109   1.505  13.285 -2.2488  0.6317  0.7872
11686TIP3   OH256548   0.203   2.868   0.000  0.2200  0.0405 -0.2395
11686TIP3    H156549   0.190   2.962   0.016  2.7951  0.5083 -0.4728
11686TIP3    H256550   0.242   2.863  -0.087 -1.4502 -1.4326 -0.9619
11687TIP3   OH256551   0.906   3.874  11.786 -0.9505  0.0461 -0.0886
11687TIP3    H156552   0.938   3.802  11.840  1.3289  0.9908 -0.0561
11687TIP3    H256553   0.828   3.839  11.743 -0.3461 -2.1866  0.4743
11688TIP3   OH256554   0.941   3.428   2.319  0.3619  0.2669 -0.3288
11688TIP3    H156555   0.906   3.420   2.230  0.7100  2.1352 -0.6662
11688TIP3    H256556   0.863   3.425   2.375  0.0773 -0.1219 -0.7328
11689TIP3   OH256557   1.940   1.516  13.027 -0.4859  0.1603  0.3888
11689TIP3    H156558   1.981   1.510  13.113 -1.6368  1.9534  1.1127
11689TIP3    H256559   1.856   1.471  13.037 -0.1455 -0.6253 -0.1490
11690TIP3   OH256560   1.760   6.757   5.948  0.2178 -0.2622 -0.4542
11690TIP3    H156561   1.814   6.727   6.021 -0.1963 -1.5786 -0.6652
11690TIP3    H256562   1.795   6.844   5.927  0.7853 -0.1457  0.8538
11691TIP3   OH256563   5.385   3.690  14.217 -0.4381  0.0768  0.4543
11691TIP3    H156564   5.401   3.633  14.142  0.8370  1.2896 -0.2463
11691TIP3    H256565   5.406   3.637  14.293 -0.0921 -0.6534 -0.1433
11692TIP3   OH256566   1.308   0.489   0.502 -1.0127 -0.4157 -0.4557
11692TIP3    H156567   1.335   0.581   0.502 -1.5735 -0.2271  1.2664
11692TIP3    H256568   1.342   0.455   0.419 -0.9002  1.3585 -1.1888
11693TIP3   OH256569   5.682   5.349  11.861  0.4013 -0.2678  0.3042
11693TIP3    H156570   5.639   5.434  11.868  1.7412  0.4398  0.2257
11693TIP3    H256571   5.611   5.285  11.872 -0.7578  0.8449 -0.4358
11694TIP3   OH256572   4.099   2.102   5.538 -0.5448 -0.2557 -0.2779
11694TIP3    H156573   4.114   2.026   5.595  0.8686  1.0022  1.1166
11694TIP3    H256574   4.187   2.134   5.518 -1.0788  0.2905 -1.9142
11695TIP3   OH256575   5.505   4.945   3.083 -0.3724 -0.6596 -0.4342
11695TIP3    H156576   5.455   4.882   3.030  2.5689 -2.7415 -1.0150
11695TIP3    H256577   5.553   4.997   3.019  1.6479 -1.8329  0.0269
11696TIP3   OH256578   3.061   5.247   5.112  0.2080  0.0761 -0.1364
11696TIP3    H156579   3.045   5.259   5.205  0.6602  1.0728 -0.1852
11696TIP3    H256580   3.156   5.244   5.104  0.1797 -1.6752 -0.3782
11697TIP3   OH256581   1.433   4.532  13.450 -0.0179 -0.4754 -0.5055
11697TIP3    H156582   1.445   4.488  13.535  1.1352 -1.8527 -1.3342
11697TIP3    H256583   1.448   4.463  13.386  0.2181  0.8007 -1.8547
11698TIP3   OH256584   5.166   6.027  13.948  0.4053 -0.6230  0.2985
11698TIP3    H156585   5.164   5.942  13.905  2.8201 -0.6196  0.0346
11698TIP3    H256586   5.254   6.032  13.986  0.3128  1.7325  0.3300
11699TIP3   OH256587   6.740   0.764   5.835  0.1981  0.3999 -0.0724
11699TIP3    H156588   6.769   0.703   5.902 -0.1019  0.0270 -0.2787
11699TIP3    H256589   6.812   0.765   5.771  0.7803  1.2544  0.5589
11700TIP3   OH256590   4.881   4.027   3.861 -0.0584 -0.0500 -0.1905
11700TIP3    H156591   4.906   4.028   3.769  1.5635  1.6047  0.1891
11700TIP3    H256592   4.914   3.944   3.894  0.4965 -0.1037 -0.8457
11701TIP3   OH256593   4.605   6.516   2.147  0.1656  0.1276  0.2329
11701TIP3    H156594   4.549   6.586   2.182 -0.3854 -0.6164  0.9064
11701TIP3    H256595   4.694   6.546   2.162 -0.0681  0.3577  1.2226
11702TIP3   OH256596   5.419   5.888   0.440  0.4232  0.6247 -0.5557
11702TIP3    H156597   5.359   5.963   0.444 -0.7718 -0.3525  0.4813
11702TIP3    H256598   5.437   5.878   0.346 -1.8940  0.3175 -1.0309
11703TIP3   OH256599   4.129   5.444  11.637 -0.2540 -0.1624 -0.5546
11703TIP3    H156600   4.148   5.504  11.710 -0.8670  0.8147 -1.1721
11703TIP3    H256601   4.072   5.495  11.579 -1.0403 -1.4633 -0.9535
11704TIP3   OH256602   6.326   6.063  10.203  0.0959  0.4993  0.8114
11704TIP3    H156603   6.309   6.149  10.166  1.8799  1.2337  1.5729
11704TIP3    H256604   6.337   6.079  10.297  1.3676 -0.3708  0.8464
11705TIP3   OH256605   3.189   5.142  10.888  0.2681 -0.2177  0.1260
11705TIP3    H156606   3.277   5.133  10.925  1.3801  1.3300 -1.9199
11705TIP3    H256607   3.169   5.055  10.854 -0.2994 -1.3644  3.1345
11706TIP3   OH256608   2.029   3.730  12.327  0.0029 -0.1276 -0.2594
11706TIP3    H156609   2.046   3.723  12.421 -1.6470  0.6850  0.1527
11706TIP3    H256610   2.025   3.640  12.296  0.7355 -0.3955  0.4068
11707TIP3   OH256611   3.437   1.901   3.959  0.6504  0.5991  0.3310
11707TIP3    H156612   3.395   1.817   3.945 -1.5051  1.4325  1.2994
11707TIP3    H256613   3.501   1.885   4.027 -0.2832 -0.1248  1.0647
11708TIP3   OH256614   1.074   5.710   4.674  0.1307 -0.6435 -0.0540
11708TIP3    H156615   1.084   5.803   4.656 -2.7646 -0.3990 -0.9092
11708TIP3    H256616   1.084   5.702   4.769  3.3765 -0.0261 -0.2358
11709TIP3   OH256617   4.299   6.534   4.000  0.1346  0.0800  0.4067
11709TIP3    H156618   4.219   6.554   4.049 -0.0588 -0.8220  0.4774
11709TIP3    H256619   4.369   6.543   4.064  0.1946  1.6681  0.1537
11710TIP3   OH256620   3.164   0.911  11.691 -0.3961  0.3229  0.0817
11710TIP3    H156621   3.226   0.951  11.752 -0.0265  0.3781 -0.3219
11710TIP3    H256622   3.084   0.963  11.699 -0.4429  0.1641  0.7111
11711TIP3   OH256623   0.640   2.574  13.019  0.5005 -0.4552  0.4498
11711TIP3    H156624   0.662   2.667  13.013 -2.0572  0.1592 -0.7851
11711TIP3    H256625   0.579   2.560  12.947 -2.1519 -2.1650  2.8584
11712TIP3   OH256626   4.713   5.278  15.528  0.4680 -0.2607 -0.7374
11712TIP3    H156627   4.709   5.260  15.622 -0.6698  0.4886 -0.6215
11712TIP3    H256628   4.770   5.210  15.493  0.3546 -0.9726  0.3950
11713TIP3   OH256629   3.914   5.629   4.392  0.4013 -0.0223 -0.4421
11713TIP3    H156630   3.836   5.636   4.336  0.1797 -1.5839 -0.3766
11713TIP3    H256631   3.964   5.708   4.373 -1.4699  1.3353 -0.0501
11714TIP3   OH256632   1.806   1.803  12.805 -0.1931 -0.1109  0.0788
11714TIP3    H156633   1.738   1.819  12.870  0.8219 -0.5836  1.3126
11714TIP3    H256634   1.772   1.733  12.750 -1.1542  0.4290 -0.0365
11715TIP3   OH256635   3.867   0.844  12.782 -0.3472  0.2819  0.2047
11715TIP3    H156636   3.856   0.873  12.872 -0.1482  0.9026  0.0318
11715TIP3    H256637   3.862   0.924  12.730  1.8297  0.2257 -0.1542
11716TIP3   OH256638   4.431   5.251   3.758 -0.4373  0.0445 -0.7952
11716TIP3    H156639   4.432   5.342   3.786 -2.8633 -0.3744  0.9535
11716TIP3    H256640   4.391   5.253   3.671 -0.9169  0.5950 -0.5651
11717TIP3   OH256641   6.491   6.597   3.259  0.1914  0.4242 -0.6183
11717TIP3    H156642   6.552   6.627   3.325 -0.4988  0.1610  0.1555
11717TIP3    H256643   6.461   6.511   3.290  0.6243 -0.1760 -1.7823
11718TIP3   OH256644   6.045   2.307   0.439 -0.3096  0.4614  0.4796
11718TIP3    H156645   6.002   2.345   0.362  1.0800  0.1475 -0.4823
11718TIP3    H256646   6.033   2.373   0.507  0.0242  1.6023 -0.5237
11719TIP3   OH256647   2.458   2.854   2.240 -0.2319 -0.2456  0.2538
11719TIP3    H156648   2.482   2.761   2.244  1.4068  0.0576 -1.3881
11719TIP3    H256649   2.363   2.853   2.227 -0.0852 -1.7429 -1.0157
11720TIP3   OH256650   3.633   2.408  12.412  0.4505  0.4030 -0.1364
11720TIP3    H156651   3.618   2.369  12.326 -1.0135  0.7392 -0.0564
11720TIP3    H256652   3.607   2.340  12.474  1.0929  0.3200  0.0515
11721TIP3   OH256653   2.336   0.782   2.270 -0.4708  0.0928  0.7213
11721TIP3    H156654   2.283   0.743   2.340 -1.3658 -1.6705 -0.8519
11721TIP3    H256655   2.276   0.789   2.196  1.0212 -0.2941 -0.5753
11722TIP3   OH256656   2.998   5.889  13.455 -0.0957  0.4940 -0.3806
11722TIP3    H156657   3.046   5.965  13.422  2.1042 -0.7059 -0.0870
11722TIP3    H256658   3.036   5.814  13.409 -2.0177 -0.5102 -0.4620
11723TIP3   OH256659   3.591   6.009   3.001 -0.2494  0.0714  0.1509
11723TIP3    H156660   3.514   6.067   2.998 -0.2479  0.0641 -0.0216
11723TIP3    H256661   3.663   6.065   2.972  0.1617  0.6436  2.1348
11724TIP3   OH256662   0.721   0.060   5.181 -0.3826  0.2698 -0.2044
11724TIP3    H156663   0.637   0.017   5.168  0.4255 -1.5124  0.1921
11724TIP3    H256664   0.785  -0.011   5.179  0.7498  0.9622  3.5331
11725TIP3   OH256665   4.864   5.931   2.447 -0.2303 -0.1689  0.3193
11725TIP3    H156666   4.834   5.842   2.427 -0.2803 -0.2124  0.5883
11725TIP3    H256667   4.859   5.937   2.542 -1.2600  0.4859  0.2358
11726TIP3   OH256668   2.493   0.364  14.103 -0.5247 -0.1805 -0.3643
11726TIP3    H156669   2.493   0.402  14.015 -1.8071 -2.4842 -1.4295
11726TIP3    H256670   2.460   0.435  14.159  2.6048  2.1886 -1.2034
11727TIP3   OH256671   5.591   1.691  13.930  0.0323 -0.2874  0.1595
11727TIP3    H156672   5.591   1.609  13.979 -2.1160 -0.3463  0.1780
11727TIP3    H256673   5.646   1.750  13.982  0.5116 -1.3197  0.8571
11728TIP3   OH256674   5.443   1.471  13.184 -0.2959 -0.0352 -0.6245
11728TIP3    H156675   5.428   1.555  13.141 -0.1094 -0.0263 -0.6727
11728TIP3    H256676   5.495   1.421  13.121  0.9817  0.3974  0.0622
11729TIP3   OH256677   0.137   2.867   3.296  0.6444  0.5697  0.4570
11729TIP3    H156678   0.083   2.815   3.237  1.2368  1.2601 -0.7227
11729TIP3    H256679   0.105   2.844   3.384 -0.1312 -0.6046 -0.1064
11730TIP3   OH256680   1.449   6.060  14.296  0.2212 -0.3945 -0.2160
11730TIP3    H156681   1.440   6.137  14.352  0.8595 -0.9488  0.6810
11730TIP3    H256682   1.537   6.067  14.259 -0.5710  0.5390 -2.0812
11731TIP3   OH256683   0.562   4.080  12.910  0.0203  0.4270  0.3327
11731TIP3    H156684   0.530   4.164  12.942 -1.7469  0.6135 -1.6922
11731TIP3    H256685   0.491   4.047  12.856  1.5648 -1.3401 -0.7217
11732TIP3   OH256686   3.471   4.712  11.585 -0.3582  0.8810  0.5408
11732TIP3    H156687   3.489   4.748  11.672 -0.3383  1.6890  0.2117
11732TIP3    H256688   3.495   4.782  11.524 -0.8648  0.5202 -0.0910
11733TIP3   OH256689   4.637   1.327  16.683  0.3706 -0.1736 -0.0480
11733TIP3    H156690   4.693   1.309  16.758  1.6317 -1.4726 -1.2463
11733TIP3    H256691   4.685   1.394  16.633  1.4519 -2.0011 -1.5999
11734TIP3   OH256692   2.087   5.807   2.931 -0.6025 -0.3027 -0.0764
11734TIP3    H156693   2.099   5.749   3.006 -2.2076 -0.0285  0.4118
11734TIP3    H256694   2.067   5.748   2.858 -0.7054 -0.4559  0.0752
11735TIP3   OH256695   0.506   4.414  13.725 -0.7401  0.1227 -0.4017
11735TIP3    H156696   0.488   4.506  13.745  0.5837  0.6813 -1.6285
11735TIP3    H256697   0.434   4.387  13.669 -0.3436  0.9010 -1.3218
11736TIP3   OH256698   3.376   5.913   5.096 -0.2784 -0.1162  0.2780
11736TIP3    H156699   3.290   5.906   5.055 -0.2592 -0.2302  0.2540
11736TIP3    H256700   3.358   5.932   5.188 -0.3327 -0.2805  0.3017
11737TIP3   OH256701   1.963   6.697   5.334  0.1989 -0.2286  0.1785
11737TIP3    H156702   2.046   6.739   5.358  0.8057  0.4462 -2.7349
11737TIP3    H256703   1.907   6.768   5.304 -1.7531 -0.6012  2.6520
11738TIP3   OH256704   0.671   1.881   2.491  0.1604 -0.1987 -0.5932
11738TIP3    H156705   0.622   1.819   2.437 -1.2150  0.7353 -0.4978
11738TIP3    H256706   0.746   1.905   2.437 -1.0761  0.5599 -2.0698
11739TIP3   OH256707   1.726   5.496  12.614  0.6973  0.4589 -0.4821
11739TIP3    H156708   1.776   5.440  12.674 -0.5372 -0.9645 -0.7275
11739TIP3    H256709   1.788   5.517  12.544  1.1696 -0.7068 -0.4339
11740TIP3   OH256710   5.643   2.228  12.881  0.0494  0.4092 -0.1032
11740TIP3    H156711   5.550   2.209  12.892 -0.1472 -0.4121 -2.5316
11740TIP3    H256712   5.688   2.153  12.919 -0.4377 -0.6561 -1.5150
11741TIP3   OH256713   4.167   0.942  16.369 -0.0316  0.1993  0.6603
11741TIP3    H156714   4.229   0.908  16.304 -1.3717  0.1488 -0.6485
11741TIP3    H256715   4.137   0.863  16.414 -2.4069 -0.3991 -1.7185
11742TIP3   OH256716   6.733   6.353  16.775  0.3452 -0.1846  0.1852
11742TIP3    H156717   6.786   6.374  16.697  1.3649 -0.2003  0.8530
11742TIP3    H256718   6.760   6.418  16.840  0.1434 -0.7053  0.7966
11743TIP3   OH256719   1.691   0.500  11.036 -0.6048  0.3014  0.0155
11743TIP3    H156720   1.614   0.449  11.008 -1.0197 -0.1323  1.8530
11743TIP3    H256721   1.707   0.560  10.963 -2.1936 -0.1486 -0.7519
11744TIP3   OH256722   5.347   0.981  15.514  0.4447 -0.0878 -0.2688
11744TIP3    H156723   5.284   1.035  15.563  0.8331  1.9495 -1.8851
11744TIP3    H256724   5.332   0.892  15.546 -2.4336  0.4913  0.2638
11745TIP3   OH256725   6.540   5.584  11.173  0.0592  0.4038 -0.1112
11745TIP3    H156726   6.580   5.671  11.182 -1.3272  1.3241 -2.0994
11745TIP3    H256727   6.522   5.557  11.262 -0.2496  2.5613  0.5517
11746TIP3   OH256728   2.061   6.215  14.007  0.5321 -0.0737 -0.0044
11746TIP3    H156729   2.053   6.186  13.916  0.7689 -2.2850  0.6234
11746TIP3    H256730   2.099   6.303  14.001  2.4612 -0.9559 -1.9950
11747TIP3   OH256731   4.366   1.656  16.572 -0.7104  0.3784  0.3580
11747TIP3    H156732   4.354   1.570  16.531  1.0614 -1.0552  2.5986
11747TIP3    H256733   4.328   1.647  16.659  0.6031  1.4374  1.0887
11748TIP3   OH256734   4.606   6.773  11.773 -0.4510  0.0028 -0.6022
11748TIP3    H156735   4.547   6.739  11.706  0.4060 -0.7333 -1.0043
11748TIP3    H256736   4.694   6.746  11.744  0.1627  1.6224 -0.3548
11749TIP3   OH256737   2.859   3.968  16.474 -0.1918  0.8199 -0.4174
11749TIP3    H156738   2.831   3.956  16.383 -3.1795 -0.8523  0.5609
11749TIP3    H256739   2.790   4.022  16.512  0.4295  0.5804  1.0908
11750TIP3   OH256740   1.950   2.910  10.958 -0.3320 -0.3198  0.3631
11750TIP3    H156741   1.905   2.840  11.005  1.0895 -0.2446  1.9238
11750TIP3    H256742   1.965   2.874  10.871 -1.6317 -1.0698  0.4193
11751TIP3   OH256743   4.657   3.605  16.174  0.5625 -0.3346  0.0434
11751TIP3    H156744   4.717   3.638  16.107  1.9859 -0.9616  0.9654
11751TIP3    H256745   4.712   3.589  16.250 -0.3102 -3.2621  0.1917
11752TIP3   OH256746   4.327   6.266   3.997 -0.3623  0.3280 -0.2164
11752TIP3    H156747   4.325   6.236   4.088 -0.9949  0.5034 -0.1693
11752TIP3    H256748   4.335   6.361   4.002 -0.1926  0.3211 -0.3448
11753TIP3   OH256749   2.896   3.078  16.379 -0.0740 -0.1875 -0.2759
11753TIP3    H156750   2.805   3.106  16.378  0.1092  0.4032 -1.2144
11753TIP3    H256751   2.893   2.985  16.357 -0.4786 -0.2781  0.1517
11754TIP3   OH256752   4.355   3.137  12.401 -0.5136 -0.1971  0.1850
11754TIP3    H156753   4.323   3.167  12.486  1.1161  1.6647  0.2444
11754TIP3    H256754   4.412   3.063  12.421 -1.1448 -0.5947  0.5478
11755TIP3   OH256755   4.743   4.711   0.510  1.0974  0.6215  0.3291
11755TIP3    H156756   4.792   4.753   0.581  0.6798  2.2245 -0.2982
11755TIP3    H256757   4.709   4.783   0.458 -0.8067 -0.4669 -0.0320
11756TIP3   OH256758   4.075   3.987  16.691  0.1175  0.2730 -0.2037
11756TIP3    H156759   4.150   3.954  16.641  0.4874  1.6477 -0.5832
11756TIP3    H256760   3.999   3.942  16.654  0.7403 -1.2087  0.2460
11757TIP3   OH256761   1.321   5.027  14.960 -0.0012 -0.0903 -0.4940
11757TIP3    H156762   1.326   5.116  14.997 -0.1375 -0.2097 -0.1811
11757TIP3    H256763   1.265   4.979  15.022  1.7401 -0.9608  0.4727
11758TIP3   OH256764   6.792   1.496  13.781  0.3638 -0.5255 -0.4680
11758TIP3    H156765   6.740   1.575  13.769  1.0844  0.4709  2.1585
11758TIP3    H256766   6.870   1.510  13.727 -0.3145 -0.2650 -1.3934
11759TIP3   OH256767   3.658   5.365  13.044  0.8792  0.0541  0.3906
11759TIP3    H156768   3.728   5.410  13.092  0.2907  0.4660  0.8857
11759TIP3    H256769   3.592   5.433  13.031  1.1847  0.0623 -1.3758
11760TIP3   OH256770   6.775   6.526  12.175  0.1193 -0.2049  0.1496
11760TIP3    H156771   6.775   6.551  12.267 -1.0957 -1.5773  0.5437
11760TIP3    H256772   6.684   6.504  12.155  0.5864 -1.2166 -1.0224
11761TIP3   OH256773   5.467   1.762   1.065 -0.1473  0.6075  0.2518
11761TIP3    H156774   5.401   1.699   1.036 -0.8706  0.5917  1.8447
11761TIP3    H256775   5.546   1.710   1.078  0.2046  0.6106 -1.5762
11762TIP3   OH256776   6.627   2.965   4.708 -0.5070 -0.2937  0.3231
11762TIP3    H156777   6.559   2.911   4.666 -0.8360  1.1581 -1.1147
11762TIP3    H256778   6.627   3.046   4.658  1.4246  0.2476  1.1235
11763TIP3   OH256779   1.464   3.076   4.929 -0.6781 -0.9777 -0.1803
11763TIP3    H156780   1.399   3.124   4.980  1.9786  2.6505  0.2199
11763TIP3    H256781   1.429   3.074   4.841 -2.2497 -1.0348  0.4167
11764TIP3   OH256782   0.661   6.205  15.754 -0.4729  0.0078 -0.1538
11764TIP3    H156783   0.602   6.256  15.699  0.0116 -0.5396 -1.2110
11764TIP3    H256784   0.649   6.241  15.842 -1.5570  0.6364 -0.5413
11765TIP3   OH256785   2.443   6.680  12.147 -1.2141  0.6190 -0.1484
11765TIP3    H156786   2.415   6.590  12.167 -0.3171  0.0681 -1.2984
11765TIP3    H256787   2.390   6.734  12.206  1.1773 -0.8309  3.7679
11766TIP3   OH256788   5.809   4.247  16.049 -0.2615  0.2701  0.4459
11766TIP3    H156789   5.813   4.306  16.124 -1.8127  1.2324 -0.1846
11766TIP3    H256790   5.720   4.211  16.051 -0.2555  0.1395 -0.7841
11767TIP3   OH256791   4.644   0.384  10.127 -0.5045 -0.2455  0.8698
11767TIP3    H156792   4.699   0.331  10.069  1.2971  0.4662  1.8719
11767TIP3    H256793   4.612   0.323  10.193 -0.1884 -0.4900  0.7976
11768TIP3   OH256794   6.109   1.676   3.357 -0.6383  0.7331 -0.2640
11768TIP3    H156795   6.048   1.604   3.371 -1.0537  1.2244  0.5229
11768TIP3    H256796   6.070   1.728   3.286  0.2381 -0.4238 -1.6328
11769TIP3   OH256797   5.881   6.727   4.816  0.3980 -0.3236  0.4638
11769TIP3    H156798   5.786   6.739   4.826  0.1843  0.6122 -2.0924
11769TIP3    H256799   5.912   6.809   4.779  1.7201 -1.5812 -1.3872
11770TIP3   OH256800   4.128   0.447  15.929  0.2443 -0.1148 -0.0681
11770TIP3    H156801   4.038   0.427  15.901  0.3964 -1.0465  0.0746
11770TIP3    H256802   4.116   0.499  16.009 -0.2157 -2.4777  1.5048
11771TIP3   OH256803   1.978   3.443   5.202  0.3237  0.6860 -0.8836
11771TIP3    H156804   1.998   3.391   5.124  1.1034 -2.3256  1.1164
11771TIP3    H256805   1.898   3.491   5.180  0.0577 -0.6909 -3.2230
11772TIP3   OH256806   1.468   2.765  10.618  0.4597 -0.0591 -0.3891
11772TIP3    H156807   1.462   2.679  10.576  0.6006 -1.4190  2.1392
11772TIP3    H256808   1.469   2.827  10.546 -0.8460 -2.0957 -2.3121
11773TIP3   OH256809   0.772   2.338   5.132  0.0332  0.2271  0.4539
11773TIP3    H156810   0.810   2.418   5.170  1.2260 -0.4689  0.7620
11773TIP3    H256811   0.842   2.273   5.137 -0.9707 -0.8922  0.3325
11774TIP3   OH256812   0.040   1.286  14.645  0.0408 -0.1748  0.2626
11774TIP3    H156813   0.015   1.202  14.608 -0.7417 -0.9856  2.4575
11774TIP3    H256814   0.127   1.272  14.682 -0.1918 -0.1229  0.8508
11775TIP3   OH256815   6.872   2.748   0.371  0.0886  0.3034  0.0794
11775TIP3    H156816   6.850   2.658   0.347 -1.1082  0.3279  0.9901
11775TIP3    H256817   6.953   2.767   0.322 -0.7445 -0.5515 -1.7235
11776TIP3   OH256818   0.989   5.029   6.113 -0.1456 -0.1396 -0.1085
11776TIP3    H156819   1.058   4.967   6.135  0.1210  0.2992  0.2952
11776TIP3    H256820   0.908   4.986   6.142  0.0999 -0.0124  0.7785
11777TIP3   OH256821   1.619   4.101   3.949  0.4546 -0.0282  0.2308
11777TIP3    H156822   1.578   4.038   3.889  1.5317 -1.4505  0.9267
11777TIP3    H256823   1.679   4.151   3.893  1.9597 -1.8018  0.1604
11778TIP3   OH256824   0.932   1.082  16.041 -0.4761  0.0454  0.0231
11778TIP3    H156825   0.858   1.100  15.983 -0.4823 -0.1414 -0.0283
11778TIP3    H256826   0.909   1.000  16.084 -0.5165  0.2343  0.3660
11779TIP3   OH256827   3.071   2.898  15.047 -0.1717  0.3241 -0.0005
11779TIP3    H156828   3.131   2.968  15.021 -0.6051  0.9957  0.7555
11779TIP3    H256829   3.126   2.820  15.051  0.1725  0.4312 -1.6180
11780TIP3   OH256830   0.247   2.920  16.626 -0.2271 -0.2874 -0.5746
11780TIP3    H156831   0.229   2.852  16.561  0.6027  0.1416 -1.2613
11780TIP3    H256832   0.207   2.999  16.589 -0.4184 -0.2056 -0.1951
11781TIP3   OH256833   0.682   5.318   5.363 -0.1590  0.1027  0.2143
11781TIP3    H156834   0.751   5.251   5.365 -1.2669 -1.1509 -1.1289
11781TIP3    H256835   0.677   5.350   5.453  1.2256 -0.7679  0.6322
11782TIP3   OH256836   1.541   1.537  11.788  0.3235  0.2822 -0.5421
11782TIP3    H156837   1.461   1.581  11.819 -0.1825 -1.3535  0.5875
11782TIP3    H256838   1.592   1.521  11.868  0.0256 -2.0315 -0.7611
11783TIP3   OH256839   0.992   1.398  14.199 -0.1920 -0.3259 -0.5270
11783TIP3    H156840   0.959   1.464  14.138 -0.6201 -0.0198  0.0296
11783TIP3    H256841   0.972   1.315  14.156 -0.9156 -0.1254 -0.6013
11784TIP3   OH256842   1.719   2.197  16.621 -0.1094 -0.2822  0.5814
11784TIP3    H156843   1.736   2.171  16.530 -1.2277 -0.1742  0.3202
11784TIP3    H256844   1.671   2.122  16.657 -0.1298 -0.1006  0.9253
11785TIP3   OH256845   1.020   5.335  16.394  0.8331 -0.3510  0.1994
11785TIP3    H156846   0.952   5.400  16.379 -1.1770 -1.8471  2.1346
11785TIP3    H256847   1.096   5.367  16.345 -0.6170  2.4300 -0.4032
11786TIP3   OH256848   6.225   3.813   4.710 -0.4401  0.1635  0.3484
11786TIP3    H156849   6.202   3.841   4.621 -0.2587  1.8709  0.8118
11786TIP3    H256850   6.307   3.764   4.700 -0.2743  0.5843 -0.3887
11787TIP3   OH256851   5.121   4.458  15.160  0.1061 -0.2068 -0.4611
11787TIP3    H156852   5.208   4.429  15.131  0.1310 -1.6261  0.8570
11787TIP3    H256853   5.120   4.552  15.145  1.5504 -0.2945 -1.2814
11788TIP3   OH256854   0.480   4.119   3.664 -0.0430  0.2322  0.0954
11788TIP3    H156855   0.506   4.185   3.599 -0.0292  1.2855  1.1211
11788TIP3    H256856   0.561   4.073   3.685 -0.4777 -1.9070 -2.4774
11789TIP3   OH256857   5.156   5.047   4.278  0.0677  0.0663  0.1710
11789TIP3    H156858   5.077   4.998   4.257 -0.9013  1.9396 -0.8500
11789TIP3    H256859   5.146   5.072   4.370 -0.7648  0.6766 -0.0794
11790TIP3   OH256860   4.791   2.028   4.265  0.4364  0.2487  0.2766
11790TIP3    H156861   4.722   2.077   4.219 -0.8258 -1.9272 -0.3038
11790TIP3    H256862   4.746   1.988   4.339  1.6591  0.7479  1.3117
11791TIP3   OH256863   6.038   3.607   2.885 -0.7259 -0.0877  0.2359
11791TIP3    H156864   6.051   3.519   2.919 -0.5586  0.0373  0.5057
11791TIP3    H256865   5.993   3.653   2.956 -0.8511  0.0295  0.0800
11792TIP3   OH256866   5.680   5.683   5.158 -0.0076  1.0592 -0.2413
11792TIP3    H156867   5.704   5.746   5.090  2.1352  0.7577  0.1813
11792TIP3    H256868   5.713   5.600   5.126 -0.0365  0.7001  0.6413
11793TIP3   OH256869   2.871   0.736  10.077 -0.3467 -0.3509 -0.6342
11793TIP3    H156870   2.793   0.786  10.102 -0.4772 -0.4562 -0.8363
11793TIP3    H256871   2.937   0.762  10.142 -0.9673 -1.3677  0.4534
11794TIP3   OH256872   2.506   4.345  13.274  0.2311 -0.2667  0.1347
11794TIP3    H156873   2.499   4.440  13.281  1.9303 -0.0130 -1.1020
11794TIP3    H256874   2.560   4.330  13.196 -1.6006 -2.3021 -0.8531
11795TIP3   OH256875   4.270   3.966  12.374  0.1594  0.5454 -0.1322
11795TIP3    H156876   4.275   4.006  12.461 -1.2788 -0.1857  0.3104
11795TIP3    H256877   4.256   3.873  12.391  1.4771  0.1281 -1.1604
11796TIP3   OH256878   1.429   1.382  15.262  0.5966 -0.3839 -0.1178
11796TIP3    H156879   1.423   1.421  15.174  0.3953 -0.3884 -0.1062
11796TIP3    H256880   1.339   1.384  15.295  0.8153  0.4209  0.4379
11797TIP3   OH256881   3.847   4.422   5.736 -0.8141 -0.3797 -0.6293
11797TIP3    H156882   3.799   4.489   5.784  1.9711  0.5337  1.0909
11797TIP3    H256883   3.844   4.345   5.793  2.2908  0.6350  1.1110
11798TIP3   OH256884   0.398   1.405  13.872  0.2069 -0.4279 -0.1800
11798TIP3    H156885   0.487   1.441  13.876 -0.0783  0.1841  0.8191
11798TIP3    H256886   0.399   1.349  13.794  0.7091  1.5820 -1.6910
11799TIP3   OH256887   5.013   4.033  11.575 -0.0657 -0.3876 -0.9358
11799TIP3    H156888   5.038   4.019  11.667  1.8978  1.3749 -1.1248
11799TIP3    H256889   5.051   3.959  11.528 -0.4534 -0.9101 -0.4396
11800TIP3   OH256890   4.301   2.436  15.923 -0.1103  0.0379 -0.0716
11800TIP3    H156891   4.369   2.485  15.878 -1.3143  2.6809  0.8117
11800TIP3    H256892   4.341   2.407  16.005  0.3938  0.1946 -0.2639
11801TIP3   OH256893   1.885   6.559   3.958 -0.1906  0.0554  0.3872
11801TIP3    H156894   1.811   6.544   4.017 -1.3793  1.6949 -0.5967
11801TIP3    H256895   1.915   6.648   3.979  0.0522  0.2600 -0.7382
11802TIP3   OH256896   3.864   4.600  16.194 -0.4007  0.0069  0.6864
11802TIP3    H156897   3.829   4.684  16.222 -0.8690 -0.6718  2.2103
11802TIP3    H256898   3.828   4.536  16.255 -0.5307 -1.4105 -0.7813
11803TIP3   OH256899   4.104   1.939   5.973 -0.1025  0.1716 -0.2008
11803TIP3    H156900   4.041   1.963   6.041  1.9484 -1.0835  2.3182
11803TIP3    H256901   4.074   1.853   5.943 -1.7218  1.2474 -1.9482
11804TIP3   OH256902   0.918   0.137  12.985  0.3027  0.4515 -0.5395
11804TIP3    H156903   0.992   0.177  12.940  0.7075  0.6393  0.2866
11804TIP3    H256904   0.873   0.209  13.028 -0.1063  0.2776 -0.6637
11805TIP3   OH256905   4.153   5.515   2.718  0.3734 -0.2206  0.3002
11805TIP3    H156906   4.174   5.482   2.805  0.1857  1.2285  0.9319
11805TIP3    H256907   4.161   5.610   2.726  0.7334 -0.0799 -1.3729
11806TIP3   OH256908   0.479   0.357   5.901  0.3916  0.6354 -0.2326
11806TIP3    H156909   0.454   0.342   5.992 -0.8172  0.6655 -0.5340
11806TIP3    H256910   0.453   0.276   5.856  0.4714  0.8372 -0.6457
11807TIP3   OH256911   3.704   3.368   3.390 -0.3153 -0.3221  0.2220
11807TIP3    H156912   3.662   3.443   3.350 -0.6966  0.5580  2.1605
11807TIP3    H256913   3.657   3.292   3.355 -0.8778  0.4218 -0.6571
11808TIP3   OH256914   4.322   2.059   0.129  0.3209 -0.3875  0.0462
11808TIP3    H156915   4.331   2.024   0.217  0.9763  0.2771  0.2545
11808TIP3    H256916   4.394   2.122   0.120  0.0913 -0.2285 -0.8559
11809TIP3   OH256917   4.036   4.174   5.558  0.2329  0.0990 -0.5527
11809TIP3    H156918   3.968   4.116   5.523  0.7131 -0.5178 -0.4865
11809TIP3    H256919   4.108   4.167   5.494 -0.1235  1.5036 -1.1423
11810TIP3   OH256920   5.608   2.644   4.050  0.1802  0.1251 -0.0530
11810TIP3    H156921   5.536   2.677   4.104  1.3906 -0.9971  2.4411
11810TIP3    H256922   5.586   2.552   4.034  0.3164  0.1882 -0.6190
11811TIP3   OH256923   0.670   6.603   0.786 -0.1071 -0.5271  0.2144
11811TIP3    H156924   0.600   6.646   0.737 -0.2418 -0.8914  0.0825
11811TIP3    H256925   0.698   6.531   0.729  0.1813 -0.5539  0.3895
11812TIP3   OH256926   2.613   5.101   4.698 -0.6269 -0.2100 -0.0655
11812TIP3    H156927   2.600   5.111   4.792 -1.5300  1.2184 -0.3030
11812TIP3    H256928   2.526   5.081   4.663 -0.0090 -2.5272 -0.4414
11813TIP3   OH256929   0.564   6.076   0.567 -0.3193 -0.0500 -0.1195
11813TIP3    H156930   0.530   6.014   0.502 -0.8006 -0.7532  0.7835
11813TIP3    H256931   0.510   6.062   0.644  1.7467 -0.9003  1.2390
11814TIP3   OH256932   3.932   5.620   6.100  0.6593  0.2689 -1.4082
11814TIP3    H156933   3.961   5.668   6.178 -1.0976  0.9814 -1.1401
11814TIP3    H256934   3.848   5.582   6.126  0.3909 -0.0842 -2.7368
11815TIP3   OH256935   6.569   1.858   0.515  0.0106  0.4926  0.1572
11815TIP3    H156936   6.583   1.847   0.609 -0.8845  0.1371  0.2548
11815TIP3    H256937   6.613   1.940   0.494  1.9832 -0.4276  0.4933
11816TIP3   OH256938   6.700   5.031   5.597  0.7234  0.6215  0.1228
11816TIP3    H156939   6.780   4.981   5.577  1.5739  1.3958  1.4692
11816TIP3    H256940   6.731   5.109   5.643 -0.8336  0.7975  0.9422
11817TIP3   OH256941   0.530   6.280  11.204 -0.4521  0.3662 -0.0060
11817TIP3    H156942   0.481   6.328  11.271  0.1631  0.8391  0.1153
11817TIP3    H256943   0.557   6.347  11.141  1.7254  0.4802  0.9582
11818TIP3   OH256944   4.089   3.024   3.862 -0.4042  0.1208 -0.0857
11818TIP3    H156945   4.027   3.093   3.886 -0.2328  0.7172 -1.2782
11818TIP3    H256946   4.143   3.013   3.940 -0.7982  0.9419  0.3174
11819TIP3   OH256947   5.112   1.444  13.397  0.6415  0.1753  0.3391
11819TIP3    H156948   5.196   1.404  13.377  0.8161  0.9161 -0.4397
11819TIP3    H256949   5.050   1.398  13.340  0.8387  0.9639 -0.5383
11820TIP3   OH256950   4.527   1.938  13.193  0.5698 -0.0496 -0.2144
11820TIP3    H156951   4.560   1.959  13.280 -1.2929 -1.2941  0.8567
11820TIP3    H256952   4.444   1.986  13.187  0.0807 -0.9520 -0.7997
11821TIP3   OH256953   0.333   3.039  16.176  0.0716  0.1486 -0.1790
11821TIP3    H156954   0.321   3.126  16.215 -1.1456 -0.3010  0.5140
11821TIP3    H256955   0.420   3.042  16.137  0.1658  1.5857  0.0766
11822TIP3   OH256956   0.585   3.416  12.567  0.3758 -0.2066 -0.1627
11822TIP3    H156957   0.646   3.410  12.640  3.0200 -1.7254 -2.3286
11822TIP3    H256958   0.506   3.371  12.598  2.0376 -2.3652  1.2233
11823TIP3   OH256959   2.732   4.026  13.164 -0.4378  0.3318  0.5891
11823TIP3    H156960   2.653   3.989  13.203 -2.5927  0.4991 -3.1293
11823TIP3    H256961   2.716   4.121  13.164 -0.2537  0.3665 -0.1657
11824TIP3   OH256962   6.139   1.244  16.498 -0.8465  0.4970 -0.0226
11824TIP3    H156963   6.049   1.273  16.487 -1.0023  0.4558  1.0434
11824TIP3    H256964   6.144   1.214  16.589 -0.1106 -0.7357 -0.4365
11825TIP3   OH256965   0.227   6.705  10.550  0.2030  0.2691 -0.2778
11825TIP3    H156966   0.266   6.736  10.632 -1.3068  0.1851  0.5126
11825TIP3    H256967   0.250   6.613  10.546 -1.2187 -0.1920  1.0294
11826TIP3   OH256968   4.402   0.767   1.479  0.6157  0.3691  0.3129
11826TIP3    H156969   4.482   0.714   1.482  0.2158 -0.2515  0.1329
11826TIP3    H256970   4.339   0.713   1.432  0.0078  0.7464  0.6766
11827TIP3   OH256971   4.040   0.769  10.323  0.1735  0.3708 -0.3264
11827TIP3    H156972   3.972   0.731  10.266 -1.3090 -0.0887  1.6432
11827TIP3    H256973   4.071   0.845  10.275 -1.1834  0.1489 -1.6525
11828TIP3   OH256974   1.286   3.339  13.283 -0.3721 -0.1715  0.1761
11828TIP3    H156975   1.345   3.338  13.209  1.0363  0.8628  1.2324
11828TIP3    H256976   1.256   3.430  13.289  0.3568  0.0034  1.4746
11829TIP3   OH256977   2.854   1.356   3.126  0.0892  0.3463 -0.2483
11829TIP3    H156978   2.821   1.319   3.045 -3.6046 -0.8460  1.5699
11829TIP3    H256979   2.929   1.301   3.150 -0.9123 -1.4673 -1.1505
11830TIP3   OH256980   3.394   5.626  10.389 -0.0846  0.5009 -0.1275
11830TIP3    H156981   3.322   5.623  10.326  0.2541  0.3571 -0.5132
11830TIP3    H256982   3.450   5.698  10.358  1.0436 -0.7219 -1.0600
11831TIP3   OH256983   1.476   5.831   3.208  0.2460 -0.1775 -0.6490
11831TIP3    H156984   1.521   5.915   3.201  0.2630 -0.1762 -0.5261
11831TIP3    H256985   1.397   5.850   3.259  1.6169 -0.7485  1.8950
11832TIP3   OH256986   4.264   4.759  16.250 -0.2692 -0.2710  0.0284
11832TIP3    H156987   4.208   4.694  16.292 -1.6133 -0.2274 -1.5724
11832TIP3    H256988   4.352   4.720  16.251 -0.7856 -1.4604  0.3829
11833TIP3   OH256989   0.702   6.235   2.830  0.7296 -0.3775 -0.5082
11833TIP3    H156990   0.732   6.309   2.884  1.4828  0.1566 -1.6310
11833TIP3    H256991   0.690   6.164   2.893  2.5880 -0.0752  0.2741
11834TIP3   OH256992   1.955   2.083  14.324  0.0943  0.0011  0.1485
11834TIP3    H156993   1.982   2.105  14.413  3.7110 -1.1409 -0.4930
11834TIP3    H256994   1.956   1.987  14.322  1.5103  0.0039 -1.4198
11835TIP3   OH256995   1.390   1.425  16.326 -0.1982  0.0333  0.2245
11835TIP3    H156996   1.453   1.484  16.368 -1.6885 -0.0205  2.7743
11835TIP3    H256997   1.317   1.481  16.301  1.0428  0.2584 -3.5584
11836TIP3   OH256998   6.608   6.370  14.743  0.0934 -0.3559  0.6492
11836TIP3    H156999   6.560   6.396  14.822 -0.5492  0.0226  0.1447
11836TIP3    H257000   6.679   6.314  14.776  2.1705  2.7309  1.9299
11837TIP3   OH257001   0.277   1.574  15.491  0.4665  0.9243 -0.2236
11837TIP3    H157002   0.189   1.563  15.528  0.2868 -0.6872 -1.0412
11837TIP3    H257003   0.320   1.636  15.550 -0.7265  0.5941  1.0533
11838TIP3   OH257004   3.639   6.888   1.228  0.0670 -0.2744 -0.3987
11838TIP3    H157005   3.667   6.979   1.237 -1.2189  0.1425 -0.3788
11838TIP3    H257006   3.714   6.836   1.258  0.5270  0.7867  0.3337
11839TIP3   OH257007   5.835   3.296   3.084  0.1639  0.1735  0.3283
11839TIP3    H157008   5.836   3.260   2.995  0.2732  0.8610  0.0405
11839TIP3    H257009   5.759   3.355   3.085  0.2156  0.2354  0.6630
11840TIP3   OH257010   6.875   3.876   5.259 -0.5446  0.7129  0.0079
11840TIP3    H157011   6.862   3.924   5.341  0.2657  0.2327  0.4408
11840TIP3    H257012   6.815   3.916   5.197 -3.2923 -0.7140  1.5507
11841TIP3   OH257013   3.767   5.148   6.266 -0.2456  0.1453  0.0877
11841TIP3    H157014   3.826   5.096   6.211  0.4842  1.3660 -0.3181
11841TIP3    H257015   3.686   5.155   6.215  0.1843  0.6762 -0.5312
11842TIP3   OH257016   3.051   4.898   3.520 -0.0540  0.6974  0.1779
11842TIP3    H157017   3.026   4.811   3.550  0.7236  0.5611  0.4666
11842TIP3    H257018   3.118   4.926   3.583  1.0221  0.7482 -0.9548
11843TIP3   OH257019   5.405   2.995  11.426  0.3460  0.7140  0.4576
11843TIP3    H157020   5.389   2.971  11.517  1.3229  0.5065  0.5811
11843TIP3    H257021   5.469   2.932  11.395 -0.3600  0.4627 -0.5416
11844TIP3   OH257022   5.946   0.262  12.487 -0.2311  0.0911  0.8067
11844TIP3    H157023   5.939   0.182  12.434  0.6187  0.0333  0.7601
11844TIP3    H257024   5.980   0.231  12.571  0.0882  0.4054  0.7916
11845TIP3   OH257025   1.210   4.949   5.399  0.3927  0.2871  0.0321
11845TIP3    H157026   1.240   5.037   5.376 -1.2350  1.3792  1.8491
11845TIP3    H257027   1.269   4.922   5.469  0.5360  0.1285 -0.1455
11846TIP3   OH257028   2.456   1.655   6.230  0.5103 -0.2820 -0.1417
11846TIP3    H157029   2.395   1.606   6.176  0.9112  0.5601 -1.4154
11846TIP3    H257030   2.471   1.600   6.307 -1.5626 -0.6531  0.0550
11847TIP3   OH257031   0.273   4.292  11.683 -0.1236  0.3714  0.2951
11847TIP3    H157032   0.251   4.355  11.751 -0.6310  1.7727 -1.1115
11847TIP3    H257033   0.337   4.234  11.724  0.2913  1.7329  1.6643
11848TIP3   OH257034   2.125   6.363  14.847 -0.0696 -0.2673  0.4751
11848TIP3    H157035   2.155   6.289  14.900 -1.8362 -0.1528  1.6956
11848TIP3    H257036   2.053   6.328  14.795 -1.7811  0.8335  1.9975
11849TIP3   OH257037   4.056   2.564   1.630 -0.0825  0.8484 -0.0713
11849TIP3    H157038   4.016   2.508   1.696 -1.3130  1.3710 -0.3503
11849TIP3    H257039   4.091   2.638   1.679 -2.7156  2.2289 -0.1188
11850TIP3   OH257040   0.954   4.614   1.669 -0.1207  0.1536  0.3131
11850TIP3    H157041   0.997   4.673   1.607  0.0889 -0.3901 -0.0670
11850TIP3    H257042   0.900   4.558   1.614  1.2285 -1.3402  0.4427
11851TIP3   OH257043   6.321   1.884   3.194 -0.0123  0.3254  0.0751
11851TIP3    H157044   6.280   1.938   3.262 -1.5383  0.7598 -1.1246
11851TIP3    H257045   6.283   1.797   3.206  1.4569 -0.2060  1.1797
11852TIP3   OH257046   1.103   4.579   6.099  0.3322 -0.3047  0.0711
11852TIP3    H157047   1.041   4.629   6.153  1.4156  2.1807 -0.8090
11852TIP3    H257048   1.058   4.566   6.016  0.5875  0.6382 -0.2303
11853TIP3   OH257049   2.372   3.870   2.400  0.0469 -0.0089  0.0904
11853TIP3    H157050   2.450   3.869   2.456  1.0950 -0.3010 -1.2900
11853TIP3    H257051   2.336   3.958   2.410 -0.0773 -0.2121  1.5695
11854TIP3   OH257052   1.480   2.657   2.208 -0.1490  0.4219 -0.0902
11854TIP3    H157053   1.544   2.712   2.253 -0.2774 -1.2376  2.2836
11854TIP3    H257054   1.399   2.708   2.212  0.1348  0.8432  0.4472
11855TIP3   OH257055   3.946   3.094  13.294  0.8321 -0.3531 -0.1955
11855TIP3    H157056   4.032   3.060  13.271  0.7948 -0.5434 -0.0608
11855TIP3    H257057   3.947   3.098  13.390  0.4700 -0.9425 -0.1666
11856TIP3   OH257058   3.020   2.629   5.680  0.2358 -0.1061  0.3040
11856TIP3    H157059   2.964   2.667   5.748  0.0804 -0.8448  0.5927
11856TIP3    H257060   3.078   2.701   5.654  0.6682  0.0452  1.6012
11857TIP3   OH257061   4.526   5.481   4.266 -0.0926 -0.1294  0.1331
11857TIP3    H157062   4.528   5.389   4.237 -2.2555 -0.2881  0.2880
11857TIP3    H257063   4.566   5.479   4.353 -1.1780 -1.1744  0.6413
11858TIP3   OH257064   0.030   6.183  13.717 -0.2644  0.5159  0.0373
11858TIP3    H157065   0.059   6.209  13.804  0.2256 -2.7561  1.0020
11858TIP3    H257066   0.102   6.206  13.659  0.2758  0.8854  0.8494
11859TIP3   OH257067   1.040   0.335   0.007 -0.0901 -0.7102  0.0502
11859TIP3    H157068   1.111   0.323  -0.056 -0.8989 -1.3814 -0.7639
11859TIP3    H257069   1.072   0.292   0.086  0.4967 -0.8346 -0.2396
11860TIP3   OH257070   1.253   4.830  16.265 -0.0270  0.0645 -0.2676
11860TIP3    H157071   1.323   4.862  16.322 -2.0499  1.3499  1.6421
11860TIP3    H257072   1.195   4.906  16.254  0.2030 -0.1344 -4.0663
11861TIP3   OH257073   5.891   2.222  15.178  0.1771 -0.3911  0.1270
11861TIP3    H157074   5.828   2.253  15.113  0.5002 -0.0982 -0.0481
11861TIP3    H257075   5.837   2.194  15.252 -0.1450  0.1256  0.0931
11862TIP3   OH257076   5.887   6.095  11.730 -0.4940 -0.1320 -0.2153
11862TIP3    H157077   5.916   6.112  11.820  0.2597  1.4503 -0.7156
11862TIP3    H257078   5.824   6.023  11.738  1.3736 -1.7209  1.2894
11863TIP3   OH257079   2.974   4.280   4.753 -0.1575  0.0903 -0.0663
11863TIP3    H157080   2.961   4.345   4.684 -3.3882 -0.3030  0.0129
11863TIP3    H257081   2.938   4.199   4.716  0.8086 -0.8850  1.0354
11864TIP3   OH257082   0.776   2.995  16.813  0.2282 -0.0923 -0.8882
11864TIP3    H157083   0.687   2.998  16.849  1.5536  0.5178  2.7881
11864TIP3    H257084   0.806   3.086  16.815  2.1975 -0.6729  1.8811
11865TIP3   OH257085   2.670   6.585   5.243 -0.6853  0.1184 -0.9267
11865TIP3    H157086   2.699   6.534   5.319 -1.0815  0.9350 -0.2127
11865TIP3    H257087   2.597   6.534   5.207 -2.6668  1.2535  1.1936
11866TIP3   OH257088   0.700   3.750  14.735  0.1523  0.6795 -0.5422
11866TIP3    H157089   0.795   3.746  14.744  0.2285 -2.7504 -1.4230
11866TIP3    H257090   0.670   3.789  14.817  2.2386 -0.7357  1.0153
11867TIP3   OH257091   2.318   6.407  14.606 -0.3578  0.3836  0.0259
11867TIP3    H157092   2.366   6.346  14.549 -0.8823  0.5624 -0.6277
11867TIP3    H257093   2.250   6.353  14.647 -0.0450  0.2761  0.4088
11868TIP3   OH257094   4.867   1.356   1.461  0.0210 -0.4171  0.2168
11868TIP3    H157095   4.954   1.322   1.484 -1.1632 -2.4998  2.0013
11868TIP3    H257096   4.814   1.278   1.444 -1.3147  0.8393 -1.7088
11869TIP3   OH257097   4.220   6.829   4.910  0.1597 -0.4183  0.8911
11869TIP3    H157098   4.284   6.901   4.915  0.5569 -0.7364  0.4940
11869TIP3    H257099   4.168   6.850   4.832  1.3241 -1.3910 -0.1907
11870TIP3   OH257100   4.286   4.504  10.841 -0.9424  0.0110  0.2340
11870TIP3    H157101   4.370   4.538  10.810 -0.0788 -1.1686  1.1639
11870TIP3    H257102   4.222   4.569  10.813  0.1457  0.4289 -1.4042
11871TIP3   OH257103   3.992   1.934  14.114 -0.0111 -0.4149  1.0475
11871TIP3    H157104   3.970   1.844  14.087 -0.0782 -0.2167  0.4082
11871TIP3    H257105   3.959   1.988  14.042  0.5974  0.0695  1.1243
11872TIP3   OH257106   2.164   1.244  15.374  0.0389 -0.0051 -0.3256
11872TIP3    H157107   2.223   1.198  15.314 -0.0283 -1.2536  0.5156
11872TIP3    H257108   2.089   1.268  15.320  0.0557 -0.9594 -0.8036
11873TIP3   OH257109   1.451   3.666  11.684  0.5425 -0.0185  0.3042
11873TIP3    H157110   1.479   3.729  11.619 -1.4240 -1.3598 -1.9738
11873TIP3    H257111   1.532   3.618  11.706  0.9818 -0.9253 -2.7989
11874TIP3   OH257112   0.584   5.824  15.571  0.2904  0.4751 -0.1426
11874TIP3    H157113   0.600   5.819  15.666  1.6262  0.2717 -0.3571
11874TIP3    H257114   0.620   5.742  15.537 -0.4707  0.4027 -0.7990
11875TIP3   OH257115   5.141   2.221   6.212 -0.2177  0.1733 -0.4524
11875TIP3    H157116   5.116   2.129   6.198 -1.0223  0.5706 -1.8091
11875TIP3    H257117   5.234   2.217   6.238  0.3784 -0.9186 -2.5510
11876TIP3   OH257118   1.533   0.703  15.508 -0.1593 -0.2724 -0.1448
11876TIP3    H157119   1.506   0.768  15.443 -1.6512 -0.0618  0.6288
11876TIP3    H257120   1.454   0.688  15.560  0.9399 -0.5799  1.4961
11877TIP3   OH257121   3.847   2.163  16.255 -0.1693  0.1605  0.0685
11877TIP3    H157122   3.852   2.228  16.325  2.1336 -0.6100  0.7055
11877TIP3    H257123   3.814   2.211  16.179 -0.0379  1.6724  0.9399
11878TIP3   OH257124   1.054   1.918  14.094  0.0571 -0.3025 -0.1950
11878TIP3    H157125   0.972   1.891  14.136  0.2345 -0.3343  0.1345
11878TIP3    H257126   1.080   1.998  14.140  0.2107 -0.2909 -0.3000
11879TIP3   OH257127   3.845   6.224   4.811 -0.3944  0.2463  0.5867
11879TIP3    H157128   3.756   6.256   4.827 -0.5059  0.8133 -0.9833
11879TIP3    H257129   3.879   6.203   4.898 -2.1381 -0.2040  1.1934
11880TIP3   OH257130   6.432   5.221  11.230  0.4015 -0.1505 -0.0864
11880TIP3    H157131   6.418   5.163  11.155  0.2656 -0.3057  0.0577
11880TIP3    H257132   6.526   5.217  11.246  0.4875  0.1578 -0.4675
11881TIP3   OH257133   1.881   4.538   1.126 -0.3732  0.2818  0.2164
11881TIP3    H157134   1.885   4.523   1.221 -1.9814 -0.1633  0.2545
11881TIP3    H257135   1.847   4.627   1.117  0.2437  0.5009  0.0559
11882TIP3   OH257136   1.569   5.406  12.055  0.3511  0.0604  0.0022
11882TIP3    H157137   1.574   5.377  11.964 -0.3136  1.9933 -0.7171
11882TIP3    H257138   1.475   5.405  12.076  0.6192 -2.7918  1.5948
11883TIP3   OH257139   0.307   4.814   4.702 -0.0546  0.0505  0.5466
11883TIP3    H157140   0.220   4.847   4.679  0.3275  1.3594  0.8491
11883TIP3    H257141   0.360   4.833   4.625  0.2141  0.2978  0.7920
11884TIP3   OH257142   4.614   5.980  12.694 -0.6020 -0.1085 -0.2318
11884TIP3    H157143   4.526   5.982  12.658  0.2730 -0.5978 -2.5246
11884TIP3    H257144   4.628   5.888  12.720 -0.6015 -0.1255 -0.2938
11885TIP3   OH257145   6.269   5.444  11.014 -0.4593  0.2774 -0.0571
11885TIP3    H157146   6.209   5.431  10.940 -0.8649 -0.6187  0.4092
11885TIP3    H257147   6.213   5.441  11.091  0.1546 -0.3319  0.3750
11886TIP3   OH257148   2.063   4.970  11.392  0.5371 -0.1862 -0.3074
11886TIP3    H157149   2.151   5.009  11.390  1.3791 -1.9553 -0.0280
11886TIP3    H257150   2.049   4.948  11.485  1.0486 -2.4928 -0.7181
11887TIP3   OH257151   4.459   6.442  10.741 -0.4902 -0.4062  0.3167
11887TIP3    H157152   4.542   6.435  10.788 -0.5133  0.4062  0.4903
11887TIP3    H257153   4.485   6.442  10.648 -0.4249 -1.7060  0.3207
11888TIP3   OH257154   6.709   4.703  13.416  0.3274  0.9855  0.7847
11888TIP3    H157155   6.650   4.778  13.410 -0.5454  0.2345 -0.5880
11888TIP3    H257156   6.654   4.633  13.453  0.9716  0.8475  1.5091
11889TIP3   OH257157   3.235   0.424  15.797  0.1816 -0.4485 -0.1568
11889TIP3    H157158   3.258   0.359  15.863  2.5224 -1.0185 -1.4202
11889TIP3    H257159   3.274   0.505  15.830 -1.2138 -0.0414  0.5568
11890TIP3   OH257160   6.412   3.725   2.063 -0.0050 -0.0495 -0.0659
11890TIP3    H157161   6.355   3.649   2.074 -1.9956  1.1143 -1.5849
11890TIP3    H257162   6.500   3.689   2.059 -0.7761 -2.1301  0.5252
11891TIP3   OH257163   5.074   3.867   0.213  0.2216 -0.3375 -0.3624
11891TIP3    H157164   5.015   3.881   0.139  0.0694  0.8009 -0.0397
11891TIP3    H257165   5.072   3.949   0.262  1.1201 -0.7116  0.3402
11892TIP3   OH257166   4.725   1.066   1.073  0.6465 -0.0148 -0.5934
11892TIP3    H157167   4.630   1.049   1.070  0.6298 -0.1454  0.3314
11892TIP3    H257168   4.764   0.979   1.072  0.8238  0.0496 -2.1544
11893TIP3   OH257169   5.123   0.467   0.679 -0.5293  0.0722 -0.5306
11893TIP3    H157170   5.094   0.480   0.589  0.2441  0.0961 -0.7832
11893TIP3    H257171   5.180   0.542   0.697 -1.3385  0.5143  0.2662
11894TIP3   OH257172   6.774   1.377  14.932  0.2811 -0.1500  1.0332
11894TIP3    H157173   6.838   1.310  14.910 -0.4696 -0.6167  0.2109
11894TIP3    H257174   6.719   1.385  14.854  1.6046  2.9285  0.2321
11895TIP3   OH257175   4.484   0.069  11.523 -0.1906 -0.1273 -0.1150
11895TIP3    H157176   4.465   0.112  11.439  1.4142  4.3752  1.5406
11895TIP3    H257177   4.411   0.094  11.579  0.0192 -0.9922  0.5654
11896TIP3   OH257178   4.389   4.941  16.728 -0.1706 -0.0630  0.2258
11896TIP3    H157179   4.341   5.019  16.700 -1.0874 -0.4273  0.7367
11896TIP3    H257180   4.463   4.935  16.668 -0.3366  0.9506 -0.0933
11897TIP3   OH257181   1.920   3.743   5.487 -0.3421 -0.0674  0.1695
11897TIP3    H157182   1.863   3.666   5.485  0.9143 -1.1470 -3.3419
11897TIP3    H257183   1.982   3.725   5.558  0.7980 -3.1746 -1.3853
11898TIP3   OH257184   4.935   5.481   3.663  0.3296 -0.3010 -0.3765
11898TIP3    H157185   4.990   5.446   3.733 -0.5781 -0.8345  0.0873
11898TIP3    H257186   4.960   5.573   3.657  0.1778 -0.1611  0.8945
11899TIP3   OH257187   1.109   0.684   3.359  0.1712 -0.4162  0.0303
11899TIP3    H157188   1.020   0.718   3.370  0.4422  0.7520 -1.1430
11899TIP3    H257189   1.102   0.623   3.286  0.6882  1.2805 -1.5061
11900TIP3   OH257190   1.823   0.228   2.802 -0.3114 -0.6170 -0.0651
11900TIP3    H157191   1.807   0.205   2.893 -0.7610 -1.8159 -0.4312
11900TIP3    H257192   1.799   0.150   2.752  3.0317 -1.2069 -0.9925
11901TIP3   OH257193   4.125   0.845  13.327  0.5870  0.0427  0.1784
11901TIP3    H157194   4.097   0.800  13.406  0.9473  0.5342  0.5860
11901TIP3    H257195   4.123   0.777  13.259  1.3719 -0.6485  0.8386
11902TIP3   OH257196   0.958   1.398   0.103  0.5803  0.1387  0.0320
11902TIP3    H157197   1.043   1.389   0.060 -0.2781  0.0053 -1.7295
11902TIP3    H257198   0.957   1.328   0.169  2.5176  1.2827  1.3881
11903TIP3   OH257199   0.699   2.517   3.867 -0.2600 -0.0420 -0.2091
11903TIP3    H157200   0.764   2.452   3.894 -0.2862 -0.3008 -0.7671
11903TIP3    H257201   0.631   2.511   3.934  0.4193  0.4419  0.5474
11904TIP3   OH257202   4.371   6.493  16.290 -0.8942  0.3970  0.2699
11904TIP3    H157203   4.454   6.510  16.335  0.2942 -1.7653 -0.9322
11904TIP3    H257204   4.345   6.406  16.321 -1.0192 -0.3271 -1.7085
11905TIP3   OH257205   2.146   4.181   0.418  1.0528 -0.0477  0.1893
11905TIP3    H157206   2.125   4.120   0.347 -0.6778  1.3949 -0.6180
11905TIP3    H257207   2.190   4.127   0.484  0.9839 -1.8294 -1.1526
11906TIP3   OH257208   0.115   1.631   1.302  0.1390  0.3451 -0.6170
11906TIP3    H157209   0.188   1.681   1.265  0.2997 -0.0298 -0.8080
11906TIP3    H257210   0.039   1.657   1.249 -0.0616  1.4249  0.1519
11907TIP3   OH257211   4.399   5.153  11.797 -0.0071 -0.1546 -0.5737
11907TIP3    H157212   4.345   5.228  11.820  0.9106  0.5241 -0.5569
11907TIP3    H257213   4.339   5.091  11.756 -0.4043  1.5753 -2.8280
11908TIP3   OH257214   0.162   3.090   2.913 -0.4294  0.2217  0.4822
11908TIP3    H157215   0.088   3.118   2.967 -1.9173 -0.7795 -0.9693
11908TIP3    H257216   0.170   3.157   2.845  1.0874  1.1789  1.5152
11909TIP3   OH257217   1.696   2.233   5.080  0.1958 -0.0919 -0.7093
11909TIP3    H157218   1.673   2.284   5.002 -0.5557 -1.6470 -1.5503
11909TIP3    H257219   1.778   2.189   5.056  0.8173  0.6669 -0.0089
11910TIP3   OH257220   2.044   2.423   5.603  0.5084 -0.4455  0.0139
11910TIP3    H157221   2.009   2.386   5.684  1.0508 -1.7014 -0.2893
11910TIP3    H257222   2.027   2.355   5.537  2.4528 -0.6180 -0.3699
11911TIP3   OH257223   0.676   2.543   3.160  0.2354 -0.6279 -0.3873
11911TIP3    H157224   0.648   2.452   3.169 -1.3257  0.0677  2.8606
11911TIP3    H257225   0.602   2.588   3.120  0.0258 -0.3270  0.3362
11912TIP3   OH257226   4.445   4.362   1.872 -0.3838  0.1090  0.4871
11912TIP3    H157227   4.349   4.361   1.878 -0.8358  0.4895 -3.7034
11912TIP3    H257228   4.471   4.442   1.917 -1.8086 -0.5453  2.6903
11913TIP3   OH257229   0.714   0.261  12.721  0.7209 -0.3122 -0.2091
11913TIP3    H157230   0.727   0.244  12.628  2.7465  1.1344 -0.2498
11913TIP3    H257231   0.705   0.174  12.760 -3.0013 -0.9558 -2.0015
11914TIP3   OH257232   4.893   1.823   1.233  0.0428 -0.3201 -0.5675
11914TIP3    H157233   4.857   1.738   1.261 -0.1290 -1.0389 -2.8218
11914TIP3    H257234   4.840   1.888   1.280  0.4312 -1.4043  1.5182
11915TIP3   OH257235   2.699   0.654  15.066  0.2745  0.2442  0.2985
11915TIP3    H157236   2.768   0.607  15.019  1.0977  1.0522  0.6387
11915TIP3    H257237   2.621   0.600  15.057  0.1110  0.7875 -2.8209
11916TIP3   OH257238   0.072   5.301  10.909  0.0540  0.7447 -0.5737
11916TIP3    H157239   0.101   5.308  11.000 -2.1589  1.6067  0.1260
11916TIP3    H257240   0.132   5.357  10.860  1.8866 -0.4909  0.1615
11917TIP3   OH257241   3.999   5.526   0.544 -0.2545  0.2073  0.3078
11917TIP3    H157242   4.039   5.485   0.622 -2.0577 -0.2158  1.0569
11917TIP3    H257243   3.968   5.452   0.492 -2.1477  0.5169  0.9121
11918TIP3   OH257244   5.346   0.751  14.913  0.0274 -1.0834  0.3724
11918TIP3    H157245   5.422   0.807  14.902  0.2401 -1.2821  0.7909
11918TIP3    H257246   5.301   0.786  14.990  1.0340 -2.4238  1.6343
11919TIP3   OH257247   1.892   1.469  12.152  0.1505 -0.2274  0.3876
11919TIP3    H157248   1.948   1.429  12.086  0.0410  2.5145 -1.5474
11919TIP3    H257249   1.951   1.521  12.206 -0.2302  1.1094 -0.4335
11920TIP3   OH257250   4.508   3.553  16.551 -0.1901  0.6623 -0.6401
11920TIP3    H157251   4.515   3.468  16.508 -0.0870  1.1830 -1.6909
11920TIP3    H257252   4.587   3.559  16.605 -0.1405  0.1467 -0.6460
11921TIP3   OH257253   3.152   4.539   0.499 -0.1504  0.1685 -0.1484
11921TIP3    H157254   3.061   4.521   0.521  0.7887 -2.0465  2.5308
11921TIP3    H257255   3.172   4.621   0.543 -0.7652  0.5836 -0.6192
11922TIP3   OH257256   5.248   2.737  12.519  0.2976 -0.1373 -0.9297
11922TIP3    H157257   5.242   2.796  12.443 -2.1512 -0.4842 -1.0754
11922TIP3    H257258   5.249   2.649  12.481 -0.2862 -0.2890 -0.6096
11923TIP3   OH257259   0.567   0.037   0.602 -0.2784  0.4565 -0.2449
11923TIP3    H157260   0.568   0.058   0.695  1.0352  0.5194 -0.2508
11923TIP3    H257261   0.641   0.086   0.566 -0.9965  0.7345 -1.3941
11924TIP3   OH257262   3.658   5.174   4.195 -0.2762 -0.2284  0.5291
11924TIP3    H157263   3.589   5.114   4.224 -0.7122  0.2457  0.4779
11924TIP3    H257264   3.632   5.199   4.106  0.5853 -0.9690  0.0451
11925TIP3   OH257265   1.819   5.382   0.534 -0.0020 -0.6955 -0.2993
11925TIP3    H157266   1.763   5.453   0.564  0.1045 -0.8976  0.3912
11925TIP3    H257267   1.794   5.307   0.588  1.6431 -0.5297  0.7585
11926TIP3   OH257268   0.862   2.892  14.079 -0.1340  0.0874 -0.0849
11926TIP3    H157269   0.809   2.968  14.100 -2.3767 -1.5307  0.4689
11926TIP3    H257270   0.825   2.859  13.997 -0.4568 -1.4522  0.6505
11927TIP3   OH257271   1.266   3.924   5.125 -0.1867 -0.1273  0.1965
11927TIP3    H157272   1.282   3.928   5.031  2.2934  2.7680  0.5643
11927TIP3    H257273   1.322   3.853   5.157  1.0083  0.5705 -0.2750
11928TIP3   OH257274   5.601   5.106   1.743 -0.3310  0.3327 -0.3167
11928TIP3    H157275   5.590   5.014   1.764 -0.4991  0.8584  2.2137
11928TIP3    H257276   5.619   5.107   1.649 -0.5987 -2.2275 -0.4674
11929TIP3   OH257277   3.414   0.481  15.401 -0.0703 -0.0207 -0.5450
11929TIP3    H157278   3.468   0.539  15.348  0.5481 -0.6697 -0.6346
11929TIP3    H257279   3.335   0.467  15.348  0.0717  0.1873 -0.8144
11930TIP3   OH257280   5.566   3.200   2.731  0.1587 -0.3667  0.0668
11930TIP3    H157281   5.597   3.285   2.761 -0.0148  0.1072 -1.0567
11930TIP3    H257282   5.586   3.141   2.803  1.7573  0.3162  0.2268
11931TIP3   OH257283   1.300   1.489   2.499 -0.1302 -0.1921  0.0841
11931TIP3    H157284   1.389   1.521   2.511 -0.1456 -0.2992  0.5313
11931TIP3    H257285   1.297   1.408   2.550 -0.5085 -0.1346  0.1570
11932TIP3   OH257286   2.498   4.924   2.792  0.1049  0.3218  0.2231
11932TIP3    H157287   2.559   4.981   2.744 -1.0979  1.4752 -0.0005
11932TIP3    H257288   2.462   4.980   2.861 -1.5903  0.0544 -0.4003
11933TIP3   OH257289   2.748   4.734   2.099  0.0665 -0.5581  0.1192
11933TIP3    H157290   2.738   4.823   2.065 -0.3305 -0.5313  0.3018
11933TIP3    H257291   2.673   4.686   2.063 -1.5350 -0.0476  2.5142
11934TIP3   OH257292   5.673   1.349   3.301  0.5769  0.1821  0.4071
11934TIP3    H157293   5.597   1.349   3.243 -0.0577  0.4116  1.2213
11934TIP3    H257294   5.636   1.355   3.389  1.4290 -2.0292  0.9743
11935TIP3   OH257295   5.087   4.123   3.686  0.0055  0.2692  0.0226
11935TIP3    H157296   5.081   4.206   3.733  0.4077 -0.3737  1.2529
11935TIP3    H257297   5.158   4.076   3.729 -0.2179 -0.7158 -0.6560
11936TIP3   OH257298   3.728   6.037  13.412  0.7810  0.2067  0.1511
11936TIP3    H157299   3.688   5.969  13.466 -1.1471 -0.3221 -1.8005
11936TIP3    H257300   3.697   6.119  13.450 -1.4808 -0.1733 -0.6752
11937TIP3   OH257301   4.341   0.897  13.658  0.2359 -0.4074 -0.0282
11937TIP3    H157302   4.289   0.968  13.621  2.0749  1.4912  0.8123
11937TIP3    H257303   4.280   0.852  13.717 -0.8070  0.9292 -0.0254
11938TIP3   OH257304   2.109   4.597  16.347 -0.0928 -0.7134  0.3268
11938TIP3    H157305   2.013   4.605  16.352 -0.1464 -1.4025  0.4019
11938TIP3    H257306   2.133   4.648  16.269 -0.3744  0.6312  1.0795
11939TIP3   OH257307   1.196   6.830   5.551 -0.0045 -0.2412  0.0387
11939TIP3    H157308   1.280   6.856   5.514  0.5971 -2.1503 -0.0698
11939TIP3    H257309   1.147   6.796   5.476 -0.2157 -0.6641  0.3625
11940TIP3   OH257310   3.892   2.084  13.891  0.1608 -0.1598  0.7935
11940TIP3    H157311   3.815   2.139  13.908 -0.3233 -0.2731 -0.8638
11940TIP3    H257312   3.932   2.123  13.814  0.4507 -1.4766  0.2603
11941TIP3   OH257313   1.127   2.295  10.977 -0.2223 -0.1130  0.2355
11941TIP3    H157314   1.037   2.320  10.999 -0.0362 -0.3580  1.3747
11941TIP3    H257315   1.122   2.260  10.888 -1.5175 -1.4297  0.7873
11942TIP3   OH257316   1.622   1.257  14.188  0.3348 -0.2024  0.3045
11942TIP3    H157317   1.544   1.200  14.187  0.5314 -0.4769 -0.8516
11942TIP3    H257318   1.587   1.344  14.207 -0.3650 -0.2072 -0.8214
11943TIP3   OH257319   2.114   4.573  15.241  0.3563  0.0508  0.3824
11943TIP3    H157320   2.132   4.568  15.335 -0.3981 -0.1486  0.5228
11943TIP3    H257321   2.039   4.632  15.234  1.3170  1.2456 -0.2217
11944TIP3   OH257322   6.631   1.716  13.756  0.2389  0.2201  0.4544
11944TIP3    H157323   6.617   1.762  13.673  0.1715  0.3939  0.5614
11944TIP3    H257324   6.543   1.706  13.793  0.0652 -1.4382 -0.3265
11945TIP3   OH257325   6.077   0.623  13.086  0.2093  0.2275  0.1135
11945TIP3    H157326   5.994   0.625  13.039  0.2066  4.4454 -0.0832
11945TIP3    H257327   6.054   0.586  13.172 -1.8378  0.9616 -0.0536
11946TIP3   OH257328   2.639   0.302   1.615 -0.0482  0.0681  0.3524
11946TIP3    H157329   2.626   0.328   1.524  0.4372  0.2344  0.3275
11946TIP3    H257330   2.681   0.216   1.610  0.0203  0.0974  0.4196
11947TIP3   OH257331   3.061   3.644  16.566 -0.0920 -0.2360 -0.5268
11947TIP3    H157332   3.024   3.682  16.645 -0.0987  2.0461 -1.5603
11947TIP3    H257333   3.007   3.566  16.550 -1.5522  0.5161  0.4640
11948TIP3   OH257334   1.195   6.716  13.476 -0.0734 -0.3615  0.1932
11948TIP3    H157335   1.113   6.725  13.524  0.4565  0.5659  0.9571
11948TIP3    H257336   1.256   6.678  13.540  0.4970  0.3878  0.1107
11949TIP3   OH257337   2.631   0.805   5.297 -0.3437  0.3270  0.1415
11949TIP3    H157338   2.598   0.759   5.219 -2.2894  0.6703  0.7134
11949TIP3    H257339   2.560   0.797   5.361  0.9883  0.5486  1.6958
11950TIP3   OH257340   2.860   2.849  12.737  0.6517  0.3771  0.7008
11950TIP3    H157341   2.922   2.920  12.754  0.2789  0.5716  1.2768
11950TIP3    H257342   2.882   2.818  12.649  0.3502  1.6791  0.1470
11951TIP3   OH257343   3.388   0.578  12.102  0.4725 -0.8413 -0.0593
11951TIP3    H157344   3.387   0.539  12.015  0.7394  0.4488 -0.6688
11951TIP3    H257345   3.380   0.672  12.086  0.0317 -0.6209  1.3400
11952TIP3   OH257346   1.417   2.914   1.988 -0.4529  0.1451  0.1222
11952TIP3    H157347   1.370   2.886   2.066 -0.7915  0.8024  0.1657
11952TIP3    H257348   1.476   2.983   2.019 -0.8397  0.6536 -0.2519
11953TIP3   OH257349   2.141   1.000   4.490  0.6594  0.0688  0.0936
11953TIP3    H157350   2.063   0.954   4.519  0.9479 -0.2671  0.3444
11953TIP3    H257351   2.136   1.085   4.534  1.0811 -0.4284  1.1432
11954TIP3   OH257352   5.415   1.886  10.762 -0.2917  0.2004 -0.0544
11954TIP3    H157353   5.474   1.858  10.691 -0.5392  0.2859 -0.2962
11954TIP3    H257354   5.415   1.981  10.757 -0.7716  0.1863 -0.3185
11955TIP3   OH257355   6.450   6.272  15.289 -0.0088 -0.4742  0.0359
11955TIP3    H157356   6.495   6.253  15.207 -0.6085 -2.2056  0.0593
11955TIP3    H257357   6.376   6.212  15.290 -1.1985  0.9537  0.9046
11956TIP3   OH257358   6.400   6.778   9.967  0.0707  0.8103 -0.1032
11956TIP3    H157359   6.421   6.802   9.876  2.8228 -0.7610 -0.0132
11956TIP3    H257360   6.468   6.820  10.019  1.0680 -1.6184  0.7098
11957TIP3   OH257361   1.255   4.090  11.702 -0.2049 -0.0187 -0.2040
11957TIP3    H157362   1.250   4.081  11.607  0.8529  1.8410 -0.4967
11957TIP3    H257363   1.217   4.176  11.720 -1.0115 -0.6140  1.1528
11958TIP3   OH257364   2.738   0.963   4.974 -0.0856 -0.4586  0.1203
11958TIP3    H157365   2.746   0.901   5.046 -1.0297  1.1561  1.6987
11958TIP3    H257366   2.819   1.013   4.975  0.2572 -0.9876 -0.5098
11959TIP3   OH257367   5.154   0.365   3.454  0.2178  0.2524  1.0758
11959TIP3    H157368   5.126   0.296   3.515  0.3677  1.2203  2.2681
11959TIP3    H257369   5.248   0.374   3.470  1.0935 -2.0137 -1.9251
11960TIP3   OH257370   0.247   2.661  15.516  0.1441  0.7202 -0.0993
11960TIP3    H157371   0.315   2.725  15.496 -0.4653  1.7628  1.0195
11960TIP3    H257372   0.201   2.648  15.434  0.0426  2.0260 -0.2624
11961TIP3   OH257373   2.016   4.337  10.289  0.0728 -0.0979 -0.3378
11961TIP3    H157374   1.938   4.303  10.245 -0.8203  1.7156 -0.2624
11961TIP3    H257375   2.090   4.300  10.240 -0.8430 -0.7566 -1.2647
11962TIP3   OH257376   1.141   1.608   2.722 -0.1978  0.0866 -0.1718
11962TIP3    H157377   1.154   1.537   2.785 -0.9540 -0.1467 -0.2745
11962TIP3    H257378   1.129   1.563   2.638  1.5488  0.4086 -0.6437
11963TIP3   OH257379   6.602   5.683  13.580 -0.1731 -0.3868  0.1958
11963TIP3    H157380   6.566   5.598  13.606 -0.6172 -0.1428  0.3784
11963TIP3    H257381   6.634   5.721  13.662 -1.2538  0.2300  0.3505
11964TIP3   OH257382   3.835   4.948  10.972 -0.2404 -0.0209  0.5781
11964TIP3    H157383   3.759   4.893  10.991 -0.8898  0.5525 -0.3049
11964TIP3    H257384   3.910   4.891  10.988 -0.8062 -0.4159  2.0774
11965TIP3   OH257385   2.389   2.398   5.716  0.0423  0.2424  0.4607
11965TIP3    H157386   2.307   2.440   5.742 -0.2652  0.8943 -1.4184
11965TIP3    H257387   2.456   2.437   5.773 -0.3294  2.8852 -0.7781
11966TIP3   OH257388   0.204   3.386  14.376 -0.5012  0.5189 -0.6689
11966TIP3    H157389   0.242   3.301  14.398 -1.3938  0.7622  2.1157
11966TIP3    H257390   0.254   3.449  14.427 -1.6793  1.3322 -0.4829
11967TIP3   OH257391   1.000   0.292  14.168 -0.0352 -0.1697 -0.6702
11967TIP3    H157392   0.929   0.340  14.126 -0.4704 -0.9563 -0.8498
11967TIP3    H257393   0.997   0.318  14.260 -0.4304 -0.0584 -0.7166
11968TIP3   OH257394   1.618   5.667   4.327  0.1675  0.3220  0.5591
11968TIP3    H157395   1.639   5.713   4.246 -1.8194  1.1601  0.4807
11968TIP3    H257396   1.704   5.652   4.368  1.4114 -1.5952 -2.3994
11969TIP3   OH257397   4.207   2.986   4.155  0.2616 -0.3977  0.5642
11969TIP3    H157398   4.128   3.031   4.184  0.3699  0.6334 -0.6339
11969TIP3    H257399   4.280   3.037   4.190  0.3876 -0.3890  0.2988
11970TIP3   OH257400   6.015   4.950  14.888 -0.5594  0.6419  0.3636
11970TIP3    H157401   5.982   4.901  14.963  0.0913 -0.7655 -0.2202
11970TIP3    H257402   6.109   4.960  14.905 -0.4606  0.5686 -0.1031
11971TIP3   OH257403   2.378   4.696  11.851 -0.2427  0.4480 -0.0710
11971TIP3    H157404   2.378   4.721  11.943 -2.8231 -0.5459  0.2954
11971TIP3    H257405   2.458   4.646  11.839  0.0920  0.5049  1.6717
11972TIP3   OH257406   0.636   6.192   4.129 -0.7364 -0.2782  0.3389
11972TIP3    H157407   0.615   6.218   4.039 -2.1178 -1.2151  0.3508
11972TIP3    H257408   0.563   6.227   4.181 -0.5094 -0.6778  0.9328
11973TIP3   OH257409   3.026   1.745  13.016  0.2449  0.1150 -0.5921
11973TIP3    H157410   3.075   1.810  12.965  1.6689 -1.7801 -1.7596
11973TIP3    H257411   2.935   1.762  12.994  0.6727  0.8463 -1.9570
11974TIP3   OH257412   2.650   4.118   2.543 -0.4317  0.1149  0.0234
11974TIP3    H157413   2.588   4.142   2.612  2.3399  1.2568  2.3102
11974TIP3    H257414   2.685   4.201   2.511  0.3263 -0.5121 -0.8294
11975TIP3   OH257415   6.521   3.022   5.375  0.8556 -0.9138  0.0639
11975TIP3    H157416   6.437   2.982   5.397  0.9290 -0.0066  2.2476
11975TIP3    H257417   6.586   2.961   5.409  1.1156 -1.5352 -1.4785
11976TIP3   OH257418   1.395   6.620   3.922  0.5018  0.2254 -0.0913
11976TIP3    H157419   1.343   6.569   3.860  1.8806  0.1860 -1.2713
11976TIP3    H257420   1.334   6.644   3.992 -0.7071 -1.0904 -0.6694
11977TIP3   OH257421   3.490   0.952  15.169 -0.2552  0.2987  0.1967
11977TIP3    H157422   3.512   1.021  15.107  0.2485  0.3939  0.4734
11977TIP3    H257423   3.508   0.990  15.255 -0.0608 -0.1466  0.3547
11978TIP3   OH257424   1.983   6.455  12.328 -0.3352 -0.3060 -0.2172
11978TIP3    H157425   2.072   6.420  12.335  0.4967  1.8896  1.4051
11978TIP3    H257426   1.950   6.454  12.418 -1.7831 -0.6352 -0.7309
11979TIP3   OH257427   4.276   2.305  16.372  0.2019  0.0240 -1.0638
11979TIP3    H157428   4.194   2.256  16.369  0.0671  0.1751 -0.0218
11979TIP3    H257429   4.343   2.242  16.343  0.1304 -1.0129  0.8618
11980TIP3   OH257430   3.146   0.093  11.753 -0.2804 -0.3180  0.3188
11980TIP3    H157431   3.221   0.123  11.805 -0.0141 -0.7380  0.1801
11980TIP3    H257432   3.183   0.028  11.693 -0.3004  1.1187 -1.3524
11981TIP3   OH257433   1.095   5.541  10.913 -0.3544  0.5174  0.5077
11981TIP3    H157434   1.102   5.528  10.819  1.4568 -1.8397  0.8787
11981TIP3    H257435   1.141   5.623  10.929 -2.3757  2.0120 -0.7869
11982TIP3   OH257436   5.469   0.199  16.724 -0.5195 -0.1025 -0.0637
11982TIP3    H157437   5.505   0.125  16.773  1.7965  0.1236 -1.2929
11982TIP3    H257438   5.385   0.218  16.767 -0.1168 -1.9679  1.6903
11983TIP3   OH257439   4.768   3.451   6.453  0.1751 -0.2711  0.3650
11983TIP3    H157440   4.750   3.515   6.384 -2.2160 -0.7057  0.4884
11983TIP3    H257441   4.857   3.421   6.435  1.1270  2.5009 -0.1214
11984TIP3   OH257442   3.953   6.708  13.597 -0.1700 -0.1173 -0.5203
11984TIP3    H157443   4.010   6.659  13.657 -2.0870 -1.2696  0.4734
11984TIP3    H257444   3.941   6.793  13.640  1.8233  0.6928 -1.4246
11985TIP3   OH257445   4.236   1.044   5.729  0.2681  0.3584  0.3632
11985TIP3    H157446   4.324   1.006   5.719  0.4350  0.7739  0.1908
11985TIP3    H257447   4.238   1.086   5.815  0.2412  0.3727  0.3565
11986TIP3   OH257448   5.614   6.207   3.740 -0.7223  0.4557  0.1900
11986TIP3    H157449   5.671   6.279   3.766 -1.5206  1.0107  0.4694
11986TIP3    H257450   5.622   6.203   3.644  0.4177 -0.0365  0.2971
11987TIP3   OH257451   3.905   2.557  12.053  0.0383 -0.0363  0.8349
11987TIP3    H157452   3.906   2.462  12.066 -1.1131 -0.1693  0.0810
11987TIP3    H257453   3.950   2.571  11.969  1.4458  0.2359  1.5908
11988TIP3   OH257454   2.523   4.993  12.730 -0.7395 -0.4088 -0.3085
11988TIP3    H157455   2.617   4.995  12.709 -0.4488  0.4385  0.9373
11988TIP3    H257456   2.499   4.901  12.723  0.2547 -0.6737 -0.3784
11989TIP3   OH257457   6.862   2.109  15.028 -0.0275  0.0487  0.0541
11989TIP3    H157458   6.897   2.027  15.063 -1.3302 -0.4474  0.2640
11989TIP3    H257459   6.933   2.172  15.037  0.2268 -0.4773  2.0836
11990TIP3   OH257460   1.725   6.745   0.957 -0.1911 -0.1840  0.1736
11990TIP3    H157461   1.728   6.812   1.025 -0.5185  0.0523 -0.0383
11990TIP3    H257462   1.641   6.700   0.971 -0.2916 -0.0898 -0.1083
11991TIP3   OH257463   0.129   5.836  14.225 -0.6401  0.1989 -0.4935
11991TIP3    H157464   0.143   5.839  14.319  1.0220 -0.0802 -0.6919
11991TIP3    H257465   0.217   5.843  14.187 -1.0811 -1.3595 -1.9787
11992TIP3   OH257466   4.021   3.423   1.218 -0.5409 -0.8584  0.2468
11992TIP3    H157467   3.998   3.461   1.303  0.1731  1.8137 -0.6486
11992TIP3    H257468   3.942   3.432   1.165 -1.5929 -4.1774  1.0228
11993TIP3   OH257469   6.036   6.881   0.118  0.3810 -0.8050  0.7246
11993TIP3    H157470   6.026   6.888   0.023  1.4099 -2.5304  0.4432
11993TIP3    H257471   6.053   6.970   0.147  1.2590 -0.4100 -0.8826
11994TIP3   OH257472   3.673   2.055   5.644  0.2991  0.4685 -0.2605
11994TIP3    H157473   3.675   2.144   5.609  3.0394  0.0319 -1.4661
11994TIP3    H257474   3.741   2.054   5.711  1.2008 -0.9948 -1.1457
11995TIP3   OH257475   2.575   0.627   2.206  0.3747 -0.5249  0.0722
11995TIP3    H157476   2.492   0.672   2.217  1.5141  2.6120 -2.5605
11995TIP3    H257477   2.611   0.621   2.295 -0.8068  2.0463  0.8191
11996TIP3   OH257478   1.011   1.748  16.301 -0.3441 -0.1221 -0.4563
11996TIP3    H157479   1.069   1.783  16.369 -1.3643  0.5071  0.1168
11996TIP3    H257480   1.027   1.803  16.225 -1.5109  1.2581  0.2630
11997TIP3   OH257481   4.632   0.101  13.799  0.6925 -0.1044 -0.5189
11997TIP3    H157482   4.666   0.036  13.737 -0.0177  0.2594 -1.3173
11997TIP3    H257483   4.537   0.098  13.786  0.6764  1.4739 -0.9817
11998TIP3   OH257484   0.919   1.023  12.015  0.6850  0.2188 -0.0335
11998TIP3    H157485   0.838   1.072  12.029  0.1110 -0.6408 -0.2726
11998TIP3    H257486   0.966   1.028  12.098 -0.4232 -0.7411  0.6622
11999TIP3   OH257487   5.486   5.341   4.729  0.7805  0.1869  0.1661
11999TIP3    H157488   5.563   5.390   4.754  0.4397  0.0100  1.6252
11999TIP3    H257489   5.507   5.306   4.642  1.3242  2.2129 -0.5671
12000TIP3   OH257490   3.441   5.037   3.551 -0.2376  0.1295 -0.4796
12000TIP3    H157491   3.397   4.966   3.597  0.2711 -0.1806 -0.4694
12000TIP3    H257492   3.435   5.014   3.459  0.1293 -0.0441 -0.4612
12001TIP3   OH257493   6.168   4.381   4.730  0.1692  0.0729  0.3255
12001TIP3    H157494   6.138   4.449   4.669 -0.3368 -0.1548  0.3096
12001TIP3    H257495   6.173   4.425   4.815 -0.1532  0.1339  0.3144
12002TIP3   OH257496   4.847   2.655  10.449 -0.1247  0.0159 -0.6386
12002TIP3    H157497   4.773   2.672  10.391 -0.4993  1.5560  0.2570
12002TIP3    H257498   4.814   2.593  10.514 -0.5280  0.4354 -0.4415
12003TIP3   OH257499   2.199   5.746   2.601 -0.5115 -0.5821  0.3791
12003TIP3    H157500   2.108   5.757   2.627 -0.6402  0.7283 -0.5373
12003TIP3    H257501   2.247   5.811   2.652 -0.4428  0.3705 -0.8633
12004TIP3   OH257502   1.986   5.954  13.235 -0.2522 -0.7019  0.0051
12004TIP3    H157503   2.056   5.994  13.286 -1.3171  3.1865 -1.2144
12004TIP3    H257504   2.030   5.919  13.157  0.4828  0.7986 -0.2791
12005TIP3   OH257505   6.430   1.816  13.990  0.1681 -0.1733  0.6766
12005TIP3    H157506   6.478   1.751  14.041  0.7367  0.4359  0.9224
12005TIP3    H257507   6.393   1.766  13.917 -2.1727 -1.4325  2.5707
12006TIP3   OH257508   0.111   2.398   1.288  0.1443 -0.6132  0.4412
12006TIP3    H157509   0.038   2.432   1.236 -0.0128  0.0267  1.0547
12006TIP3    H257510   0.174   2.367   1.223  0.0745  0.4237 -0.1540
12007TIP3   OH257511   2.678   6.233   3.487  0.1696  0.4033  0.2926
12007TIP3    H157512   2.714   6.165   3.544  0.7076 -0.6519 -1.2556
12007TIP3    H257513   2.744   6.246   3.420 -0.2752  1.9226  0.1161
12008TIP3   OH257514   3.111   2.996   4.428 -0.0923 -0.0054 -0.3119
12008TIP3    H157515   3.067   2.981   4.511 -1.1812 -2.3087 -1.2195
12008TIP3    H257516   3.042   3.032   4.371  0.3840  0.5765 -0.5373
12009TIP3   OH257517   5.818   0.871   5.344  0.1071  0.4097  0.0799
12009TIP3    H157518   5.796   0.931   5.415 -0.5744  0.6748 -0.3453
12009TIP3    H257519   5.870   0.923   5.284  0.7220  0.1729  0.3979
12010TIP3   OH257520   5.751   1.649  14.668 -0.1420  0.0414 -0.0690
12010TIP3    H157521   5.707   1.569  14.696  1.6972 -0.9830  0.0538
12010TIP3    H257522   5.787   1.628  14.582  0.3814  0.7189 -0.0256
12011TIP3   OH257523   0.501   5.809   2.996 -0.3427 -0.3318 -0.4954
12011TIP3    H157524   0.446   5.765   2.931 -0.9410  0.2731 -0.4119
12011TIP3    H257525   0.582   5.757   2.999 -0.1813 -0.2038 -1.9355
12012TIP3   OH257526   2.579   2.485  12.583 -0.0795  0.0427 -0.2421
12012TIP3    H157527   2.631   2.507  12.506 -0.3424  0.5959 -0.2671
12012TIP3    H257528   2.615   2.540  12.653 -1.2756  1.1911 -0.4982
12013TIP3   OH257529   3.521   4.590   4.412 -0.0773  0.1221 -0.2646
12013TIP3    H157530   3.450   4.653   4.425 -0.7423  0.2202 -3.5814
12013TIP3    H257531   3.601   4.641   4.427 -0.6353  0.8157  0.4689
12014TIP3   OH257532   4.392   4.512  11.881  0.0700 -0.0543 -0.8665
12014TIP3    H157533   4.340   4.506  11.801  0.9066  1.3919 -1.5702
12014TIP3    H257534   4.332   4.548  11.946 -0.3372 -0.2713 -1.1168
12015TIP3   OH257535   2.077   3.990   3.278 -0.3952 -0.1151  0.1642
12015TIP3    H157536   2.016   3.968   3.207  0.8618 -1.3911 -0.5603
12015TIP3    H257537   2.147   4.039   3.235  0.3507 -0.8478  0.5079
12016TIP3   OH257538   0.485   5.050   3.930  0.3380  0.6830  0.3176
12016TIP3    H157539   0.458   5.124   3.875  1.0661  0.3434 -0.5021
12016TIP3    H257540   0.447   5.070   4.016 -1.4935  0.8363 -0.4709
12017TIP3   OH257541   4.870   3.355  16.698  0.3398 -0.1072  0.4278
12017TIP3    H157542   4.860   3.345  16.603 -1.4327  2.2359  0.2776
12017TIP3    H257543   4.881   3.265  16.730  0.5966 -0.9985 -1.9299
12018TIP3   OH257544   5.398   4.787   3.311 -0.3781 -0.4345  0.5296
12018TIP3    H157545   5.453   4.807   3.235  0.6176  0.3045  1.4041
12018TIP3    H257546   5.332   4.856   3.311  0.8952  0.8684  1.4906
12019TIP3   OH257547   4.937   0.686   3.886  0.0515 -0.2382  0.3062
12019TIP3    H157548   4.999   0.626   3.845  0.1752  0.0371  0.0778
12019TIP3    H257549   4.858   0.634   3.901  0.8252 -0.9852  1.9553
12020TIP3   OH257550   2.743   4.295   4.496  0.1829 -0.2540  0.4314
12020TIP3    H157551   2.837   4.304   4.515  0.3452 -2.3493  0.8552
12020TIP3    H257552   2.731   4.344   4.414  1.5703  0.3313  0.5409
12021TIP3   OH257553   2.073   0.282  13.434  0.4515  0.0745 -0.1122
12021TIP3    H157554   2.157   0.325  13.418 -0.2897  1.3621 -0.7191
12021TIP3    H257555   2.046   0.250  13.348 -0.0327  0.3493 -0.0655
12022TIP3   OH257556   4.112   3.259   0.590 -0.2291  0.1532  0.1258
12022TIP3    H157557   4.169   3.257   0.514 -0.3274  0.2600  0.0490
12022TIP3    H257558   4.094   3.352   0.605 -1.0314  0.0857 -0.3400
12023TIP3   OH257559   0.625   1.000  16.882  0.2338  0.0873 -0.0269
12023TIP3    H157560   0.546   0.979  16.932  0.4123  1.4818  0.9088
12023TIP3    H257561   0.681   0.923  16.892 -1.0439 -0.9868 -0.8356
12024TIP3   OH257562   4.376   1.006  14.320  0.5034 -0.0365  0.0989
12024TIP3    H157563   4.287   0.971  14.314  1.4349 -3.0283  1.6388
12024TIP3    H257564   4.375   1.058  14.400 -0.2296  1.3403 -0.7710
12025TIP3   OH257565   6.897   1.636  10.948  0.3437  0.4561 -0.0601
12025TIP3    H157566   6.987   1.632  10.914  0.3640 -2.4525  0.0903
12025TIP3    H257567   6.876   1.545  10.969 -2.5353  1.1238  0.2623
12026TIP3   OH257568   5.818   0.940   4.951 -0.3888  0.3208  0.0671
12026TIP3    H157569   5.832   0.975   5.039 -0.6571  0.8180 -0.0885
12026TIP3    H257570   5.745   0.991   4.915 -1.0844 -0.6824  0.0053
12027TIP3   OH257571   1.326   6.477   1.836  0.0686  0.8530  0.1523
12027TIP3    H157572   1.266   6.421   1.886 -0.0711 -0.7374 -1.6748
12027TIP3    H257573   1.272   6.513   1.766  0.5426  2.0317  0.3797
12028TIP3   OH257574   5.912   5.448  13.733  0.0197 -0.1566 -0.2000
12028TIP3    H157575   5.917   5.483  13.644  1.2630  4.1500  1.3080
12028TIP3    H257576   5.985   5.387  13.738  0.2304 -0.1158 -1.9787
12029TIP3   OH257577   1.285   1.034  10.975 -0.8294 -0.5675  0.2349
12029TIP3    H157578   1.305   1.125  10.953  1.2343 -1.1725 -0.6071
12029TIP3    H257579   1.246   1.039  11.063 -0.0466  1.0604  0.5357
12030TIP3   OH257580   2.783   5.375  13.653 -0.3268 -0.2856 -0.5262
12030TIP3    H157581   2.736   5.458  13.641 -1.2203 -0.7185 -0.1412
12030TIP3    H257582   2.718   5.308  13.630  0.2667 -0.8858 -0.4616
12031TIP3   OH257583   1.637   3.086   3.976  0.2917  0.0905  0.6771
12031TIP3    H157584   1.646   3.072   4.070  1.4152  0.4044  0.6277
12031TIP3    H257585   1.648   2.999   3.938  3.2634  0.4151  0.6348
12032TIP3   OH257586   6.516   0.976  10.307 -0.4609 -0.4313  0.0306
12032TIP3    H157587   6.443   0.967  10.369  0.0772 -1.1425  0.5902
12032TIP3    H257588   6.521   0.891  10.264 -0.0857 -0.3216 -0.1468
12033TIP3   OH257589   3.906   4.941  15.862 -0.1308 -0.0446  0.1735
12033TIP3    H157590   3.900   5.036  15.856 -0.2467  0.0137  1.0706
12033TIP3    H257591   3.970   4.925  15.931  0.1254 -0.6247 -0.1859
12034TIP3   OH257592   6.464   6.182  13.805  0.5159 -0.3102  0.1886
12034TIP3    H157593   6.537   6.126  13.832  0.5914 -1.2336 -1.7780
12034TIP3    H257594   6.500   6.271  13.812  1.5728 -0.7044  0.0397
12035TIP3   OH257595   2.758   6.029  13.129  0.0894  0.1870  0.1224
12035TIP3    H157596   2.832   6.060  13.076  3.0347 -3.0366  1.9245
12035TIP3    H257597   2.748   6.097  13.196  1.0565  0.9503 -0.4581
12036TIP3   OH257598   4.560   1.990  16.768 -0.1642  0.0655 -0.3938
12036TIP3    H157599   4.508   2.058  16.809 -1.8023 -1.0518 -0.5024
12036TIP3    H257600   4.526   1.984  16.678  0.0175 -0.8237 -0.4166
12037TIP3   OH257601   0.316   0.450  16.693 -0.0370  0.4657  0.2372
12037TIP3    H157602   0.223   0.467  16.710 -0.0339  1.4264 -0.5931
12037TIP3    H257603   0.356   0.537  16.692  1.0092  0.0196  1.2745
12038TIP3   OH257604   0.387   3.779  15.158 -0.3058  0.5450  0.3574
12038TIP3    H157605   0.387   3.686  15.134 -1.8479  0.1178  1.8105
12038TIP3    H257606   0.391   3.779  15.254  1.3684  2.0513  0.3452
12039TIP3   OH257607   1.041   2.863  11.633 -0.3824 -0.1897 -0.2923
12039TIP3    H157608   1.135   2.876  11.626 -0.5747  0.1890 -2.9147
12039TIP3    H257609   1.024   2.864  11.728  1.9953  1.3877  0.2067
12040TIP3   OH257610   4.046   4.104  12.293  0.5206 -0.0167  0.2940
12040TIP3    H157611   4.131   4.074  12.324  0.7462  0.8229  0.4955
12040TIP3    H257612   4.029   4.185  12.341 -0.1482  0.1067 -0.1311
12041TIP3   OH257613   3.067   1.142   0.137 -0.7100 -0.6056 -0.1982
12041TIP3    H157614   3.092   1.090   0.213 -1.5220 -0.5275  0.1428
12041TIP3    H257615   3.149   1.179   0.104 -0.6000  1.9953  2.5785
12042TIP3   OH257616   0.856   3.848   0.638 -0.5458  0.3890 -0.4895
12042TIP3    H157617   0.914   3.837   0.714  0.2379 -0.2610 -1.1539
12042TIP3    H257618   0.853   3.942   0.624 -2.5656  0.7372  1.7252
12043TIP3   OH257619   5.417   0.317  12.764  0.0545 -0.3325  0.4122
12043TIP3    H157620   5.451   0.357  12.684  0.8239  1.1681  1.4340
12043TIP3    H257621   5.424   0.223  12.749  1.3501 -0.0777 -0.7927
12044TIP3   OH257622   5.469   3.308  14.766  0.0707  0.4026 -0.5015
12044TIP3    H157623   5.410   3.364  14.817  0.0731 -0.2305  0.2089
12044TIP3    H257624   5.494   3.239  14.826  2.0021  0.9584 -0.6042
12045TIP3   OH257625   4.919   4.841  14.303 -0.2207 -0.1853 -0.1595
12045TIP3    H157626   4.983   4.894  14.257  1.0652 -1.6744 -0.1725
12045TIP3    H257627   4.931   4.753  14.268  0.6248 -1.3413  2.7409
12046TIP3   OH257628   1.282   5.090  12.996 -0.3168  0.1623  0.2757
12046TIP3    H157629   1.321   5.170  13.032  0.0667 -0.0752  0.3942
12046TIP3    H257630   1.351   5.024  13.004 -0.9113 -0.3890  0.9333
12047TIP3   OH257631   5.063   2.379   0.827 -0.0068  0.2041 -0.0525
12047TIP3    H157632   5.052   2.387   0.922 -2.5429 -1.0276 -0.1470
12047TIP3    H257633   5.089   2.288   0.813 -1.2881 -0.0944 -0.6079
12048TIP3   OH257634   4.345   3.095   3.739 -0.1903  0.2534  0.5919
12048TIP3    H157635   4.253   3.121   3.740 -1.2362 -2.7641 -1.6532
12048TIP3    H257636   4.350   3.022   3.800  0.0916 -1.0945 -0.9645
12049TIP3   OH257637   4.302   5.958  15.346  0.2000  0.1355  0.4235
12049TIP3    H157638   4.368   5.892  15.367  3.3371  2.7671 -0.4224
12049TIP3    H257639   4.258   5.924  15.268  2.1477 -0.6929 -0.3618
12050TIP3   OH257640   1.485   5.646   5.209 -0.1407 -0.4317 -0.1486
12050TIP3    H157641   1.390   5.650   5.202 -0.0969  0.0861 -0.4447
12050TIP3    H257642   1.504   5.682   5.296 -0.2101 -0.5400 -0.0876
12051TIP3   OH257643   2.884   6.746  16.302 -0.2602 -0.1023  0.4706
12051TIP3    H157644   2.832   6.806  16.249 -1.2596 -0.3515  1.1557
12051TIP3    H257645   2.821   6.698  16.355  0.5668 -1.2982  0.4309
12052TIP3   OH257646   2.504   0.876   2.834  0.0787 -0.4125 -0.1863
12052TIP3    H157647   2.412   0.851   2.831  0.1705 -1.3273  2.1436
12052TIP3    H257648   2.507   0.962   2.792 -1.8745 -0.2474 -0.1028
12053TIP3   OH257649   6.433   0.156   2.463  0.3011 -0.0913 -0.9531
12053TIP3    H157650   6.502   0.173   2.399 -0.9396 -0.0968 -2.3375
12053TIP3    H257651   6.470   0.087   2.519  1.5802  0.2182 -1.3649
12054TIP3   OH257652   0.758   1.100  14.538 -0.0612  0.1162 -0.0480
12054TIP3    H157653   0.805   1.179  14.510  0.1737 -0.5876 -1.7288
12054TIP3    H257654   0.665   1.123  14.529  0.0085 -0.0098 -1.2088
12055TIP3   OH257655   3.113   6.768  13.008 -0.1299 -0.2986  0.2161
12055TIP3    H157656   3.119   6.676  12.985 -0.4600  0.0799 -1.5448
12055TIP3    H257657   3.094   6.812  12.925  0.1646  1.3658  0.9930
12056TIP3   OH257658   0.408   0.901  12.888 -0.4055  0.3296  0.0660
12056TIP3    H157659   0.474   0.840  12.920  0.0567  0.7288 -0.1104
12056TIP3    H257660   0.330   0.848  12.875  0.3255 -0.4628 -1.2339
12057TIP3   OH257661   0.831   5.825   1.208 -0.2217  0.0895  0.0216
12057TIP3    H157662   0.741   5.857   1.215 -0.2812  0.3834 -1.7041
12057TIP3    H257663   0.841   5.765   1.281 -1.4105  1.0027  0.9685
12058TIP3   OH257664   5.354   2.882  13.305 -0.4056  0.1433  0.7066
12058TIP3    H157665   5.316   2.857  13.221 -1.8550 -0.6808  1.5623
12058TIP3    H257666   5.447   2.895  13.287 -0.7197  0.2091 -1.0529
12059TIP3   OH257667   2.888   4.787   0.321 -0.1124 -0.0514  0.2511
12059TIP3    H157668   2.850   4.792   0.233  0.2621 -0.5234  0.0598
12059TIP3    H257669   2.823   4.740   0.373  0.0152 -0.4881  0.0250
12060TIP3   OH257670   1.272   2.114   6.011 -0.2547  0.0057 -0.1726
12060TIP3    H157671   1.196   2.058   6.024 -0.9293  1.2251  1.3758
12060TIP3    H257672   1.338   2.056   5.972 -1.7287 -1.2221 -0.9526
12061TIP3   OH257673   6.077   1.120   1.693 -0.0351 -0.0733 -0.1054
12061TIP3    H157674   6.105   1.029   1.701 -0.3224 -0.0450  1.5762
12061TIP3    H257675   6.042   1.126   1.604  3.2492 -0.6445 -1.6251
12062TIP3   OH257676   5.254   3.850   4.441 -0.2026 -0.2344 -0.0736
12062TIP3    H157677   5.190   3.847   4.512  0.1142 -0.6892  0.2005
12062TIP3    H257678   5.306   3.770   4.453 -1.1214 -1.1288 -1.7474
12063TIP3   OH257679   4.800   4.855  10.752  0.5055  0.3514  0.5191
12063TIP3    H157680   4.861   4.790  10.717  1.7188  1.3310  0.7092
12063TIP3    H257681   4.820   4.857  10.846 -0.0803  0.4191  0.6431
12064TIP3   OH257682   6.105   6.703   1.932  0.2629  0.4750 -0.0627
12064TIP3    H157683   6.150   6.778   1.893 -0.1882  0.0620 -1.4377
12064TIP3    H257684   6.020   6.738   1.959  0.5965  0.7757  0.6219
12065TIP3   OH257685   2.905   0.066  15.206 -0.3802  0.2059 -0.0474
12065TIP3    H157686   2.905   0.102  15.295  0.8248  1.4226 -0.5170
12065TIP3    H257687   2.930  -0.026  15.218  0.0624  0.4306  0.8645
12066TIP3   OH257688   6.363   1.061  14.377 -0.4814  0.1004  0.2712
12066TIP3    H157689   6.402   0.977  14.355 -1.3241 -0.2085 -0.0842
12066TIP3    H257690   6.429   1.126  14.352  1.2157 -0.5078  2.8115
12067TIP3   OH257691   0.829   1.161   5.614 -0.0096 -0.3905  0.2158
12067TIP3    H157692   0.837   1.222   5.541 -1.3715 -1.3325 -0.7644
12067TIP3    H257693   0.917   1.158   5.652  0.1092  2.1283  0.3117
12068TIP3   OH257694   1.341   1.610   0.835  0.5234 -0.2184  0.4951
12068TIP3    H157695   1.433   1.613   0.809  0.5974  0.1484  0.7869
12068TIP3    H257696   1.318   1.702   0.852  0.2578 -0.3641  0.9486
12069TIP3   OH257697   3.011   6.895   1.987  0.5419 -0.9592  0.0611
12069TIP3    H157698   3.081   6.831   1.992  1.2632 -0.3022 -1.0678
12069TIP3    H257699   3.054   6.976   1.958 -0.3222  0.0647  1.4651
12070TIP3   OH257700   6.342   6.331   5.091  0.0042 -0.0107  0.1380
12070TIP3    H157701   6.324   6.253   5.144  2.1981 -0.3158  0.5270
12070TIP3    H257702   6.333   6.301   5.000 -1.2981 -0.1220  0.2823
12071TIP3   OH257703   4.328   1.149  15.324 -0.0190  1.0875  0.1211
12071TIP3    H157704   4.416   1.173  15.353 -0.5010  0.9012  1.8531
12071TIP3    H257705   4.269   1.190  15.387 -1.0942 -0.2022  0.0041
12072TIP3   OH257706   2.603   2.888  14.248 -0.9955 -0.4631 -0.2838
12072TIP3    H157707   2.661   2.812  14.255 -1.5820 -0.8269  0.8828
12072TIP3    H257708   2.662   2.960  14.224 -0.2004 -0.9999  0.0038
12073TIP3   OH257709   6.008   3.095   5.591 -0.3517  0.0829  0.1041
12073TIP3    H157710   6.018   3.119   5.683  0.4972 -0.4799  0.1738
12073TIP3    H257711   6.041   3.005   5.586  2.0041  0.9352 -1.1879
12074TIP3   OH257712   4.933   5.125   5.056 -0.2424  0.3172  0.5834
12074TIP3    H157713   4.852   5.154   5.097  0.1016  1.0119  0.7783
12074TIP3    H257714   4.998   5.190   5.081 -0.0523  0.8579 -1.1776
12075TIP3   OH257715   1.468   3.814  15.512  0.0207  0.0063  0.0158
12075TIP3    H157716   1.407   3.773  15.572  0.7816  1.2186  1.7226
12075TIP3    H257717   1.544   3.756  15.511  1.1797  1.3044  2.5824
12076TIP3   OH257718   3.736   0.712   0.261  0.2631 -0.6232 -0.1191
12076TIP3    H157719   3.682   0.642   0.225  0.7154 -0.6478 -0.7776
12076TIP3    H257720   3.825   0.691   0.232  0.2864  0.6769 -1.0836
12077TIP3   OH257721   0.025   3.738  13.259 -0.1030 -0.2337 -0.0235
12077TIP3    H157722  -0.053   3.740  13.314  1.3172  0.7735  2.0866
12077TIP3    H257723   0.091   3.694  13.313  1.5158  1.3010 -0.6666
12078TIP3   OH257724   0.373   5.274   3.836 -0.2443 -0.3789  0.2736
12078TIP3    H157725   0.280   5.274   3.814 -0.4040  1.6832  0.7119
12078TIP3    H257726   0.418   5.280   3.752 -0.4751 -1.8265  0.0344
12079TIP3   OH257727   2.437   1.939  16.857  0.2545 -0.0845 -0.0778
12079TIP3    H157728   2.494   1.871  16.892  2.0619  0.9520 -0.8800
12079TIP3    H257729   2.415   1.909  16.769 -4.1808 -2.6232  1.5340
12080TIP3   OH257730   3.920   5.289  15.585  0.0943  0.1228  0.6440
12080TIP3    H157731   3.937   5.283  15.491 -2.0088 -0.1038  0.2073
12080TIP3    H257732   3.856   5.360  15.593 -1.0749 -0.9880  1.6650
12081TIP3   OH257733   1.660   0.863  14.756  0.4563  0.1517  0.5182
12081TIP3    H157734   1.671   0.942  14.704  0.1547 -0.3447 -0.3089
12081TIP3    H257735   1.612   0.891  14.834 -1.3602  0.4343 -0.6724
12082TIP3   OH257736   1.332   3.249  10.891 -0.3837 -0.3051 -0.3743
12082TIP3    H157737   1.304   3.299  10.967 -0.3867 -0.7803 -0.0603
12082TIP3    H257738   1.365   3.167  10.927  0.3334 -0.2247 -0.8214
12083TIP3   OH257739   3.999   2.277   4.570 -0.3707  0.0582 -0.2470
12083TIP3    H157740   3.906   2.265   4.550 -0.7984  1.8622  0.4543
12083TIP3    H257741   4.007   2.370   4.594  1.3979 -0.3241  0.8431
12084TIP3   OH257742   1.895   4.217   5.294 -0.4862  0.3540 -0.1742
12084TIP3    H157743   1.808   4.242   5.327 -0.8661 -1.2100  0.0937
12084TIP3    H257744   1.904   4.124   5.318  1.8394  0.8076  1.0528
12085TIP3   OH257745   4.099   5.165   4.452 -0.2738  0.1203 -0.0195
12085TIP3    H157746   4.068   5.231   4.389  0.2580 -0.6008 -1.0675
12085TIP3    H257747   4.156   5.215   4.511 -1.8024  1.0657  0.7263
12086TIP3   OH257748   0.747   1.640   4.479 -0.8143  0.3323  0.0881
12086TIP3    H157749   0.842   1.642   4.470 -0.7664 -1.3297 -0.2219
12086TIP3    H257750   0.732   1.612   4.570 -0.9866  0.1579  0.0077
12087TIP3   OH257751   4.186   2.342  12.066  0.6068  0.3306  0.3017
12087TIP3    H157752   4.183   2.424  12.017  0.4325 -1.2231 -2.5245
12087TIP3    H257753   4.144   2.361  12.149 -2.0674  2.4216 -1.3691
12088TIP3   OH257754   4.876   5.856  15.517  0.5479  0.0452 -0.5256
12088TIP3    H157755   4.860   5.937  15.565 -0.7673  0.0643 -0.9584
12088TIP3    H257756   4.825   5.866  15.437 -1.0600 -1.9189  0.1772
12089TIP3   OH257757   5.570   1.433   2.577  0.1261  0.0525  0.0185
12089TIP3    H157758   5.632   1.410   2.508 -0.7005 -1.7054 -0.1889
12089TIP3    H257759   5.525   1.511   2.544 -1.0639 -1.4083 -1.9716
12090TIP3   OH257760   2.044   4.761   3.321  0.3164  0.0382  0.8028
12090TIP3    H157761   1.965   4.808   3.293  2.3687  3.7030  0.4961
12090TIP3    H257762   2.036   4.757   3.417 -0.8018 -0.8313  0.6917
12091TIP3   OH257763   3.879   6.183  16.209 -0.1394  0.0569  0.8187
12091TIP3    H157764   3.826   6.246  16.160 -2.0175 -1.2844  0.9871
12091TIP3    H257765   3.891   6.110  16.148 -0.6043 -0.6868  1.5883
12092TIP3   OH257766   3.936   6.171  15.634  0.6083 -0.0812 -0.4169
12092TIP3    H157767   3.910   6.202  15.721  2.9204  1.0029 -0.0181
12092TIP3    H257768   3.856   6.175  15.582 -0.5861  0.3584  1.3563
12093TIP3   OH257769   3.403   1.340  13.778 -0.1718 -0.1549  0.4011
12093TIP3    H157770   3.348   1.411  13.744  0.9860  0.5448 -0.0868
12093TIP3    H257771   3.452   1.309  13.702 -0.7151 -1.5490  0.5958
12094TIP3   OH257772   2.481   6.073   1.179  0.0298  0.2801 -0.7744
12094TIP3    H157773   2.506   6.048   1.090 -0.4493  0.7936 -1.0618
12094TIP3    H257774   2.503   5.996   1.233 -1.6243 -0.8700 -1.6606
12095TIP3   OH257775   4.917   6.874   2.007 -0.0734  0.3289  0.0505
12095TIP3    H157776   4.978   6.933   2.052 -1.5011  1.0244  1.1556
12095TIP3    H257777   4.888   6.922   1.931  2.1954 -0.7735 -1.6348
12096TIP3   OH257778   6.029   1.242  15.488  0.4423 -0.1830  0.5096
12096TIP3    H157779   6.003   1.150  15.493  0.5477 -0.1948  0.8101
12096TIP3    H257780   5.950   1.291  15.510  0.2244 -0.1857 -0.2215
12097TIP3   OH257781   2.347   3.054   2.538 -0.1571 -0.1271  0.0231
12097TIP3    H157782   2.263   3.085   2.571 -0.8544 -2.1754  0.3302
12097TIP3    H257783   2.372   2.983   2.597  0.9928 -0.6145 -0.9921
12098TIP3   OH257784   2.951   6.412   5.767 -0.2288  0.0295  0.3049
12098TIP3    H157785   2.954   6.493   5.818  1.4331 -0.1939  0.5907
12098TIP3    H257786   2.864   6.375   5.786 -0.7130  1.3398  0.7626
12099TIP3   OH257787   4.556   1.789  15.965  0.3852 -0.3311  0.2432
12099TIP3    H157788   4.555   1.695  15.945 -1.1635 -0.1302 -0.8170
12099TIP3    H257789   4.602   1.829  15.891 -1.0870 -0.0577 -0.5708
12100TIP3   OH257790   1.724   3.131   4.335 -0.3140  0.3689  0.0698
12100TIP3    H157791   1.818   3.147   4.334 -0.1986  0.1682  2.3797
12100TIP3    H257792   1.713   3.042   4.303  0.5089 -0.3533  1.7205
12101TIP3   OH257793   6.695   3.960  13.147 -0.3210  0.3842 -0.3371
12101TIP3    H157794   6.692   3.877  13.195  2.0376  0.4664  0.0453
12101TIP3    H257795   6.617   3.958  13.091 -0.9077 -1.5695  0.4765
12102TIP3   OH257796   5.595   0.458   1.469 -0.1759  0.0172 -0.3787
12102TIP3    H157797   5.520   0.412   1.505 -0.7492  0.2604 -1.2384
12102TIP3    H257798   5.658   0.461   1.541 -1.0193 -0.0969  0.3814
12103TIP3   OH257799   5.810   2.681  11.290 -0.0405  0.3641  0.3162
12103TIP3    H157800   5.901   2.669  11.318 -0.6661 -1.6994  1.7223
12103TIP3    H257801   5.800   2.624  11.214  0.0797  1.3405 -0.4408
12104TIP3   OH257802   2.095   5.380   4.103 -0.3351  0.1783 -0.3738
12104TIP3    H157803   2.030   5.450   4.109  0.3918  1.2876 -3.4796
12104TIP3    H257804   2.060   5.321   4.036  0.8127 -0.4231 -0.4740
12105TIP3   OH257805   2.341   2.374   1.814  0.2010  0.1874 -0.1568
12105TIP3    H157806   2.308   2.445   1.759  0.2134 -0.2019 -0.6838
12105TIP3    H257807   2.337   2.297   1.757  0.2979 -0.2081  0.3692
12106TIP3   OH257808   1.784   1.564   3.978 -0.0882  0.0089  0.3591
12106TIP3    H157809   1.849   1.630   4.002 -1.7349  1.5374  0.8237
12106TIP3    H257810   1.814   1.531   3.894  1.0575  0.9911  0.3490
12107TIP3   OH257811   2.725   0.454  16.852  0.3743  0.1617 -0.0962
12107TIP3    H157812   2.632   0.470  16.865  0.3850 -0.7052  1.2275
12107TIP3    H257813   2.743   0.487  16.764 -1.4426 -0.7211 -0.8598
12108TIP3   OH257814   0.293   4.701   0.382  0.2626  0.5154  0.1155
12108TIP3    H157815   0.387   4.710   0.396  0.6154  1.1872 -2.2192
12108TIP3    H257816   0.252   4.757   0.448  1.5266  0.7421  0.7186
12109TIP3   OH257817   3.027   4.317   4.238  0.6038 -0.7347  0.0663
12109TIP3    H157818   3.092   4.321   4.168  0.3051  2.7417 -0.1896
12109TIP3    H257819   3.077   4.294   4.316  2.2370  1.7344 -0.1500
12110TIP3   OH257820   3.070   0.690  15.522 -0.9219  0.2556 -0.4838
12110TIP3    H157821   3.117   0.738  15.590 -1.4649  0.1850 -0.0564
12110TIP3    H257822   3.005   0.638  15.569 -0.6083 -0.6008 -0.9754
12111TIP3   OH257823   1.256   1.452   1.791  0.1240  0.2866  0.3777
12111TIP3    H157824   1.261   1.539   1.750 -1.2640  0.2440  0.0798
12111TIP3    H257825   1.283   1.392   1.721 -0.5370  0.3513  0.0623
12112TIP3   OH257826   3.403   4.723   0.348 -0.5128  0.1482  0.6307
12112TIP3    H157827   3.341   4.791   0.324 -0.7997 -0.1110  0.6411
12112TIP3    H257828   3.363   4.679   0.422  0.8985  1.7243  2.4384
12113TIP3   OH257829   1.721   1.355  10.955 -0.5836  0.0328 -0.4483
12113TIP3    H157830   1.707   1.447  10.933  0.2458  0.3190  0.1796
12113TIP3    H257831   1.815   1.343  10.947 -0.8330 -1.2070 -2.1643
12114TIP3   OH257832   6.816   4.107   1.202 -0.0138 -0.5143  0.3770
12114TIP3    H157833   6.813   4.021   1.243 -1.9704 -0.2687  0.8337
12114TIP3    H257834   6.897   4.147   1.234  1.1111 -2.2832 -0.1323
12115TIP3   OH257835   1.616   3.326  13.488 -0.0438 -0.9753 -0.3771
12115TIP3    H157836   1.655   3.388  13.426  0.0095 -0.3849  0.2446
12115TIP3    H257837   1.616   3.242  13.441  2.1276 -1.0518 -0.3303
12116TIP3   OH257838   2.683   3.700   3.048  0.5788  0.5270  0.3179
12116TIP3    H157839   2.682   3.752   2.968 -0.5410  2.9668  1.7643
12116TIP3    H257840   2.591   3.695   3.075  0.9470  0.0654  1.6084
12117TIP3   OH257841   4.451   1.821   5.555 -0.0762  0.1412  0.1158
12117TIP3    H157842   4.545   1.821   5.536 -0.1266 -0.3151 -0.1534
12117TIP3    H257843   4.445   1.796   5.647  0.1275  1.5310  0.5289
12118TIP3   OH257844   1.917   5.851  11.684 -0.1817 -0.2436  0.2385
12118TIP3    H157845   1.938   5.763  11.654 -0.6318 -0.2674 -0.0180
12118TIP3    H257846   1.877   5.894  11.608 -1.2661 -0.2843  0.7680
12119TIP3   OH257847   4.034   5.801   5.140  0.0402 -0.0418 -0.4856
12119TIP3    H157848   4.037   5.854   5.220 -3.3934  1.1621 -0.9885
12119TIP3    H257849   4.071   5.858   5.072  1.0558 -0.2721 -0.1301
12120TIP3   OH257850   5.914   5.497  16.143 -0.0678 -0.2058  0.2596
12120TIP3    H157851   5.831   5.499  16.191  0.0419 -0.9444  0.4891
12120TIP3    H257852   5.948   5.586  16.151 -0.5205 -0.0692  0.7206
12121TIP3   OH257853   3.283   0.416   6.222  0.5855 -0.1397 -0.0715
12121TIP3    H157854   3.307   0.506   6.244 -0.4587  0.2031 -0.2882
12121TIP3    H257855   3.327   0.362   6.287 -1.1617  0.7256  1.9288
12122TIP3   OH257856   0.071   0.868  13.418  0.4190  0.1960 -0.2636
12122TIP3    H157857   0.007   0.915  13.473  0.4031  0.9951 -0.9382
12122TIP3    H257858   0.114   0.938  13.368  1.2811 -0.4102 -0.3771
12123TIP3   OH257859   4.798   5.805  13.897 -0.6381  0.5430 -0.0942
12123TIP3    H157860   4.871   5.744  13.906  1.0553  1.6102 -4.2661
12123TIP3    H257861   4.791   5.847  13.983  4.5961  1.2724  0.3230
12124TIP3   OH257862   4.777   2.957  11.145 -0.2742 -1.0112  0.2466
12124TIP3    H157863   4.786   2.904  11.065  0.8493 -1.3312  0.5688
12124TIP3    H257864   4.691   2.997  11.137 -0.4663 -1.5874 -0.8014
12125TIP3   OH257865   5.900   3.576  11.618 -0.6144 -0.3117  0.4685
12125TIP3    H157866   5.805   3.567  11.615 -0.7574  0.9324  0.9014
12125TIP3    H257867   5.918   3.618  11.702  0.1744  0.9202 -0.2788
12126TIP3   OH257868   6.814   4.270  15.008  0.2137  0.1805  0.0663
12126TIP3    H157869   6.878   4.297  15.074 -1.1208  1.2961  0.9477
12126TIP3    H257870   6.778   4.188  15.042 -0.3021  0.6296  0.6090
12127TIP3   OH257871   4.772   5.791  11.918  0.2237  0.4510  0.1634
12127TIP3    H157872   4.850   5.843  11.939  0.7278 -0.2463  0.0406
12127TIP3    H257873   4.735   5.767  12.003 -0.5205  1.7166  0.2420
12128TIP3   OH257874   6.845   0.758   3.532 -0.0981 -0.5072  0.3466
12128TIP3    H157875   6.840   0.741   3.626 -0.8335  1.8754  0.7956
12128TIP3    H257876   6.760   0.796   3.510  0.7941  0.9135 -0.8387
12129TIP3   OH257877   4.770   5.559  15.039 -0.1798  0.7220  0.1355
12129TIP3    H157878   4.709   5.488  15.017  2.1667 -0.8757 -1.7288
12129TIP3    H257879   4.797   5.540  15.129  0.8150 -1.1407 -0.5074
12130TIP3   OH257880   0.085   0.595   4.364  0.1945 -0.1462 -0.0180
12130TIP3    H157881   0.171   0.557   4.349  1.1362  1.5760  0.6824
12130TIP3    H257882   0.049   0.546   4.438  0.9291 -0.3584  0.2057
12131TIP3   OH257883   4.463   5.271  14.202 -0.1321 -0.3640  0.0278
12131TIP3    H157884   4.369   5.259  14.189  0.2184 -2.1894 -1.2500
12131TIP3    H257885   4.474   5.279  14.296 -1.5753  0.0350  0.1810
12132TIP3   OH257886   4.872   5.436  10.939 -0.1247 -0.2895 -0.0578
12132TIP3    H157887   4.798   5.478  10.982 -0.8721 -0.8693 -0.7495
12132TIP3    H257888   4.930   5.509  10.915 -1.0279  0.2886 -0.5411
12133TIP3   OH257889   1.513   0.442  15.280 -0.2509 -0.0114 -0.7587
12133TIP3    H157890   1.531   0.354  15.247 -0.9630  0.2331 -1.8596
12133TIP3    H257891   1.466   0.428  15.362  0.5639 -0.6440 -0.3898
12134TIP3   OH257892   1.634   6.051   3.290 -0.3837  0.3765 -0.1319
12134TIP3    H157893   1.599   6.116   3.351 -1.4383  0.7440 -1.0904
12134TIP3    H257894   1.724   6.036   3.320 -0.9669  0.2913  1.6979
12135TIP3   OH257895   2.585   1.823  11.914  0.1848  0.2336  0.1065
12135TIP3    H157896   2.611   1.882  11.843  1.9354  0.9375  1.2426
12135TIP3    H257897   2.493   1.804  11.898  0.5740  0.1472 -2.4820
12136TIP3   OH257898   3.578   4.693   3.751 -0.0283 -0.3323 -0.2403
12136TIP3    H157899   3.619   4.607   3.764  0.2612 -0.4335 -1.7012
12136TIP3    H257900   3.524   4.683   3.672 -2.2062  0.0589  1.1124
12137TIP3   OH257901   6.649   4.413  16.037  0.0045 -0.3749  0.5797
12137TIP3    H157902   6.560   4.393  16.066 -0.3223 -0.0822 -0.2025
12137TIP3    H257903   6.657   4.508  16.049 -0.3359 -0.1470 -0.7612
12138TIP3   OH257904   5.109   0.634   3.509 -0.4856  0.7912 -0.0557
12138TIP3    H157905   5.099   0.541   3.490  1.4945  0.3164  0.9087
12138TIP3    H257906   5.195   0.657   3.473  0.0648  1.6541  1.6718
12139TIP3   OH257907   6.337   3.025   1.188  0.2079 -0.4243  0.2682
12139TIP3    H157908   6.305   3.112   1.163  0.9694  0.2547  1.5674
12139TIP3    H257909   6.334   3.024   1.283  0.8155 -1.5898  0.2933
12140TIP3   OH257910   0.059   5.505   0.963 -0.9398 -0.4325  0.0299
12140TIP3    H157911   0.106   5.423   0.982  2.3031  1.1269 -0.4487
12140TIP3    H257912  -0.007   5.480   0.899  1.4040 -2.4486 -1.8285
12141TIP3   OH257913   0.647   5.270  14.345  0.1330  0.1240 -0.2214
12141TIP3    H157914   0.637   5.178  14.319  0.4546  0.4219 -1.4620
12141TIP3    H257915   0.741   5.286  14.336  0.4001  0.0258  1.9579
12142TIP3   OH257916   3.192   4.128  14.245  0.4234  0.1022  0.1851
12142TIP3    H157917   3.159   4.069  14.178 -0.2172  0.4094  0.2181
12142TIP3    H257918   3.180   4.216  14.208  2.8380  0.1958 -0.5379
12143TIP3   OH257919   6.813   3.855  10.880 -0.5207  0.3795 -0.2296
12143TIP3    H157920   6.895   3.872  10.926 -0.6882  0.6206 -0.0164
12143TIP3    H257921   6.789   3.766  10.906 -0.4543  0.4000 -0.0956
12144TIP3   OH257922   3.501   4.221   2.437  0.7063 -0.0473 -0.0740
12144TIP3    H157923   3.414   4.247   2.404  0.2259  0.3921  1.4535
12144TIP3    H257924   3.544   4.304   2.457  1.3277 -0.2808 -0.4227
12145TIP3   OH257925   0.862   5.371   1.925  0.6578 -0.1141  0.3498
12145TIP3    H157926   0.781   5.333   1.893  0.7622  0.6626 -0.9538
12145TIP3    H257927   0.841   5.406   2.012 -1.5502  3.3836 -1.3517
12146TIP3   OH257928   6.782   5.677  14.321  0.0155  0.0313  0.2298
12146TIP3    H157929   6.869   5.711  14.300 -0.7690  0.3603 -3.0348
12146TIP3    H257930   6.751   5.733  14.392  1.9184  0.7352  0.5860
12147TIP3   OH257931   3.979   6.492   3.145 -0.0115  0.5529  0.4924
12147TIP3    H157932   4.067   6.528   3.133  0.5600 -1.2535 -1.2104
12147TIP3    H257933   3.993   6.405   3.181 -0.5952 -1.8323 -4.2469
12148TIP3   OH257934   5.483   4.166  10.895 -0.5075  0.1082  0.1801
12148TIP3    H157935   5.551   4.106  10.865  0.2235  0.5392  0.9444
12148TIP3    H257936   5.403   4.131  10.857  0.0476 -0.7497 -0.2505
12149TIP3   OH257937   1.754   6.894   2.732  0.1023  0.0409 -0.4732
12149TIP3    H157938   1.822   6.832   2.705  0.4669  0.7143 -1.1314
12149TIP3    H257939   1.714   6.853   2.808 -0.9169 -1.9092 -1.9611
12150TIP3   OH257940   1.175   3.399   0.254 -0.1459  0.5935  0.6605
12150TIP3    H157941   1.130   3.445   0.183  1.4963  2.9106  0.9924
12150TIP3    H257942   1.257   3.369   0.214 -0.0966  0.1432  1.0870
12151TIP3   OH257943   6.370   5.742   5.313 -0.1886 -0.0093  0.3713
12151TIP3    H157944   6.434   5.673   5.327 -0.0860  0.0202  0.0517
12151TIP3    H257945   6.287   5.704   5.342 -0.4600 -0.9174 -1.4672
12152TIP3   OH257946   6.617   2.893   0.482  0.7017 -0.4482  0.3628
12152TIP3    H157947   6.599   2.914   0.391  2.2406  2.8521  0.6614
12152TIP3    H257948   6.690   2.831   0.479 -0.3536 -1.6748 -0.6231
12153TIP3   OH257949   0.416   3.025   3.623  0.1731 -0.1430  0.7674
12153TIP3    H157950   0.455   2.938   3.624  0.0595 -0.2346 -0.7756
12153TIP3    H257951   0.454   3.068   3.547  0.7890  1.4437  1.9130
12154TIP3   OH257952   5.948   1.868   1.620  0.4205 -0.2196 -0.1548
12154TIP3    H157953   5.984   1.832   1.538 -1.1024  0.1257 -1.0272
12154TIP3    H257954   5.873   1.811   1.640  0.1367  0.3364  0.4098
12155TIP3   OH257955   2.395   5.129   0.771 -0.1224 -0.1417 -0.3654
12155TIP3    H157956   2.318   5.074   0.755  1.1573 -1.7004 -1.5327
12155TIP3    H257957   2.463   5.091   0.715  1.7232  0.6746  1.2220
12156TIP3   OH257958   5.212   3.489   5.283 -0.1162 -0.0012 -0.3435
12156TIP3    H157959   5.206   3.580   5.314 -0.7826  0.1998 -1.0279
12156TIP3    H257960   5.300   3.461   5.308  0.0739  0.8116 -0.0616
12157TIP3   OH257961   5.228   6.731   2.459  0.2921  0.3309  0.0701
12157TIP3    H157962   5.152   6.719   2.516 -0.3813 -0.3349 -0.9384
12157TIP3    H257963   5.259   6.819   2.478  0.3756 -0.0433  1.8047
12158TIP3   OH257964   3.861   3.495   5.031  0.0586 -0.1892  0.7133
12158TIP3    H157965   3.926   3.502   5.100 -0.3838 -0.0525  1.1179
12158TIP3    H257966   3.878   3.410   4.990 -0.0569 -0.5387  1.3772
12159TIP3   OH257967   4.389   5.492   0.661 -0.2228 -0.1416 -0.2044
12159TIP3    H157968   4.366   5.575   0.703  1.0854 -0.2410  0.7588
12159TIP3    H257969   4.337   5.426   0.707  0.9464 -0.2066  1.0754
12160TIP3   OH257970   0.644   5.133  12.716  0.4134 -0.3799 -0.0285
12160TIP3    H157971   0.615   5.042  12.712 -0.5165 -0.1684  1.2478
12160TIP3    H257972   0.576   5.182  12.670 -0.3440 -0.0873  1.3606
12161TIP3   OH257973   3.691   2.185  14.473 -0.0827  0.6377  0.3763
12161TIP3    H157974   3.700   2.110  14.531 -0.9168  0.3741  0.1686
12161TIP3    H257975   3.773   2.234  14.485  0.7410 -0.6034  0.0696
12162TIP3   OH257976   4.768   0.627   4.175 -0.0190  0.4949 -0.2201
12162TIP3    H157977   4.836   0.664   4.231  1.0181  0.0320 -1.1422
12162TIP3    H257978   4.690   0.624   4.231  1.2439 -1.0115  1.5554
12163TIP3   OH257979   4.103   3.191   3.579  0.0772 -0.0471  0.2171
12163TIP3    H157980   4.150   3.261   3.533  1.5656 -1.4573 -0.4880
12163TIP3    H257981   4.087   3.125   3.512 -3.1259  0.4072  0.3887
12164TIP3   OH257982   5.157   2.443   1.254 -0.3227  0.3900  0.4833
12164TIP3    H157983   5.199   2.357   1.265 -2.4008 -0.5514  1.6275
12164TIP3    H257984   5.124   2.465   1.341 -0.4976  1.9986  0.0333
12165TIP3   OH257985   3.590   5.565  12.307  0.3406  0.0322 -0.2859
12165TIP3    H157986   3.668   5.621  12.301  0.9639 -0.8856 -0.8970
12165TIP3    H257987   3.620   5.485  12.348 -0.9281  0.7548  2.2750
12166TIP3   OH257988   4.226   1.274   0.914  0.2667  0.1161 -0.0578
12166TIP3    H157989   4.314   1.299   0.884  0.0234  0.1432 -0.7546
12166TIP3    H257990   4.224   1.179   0.905  0.2310  0.1123 -0.0094
12167TIP3   OH257991   6.025   6.190   4.671  0.2775 -0.3995  0.2868
12167TIP3    H157992   5.941   6.226   4.642  0.4861 -1.8963 -2.5625
12167TIP3    H257993   6.035   6.109   4.621  1.8501 -2.1106  3.1423
12168TIP3   OH257994   3.279   1.881   2.287  0.0165 -0.1323 -0.0700
12168TIP3    H157995   3.190   1.861   2.259  0.0763 -1.3190  0.5203
12168TIP3    H257996   3.294   1.822   2.361  0.5678  1.4992  1.1673
12169TIP3   OH257997   4.738   5.654  14.177 -0.0080  0.0055  0.1298
12169TIP3    H157998   4.828   5.646  14.146 -0.2370 -0.4812 -0.4205
12169TIP3    H257999   4.717   5.747  14.164  0.5874  0.2387  0.7658
12170TIP3   OH258000   0.498   2.496   3.487  0.0475  0.0817  0.2748
12170TIP3    H158001   0.446   2.562   3.440  0.3871 -1.3349 -2.2622
12170TIP3    H258002   0.437   2.457   3.550 -0.7072  1.3745  0.3846
12171TIP3   OH258003   1.149   5.717   0.941  0.4215 -0.0401 -0.4989
12171TIP3    H158004   1.112   5.629   0.934  1.4155 -0.4583 -0.6217
12171TIP3    H258005   1.176   5.739   0.852 -0.9169  0.8950 -0.6999
12172TIP3   OH258006   3.566   6.532  16.354 -0.4644  0.3170  0.7608
12172TIP3    H158007   3.655   6.565  16.367 -1.4069  2.4914  2.2389
12172TIP3    H258008   3.572   6.479  16.275  2.3941 -0.6723  1.5029
12173TIP3   OH258009   2.300   4.513   3.628 -0.1054 -0.1847  0.2666
12173TIP3    H158010   2.244   4.498   3.552  0.9727  0.2230 -0.6637
12173TIP3    H258011   2.346   4.430   3.642  0.8500  0.1729 -0.5607
12174TIP3   OH258012   4.403   5.069   1.776 -0.0310 -0.0817  0.2166
12174TIP3    H158013   4.499   5.072   1.780  0.0174  1.4878 -1.0684
12174TIP3    H258014   4.384   5.007   1.706 -0.0132 -1.1630  1.1371
12175TIP3   OH258015   2.724   5.709   3.079 -0.7771  0.1058  0.3890
12175TIP3    H158016   2.685   5.704   3.167  0.8664 -0.1261  1.1500
12175TIP3    H258017   2.786   5.637   3.076 -2.1391 -1.0861 -1.7220
12176TIP3   OH258018   1.589   3.441  11.488 -1.1325  0.3585 -0.1136
12176TIP3    H158019   1.537   3.380  11.540 -2.1037  2.2408  1.2484
12176TIP3    H258020   1.677   3.438  11.526 -1.0306 -0.5324 -0.3958
12177TIP3   OH258021   0.718   5.264  15.947  0.0864  0.1924 -0.2167
12177TIP3    H158022   0.772   5.197  15.906 -0.8216 -0.5439 -0.2477
12177TIP3    H258023   0.662   5.297  15.876 -0.1831  0.2545  0.0221
12178TIP3   OH258024   0.280   4.049   3.196 -0.1098 -0.5728 -0.2077
12178TIP3    H158025   0.325   4.025   3.276  0.5347  0.4755 -0.2287
12178TIP3    H258026   0.199   4.000   3.198 -1.5124  1.5462  2.5620
12179TIP3   OH258027   1.970   1.446  14.338  0.5446 -0.7587  0.1801
12179TIP3    H158028   2.057   1.453  14.377  1.3511 -1.1562 -1.4376
12179TIP3    H258029   1.918   1.397  14.402  0.9799  0.9302  1.9315
12180TIP3   OH258030   6.115   4.389   3.057  0.4086  0.1453 -0.3907
12180TIP3    H158031   6.125   4.484   3.065 -1.2011  0.2804  0.4279
12180TIP3    H258032   6.094   4.375   2.965  1.1205  0.5166 -0.6217
12181TIP3   OH258033   4.328   4.418   4.376 -0.3816  0.1552  0.1305
12181TIP3    H158034   4.248   4.383   4.337 -0.9275  2.0533 -0.5633
12181TIP3    H258035   4.335   4.374   4.461 -1.8824 -0.4254 -0.0211
12182TIP3   OH258036   0.971   1.370  16.083 -0.0146 -0.1367  0.0950
12182TIP3    H158037   0.980   1.275  16.078  0.4777 -0.1313  0.8410
12182TIP3    H258038   0.881   1.384  16.113  0.2907 -0.4026  1.1670
12183TIP3   OH258039   4.117   6.012  12.198 -0.4279 -0.3110  0.8339
12183TIP3    H158040   4.059   6.038  12.269  1.3825 -0.6040  2.5127
12183TIP3    H258041   4.190   6.074  12.203 -1.2103  1.0538 -2.2096
12184TIP3   OH258042   0.366   1.503   3.416 -0.3298 -0.6422 -0.0395
12184TIP3    H158043   0.312   1.442   3.466  0.3353 -0.6876  0.6543
12184TIP3    H258044   0.449   1.456   3.404  0.2533  0.1727  0.6558
12185TIP3   OH258045   4.617   0.045  14.322 -0.6229  0.0097  0.5493
12185TIP3    H158046   4.702   0.005  14.306 -1.3673 -1.5404  0.2883
12185TIP3    H258047   4.612   0.118  14.261  0.8310  0.6233  1.1339
12186TIP3   OH258048   2.400   6.283  10.993 -0.1512  0.6766 -0.3462
12186TIP3    H158049   2.371   6.296  10.903 -0.2181 -0.5500 -0.5156
12186TIP3    H258050   2.488   6.320  10.995 -0.6525  1.9121 -0.5562
12187TIP3   OH258051   1.688   2.889  16.865 -0.0785  0.0981  0.2627
12187TIP3    H158052   1.654   2.978  16.856  0.7629  0.2561 -2.1189
12187TIP3    H258053   1.625   2.844  16.921 -1.6690  1.6129 -0.2280
12188TIP3   OH258054   4.543   4.626  13.391  0.2156 -0.0440 -0.4116
12188TIP3    H158055   4.532   4.532  13.406 -1.0081  0.5014  2.9095
12188TIP3    H258056   4.468   4.651  13.337 -1.6506 -0.4706  1.8179
12189TIP3   OH258057   0.175   2.365  16.392 -0.1396  0.3295 -0.2492
12189TIP3    H158058   0.252   2.336  16.342 -1.1501 -0.2390 -1.5292
12189TIP3    H258059   0.205   2.443  16.438  0.6196  1.4243 -2.4514
12190TIP3   OH258060   4.892   0.600   1.893 -0.2724 -0.4935  0.3253
12190TIP3    H158061   4.941   0.519   1.876  1.1838  0.1483  1.2707
12190TIP3    H258062   4.803   0.570   1.909 -0.1860 -1.7342 -1.2079
12191TIP3   OH258063   5.537   6.211  13.087  0.4048 -0.4738  0.4750
12191TIP3    H158064   5.457   6.198  13.036  1.5874 -0.1497 -1.5590
12191TIP3    H258065   5.568   6.298  13.060  3.3517 -2.0150 -1.6595
12192TIP3   OH258066   6.226   0.798  15.071 -0.7757  0.1868 -0.7070
12192TIP3    H158067   6.192   0.845  14.995 -0.5552 -0.5424 -1.2700
12192TIP3    H258068   6.167   0.822  15.142 -1.9466 -0.3270 -1.4613
12193TIP3   OH258069   6.109   4.572  12.394 -0.0984 -0.3411 -0.7972
12193TIP3    H158070   6.069   4.587  12.480 -1.2512  0.2073 -1.4057
12193TIP3    H258071   6.087   4.650  12.343  0.5066 -0.6872 -1.6232
12194TIP3   OH258072   4.853   0.618  14.671 -0.3870 -1.0572  0.2285
12194TIP3    H158073   4.920   0.617  14.603  0.5988 -2.7100  1.1666
12194TIP3    H258074   4.897   0.650  14.749 -1.4914  0.7478  0.1798
12195TIP3   OH258075   2.275   6.890  11.207  0.1782 -0.3896 -0.0663
12195TIP3    H158076   2.208   6.922  11.269  1.6765 -0.3361  1.6008
12195TIP3    H258077   2.329   6.831  11.259  1.6801 -0.1133 -1.2522
12196TIP3   OH258078   3.537   1.300  14.066 -0.0334  0.6006 -0.5030
12196TIP3    H158079   3.500   1.322  13.980  0.5601 -0.2217 -0.9760
12196TIP3    H258080   3.595   1.226  14.049 -0.2552  0.1402  0.6857
12197TIP3   OH258081   6.328   0.469  16.368 -0.8878 -0.0192  0.1459
12197TIP3    H158082   6.350   0.506  16.283 -0.1702 -1.2764 -0.2303
12197TIP3    H258083   6.252   0.521  16.397  0.0313  1.6973 -0.3596
12198TIP3   OH258084   5.631   5.717  10.182  0.4492 -0.3492 -0.2245
12198TIP3    H158085   5.625   5.629  10.144  1.4987 -0.8936  0.8125
12198TIP3    H258086   5.557   5.764  10.145 -1.8160 -2.4851  1.2678
12199TIP3   OH258087   5.594   5.369  12.788  0.7008 -0.1042 -0.1431
12199TIP3    H158088   5.541   5.447  12.775 -0.1708 -0.7928 -0.8341
12199TIP3    H258089   5.684   5.402  12.786  0.3342  1.2474  2.2950
12200TIP3   OH258090   5.568   0.407  16.227 -0.0833 -0.2736  0.5307
12200TIP3    H158091   5.651   0.454  16.241  0.6356 -1.7888  1.6188
12200TIP3    H258092   5.588   0.345  16.158 -0.7277  0.2949 -0.1709
12201TIP3   OH258093   0.221   5.026   3.622  0.4551 -0.5825 -0.4505
12201TIP3    H158094   0.314   5.033   3.600  0.2050 -0.0761 -1.4312
12201TIP3    H258095   0.185   4.964   3.558 -0.2311  0.6886 -1.3584
12202TIP3   OH258096   2.246   6.122  15.982  0.5999 -0.1192 -0.5503
12202TIP3    H158097   2.184   6.074  15.927 -0.3418  0.3897  0.0365
12202TIP3    H258098   2.205   6.208  15.994  2.0001  0.6666 -1.1502
12203TIP3   OH258099   1.907   0.500   2.895 -0.0988 -0.1645 -0.6824
12203TIP3    H158100   2.000   0.512   2.873  0.2998  0.9156  1.3870
12203TIP3    H258101   1.886   0.413   2.860  1.4231 -0.0881 -1.9596
12204TIP3   OH258102   6.751   3.155   3.809 -0.1189  0.0526  0.2005
12204TIP3    H158103   6.793   3.130   3.892  0.4796 -2.2102 -0.6942
12204TIP3    H258104   6.790   3.239   3.786  0.3437  0.2983  1.7876
12205TIP3   OH258105   4.297   2.088  15.443 -0.2519  0.4875 -0.4712
12205TIP3    H158106   4.265   2.018  15.499 -0.1442  0.6589 -0.1927
12205TIP3    H258107   4.348   2.145  15.501 -1.7894  1.7632 -0.2933
12206TIP3   OH258108   0.630   0.160  10.634 -0.6590  0.1697  0.3965
12206TIP3    H158109   0.663   0.078  10.598 -1.6010 -0.6271  1.2773
12206TIP3    H258110   0.558   0.185  10.575  1.5733  2.0775 -1.7127
12207TIP3   OH258111   5.917   0.644   0.885  0.3559 -0.0084  0.4143
12207TIP3    H158112   6.004   0.681   0.900 -0.5538  2.5372  0.0261
12207TIP3    H258113   5.908   0.643   0.790  0.1057 -0.6527  0.4437
12208TIP3   OH258114   3.438   2.922   5.902  0.1273 -0.0452 -0.6566
12208TIP3    H158115   3.447   2.851   5.965 -3.2810 -0.0077  0.0622
12208TIP3    H258116   3.477   2.998   5.945  1.8035 -0.9321 -0.5129
12209TIP3   OH258117   2.738   6.751   4.671 -0.5052 -0.0629 -0.2361
12209TIP3    H158118   2.831   6.730   4.666  0.0472  1.8415  1.0450
12209TIP3    H258119   2.714   6.775   4.581 -0.1529 -1.9429 -0.8642
12210TIP3   OH258120   1.700   0.739  10.811 -0.4695  0.3824 -0.7820
12210TIP3    H158121   1.614   0.696  10.813  0.5587 -1.7687  0.6111
12210TIP3    H258122   1.679   0.832  10.815 -2.7498 -0.1054  1.3096
12211TIP3   OH258123   0.522   6.756  15.161 -0.3526  0.5195 -0.2110
12211TIP3    H158124   0.476   6.799  15.090 -1.0008  0.2349  0.0339
12211TIP3    H258125   0.547   6.670  15.126 -1.1931  0.1420  0.0861
12212TIP3   OH258126   0.891   3.838   3.862  0.4396 -0.4733 -0.2562
12212TIP3    H158127   0.979   3.846   3.825  1.2988 -0.0710  1.7871
12212TIP3    H258128   0.899   3.773   3.932 -0.4666  0.8141  1.1073
12213TIP3   OH258129   4.880   5.626  12.415 -0.4655  0.8062  0.4852
12213TIP3    H158130   4.850   5.565  12.483  0.0641  1.6405  1.4918
12213TIP3    H258131   4.801   5.676  12.391 -0.2769  1.8343  1.9054
12214TIP3   OH258132   5.201   6.023  13.122 -0.8215  0.2603  0.0371
12214TIP3    H158133   5.208   5.928  13.129  0.7873  0.3528  0.0197
12214TIP3    H258134   5.238   6.056  13.204 -0.2247  0.8854 -0.4713
12215TIP3   OH258135   1.760   0.563  16.856  0.6386  0.6054 -0.5174
12215TIP3    H158136   1.813   0.606  16.790 -0.0987  0.5844 -1.1423
12215TIP3    H258137   1.789   0.601  16.939  1.2474  0.9727 -0.8926
12216TIP3   OH258138   3.769   2.394   1.027 -0.0721  0.0029  0.5885
12216TIP3    H158139   3.784   2.337   1.102 -0.9241 -0.7877  0.1622
12216TIP3    H258140   3.782   2.338   0.950 -1.8680  0.1011  0.1664
12217TIP3   OH258141   5.457   6.335   4.897 -0.7728  0.0203  0.1138
12217TIP3    H158142   5.537   6.387   4.903 -0.9999  0.3112  0.8355
12217TIP3    H258143   5.408   6.359   4.976 -1.6348 -0.0392 -0.3959
12218TIP3   OH258144   0.050   3.829   2.454 -0.7169  0.1285 -0.4277
12218TIP3    H158145   0.041   3.881   2.374 -0.1404  2.3506  0.8624
12218TIP3    H258146  -0.006   3.873   2.517 -1.2731 -1.6749  0.3844
12219TIP3   OH258147   6.398   6.294  13.287 -0.0000  0.1042 -0.2052
12219TIP3    H158148   6.427   6.374  13.331  2.5389  0.3416 -2.0617
12219TIP3    H258149   6.309   6.312  13.258  0.2833  2.0084  0.0211
12220TIP3   OH258150   6.714   4.303   5.200 -0.2022  0.1650 -0.4221
12220TIP3    H158151   6.759   4.321   5.117  0.1921 -0.3847 -0.3220
12220TIP3    H258152   6.767   4.238   5.244 -0.0959  0.8812  0.5426
12221TIP3   OH258153   2.075   3.069   6.312  0.2216  0.4657 -0.0549
12221TIP3    H158154   2.012   3.005   6.345 -0.1783 -0.1612 -1.9243
12221TIP3    H258155   2.027   3.151   6.308  0.1367  0.4430  0.4321
12222TIP3   OH258156   6.766   4.827   3.738 -0.3721  0.4910  0.3910
12222TIP3    H158157   6.674   4.823   3.713 -0.3702  0.4624  0.3880
12222TIP3    H258158   6.808   4.758   3.687  0.3100  2.7096 -2.3187
12223TIP3   OH258159   4.224   0.996  11.492  0.0941 -0.4771  0.4043
12223TIP3    H158160   4.299   1.014  11.549 -0.5459  0.2245  1.0587
12223TIP3    H258161   4.226   1.068  11.427  0.6975 -1.1540 -0.3482
12224TIP3   OH258162   0.937   0.398  10.965  0.4282  0.1932 -0.6191
12224TIP3    H158163   0.996   0.473  10.955 -2.2933  2.4554 -0.7802
12224TIP3    H258164   0.883   0.400  10.886 -0.6374 -1.0987  0.0512
12225TIP3   OH258165   6.660   2.539  13.116  0.0319 -0.1640 -0.2289
12225TIP3    H158166   6.727   2.547  13.185 -0.2949  3.6216 -0.1233
12225TIP3    H258167   6.578   2.563  13.160 -0.5885 -0.0982 -1.3791
12226TIP3   OH258168   3.089   1.672  12.132  0.0997 -0.2935  0.2606
12226TIP3    H158169   3.061   1.600  12.075 -0.1282  0.0709 -0.0935
12226TIP3    H258170   3.167   1.639  12.176  0.3049 -0.5635 -0.3028
12227TIP3   OH258171   5.656   4.065   2.103  0.0170  0.1880 -0.0886
12227TIP3    H158172   5.576   4.022   2.134  1.2729 -2.1736  0.1123
12227TIP3    H258173   5.718   4.055   2.175  0.5598  1.9230 -0.2633
12228TIP3   OH258174   0.351   2.615  13.583 -0.0271  0.3196  0.5484
12228TIP3    H158175   0.315   2.673  13.650  0.3404  0.2123  0.8434
12228TIP3    H258176   0.444   2.635  13.581  0.0026  0.1636  0.2263
12229TIP3   OH258177   5.038   6.486  14.255  0.1222 -0.0708  0.0404
12229TIP3    H158178   5.006   6.472  14.344  0.0836  1.6703  0.3373
12229TIP3    H258179   5.091   6.409  14.236 -1.7010 -1.5527  0.6994
12230TIP3   OH258180   6.143   0.668   5.808 -0.0132  0.6822  0.4076
12230TIP3    H158181   6.056   0.689   5.775 -0.1902 -1.5913 -0.7849
12230TIP3    H258182   6.137   0.576   5.835  2.3700 -0.0572 -1.2083
12231TIP3   OH258183   3.513   4.539  11.341 -0.3708  0.0964 -0.1667
12231TIP3    H158184   3.464   4.480  11.399 -0.9234 -0.0584 -0.7816
12231TIP3    H258185   3.500   4.626  11.378  0.6679 -0.1864  0.9038
12232TIP3   OH258186   0.359   1.535   1.597 -0.4809 -0.0481  0.4232
12232TIP3    H158187   0.344   1.614   1.544 -0.1645  0.0732  0.5152
12232TIP3    H258188   0.447   1.546   1.631 -0.2679 -0.6546  0.0764
12233TIP3   OH258189   0.401   4.632  11.898  0.1556 -0.0393  0.0944
12233TIP3    H158190   0.479   4.612  11.948 -0.5180 -0.9826  0.8057
12233TIP3    H258191   0.434   4.666  11.814  1.3410 -1.4723 -0.0638
12234TIP3   OH258192   1.271   5.051  13.780 -0.1641 -0.0388 -0.2612
12234TIP3    H158193   1.226   5.121  13.828  0.0804 -0.5365  0.7222
12234TIP3    H258194   1.224   4.971  13.805  0.5716 -0.4252 -0.0893
12235TIP3   OH258195   6.771   4.830  11.920 -0.1473  0.0566 -0.2319
12235TIP3    H158196   6.734   4.806  12.005  2.2451 -1.6406  0.4673
12235TIP3    H258197   6.826   4.906  11.938  1.5818 -1.2220  0.1617
12236TIP3   OH258198   1.678   4.756   0.409 -0.3801  0.3905 -0.1480
12236TIP3    H158199   1.725   4.764   0.326 -1.1490 -2.6513 -0.9794
12236TIP3    H258200   1.592   4.722   0.385 -1.0371  0.5556  1.8113
12237TIP3   OH258201   4.708   0.936   1.409  0.2828 -0.1481  0.8522
12237TIP3    H158202   4.619   0.934   1.374  1.1861 -0.0850 -1.6045
12237TIP3    H258203   4.736   0.845   1.410  0.5177 -0.0788  0.7064
12238TIP3   OH258204   6.821   3.527   2.043 -0.2545 -0.1916  0.8634
12238TIP3    H158205   6.761   3.602   2.050 -3.0042 -2.3540  2.4256
12238TIP3    H258206   6.783   3.461   2.100  2.2858 -2.6756 -0.1204
12239TIP3   OH258207   5.914   2.525  15.036 -0.6915 -0.1282 -0.6331
12239TIP3    H158208   5.959   2.446  15.008  0.7961  0.7485 -0.8243
12239TIP3    H258209   5.938   2.591  14.971 -0.5376  0.8968  0.4241
12240TIP3   OH258210   3.544   6.140  11.565 -0.1283 -0.3520  0.6184
12240TIP3    H158211   3.473   6.146  11.502 -0.4674  0.1852  1.0459
12240TIP3    H258212   3.505   6.168  11.648  0.4800 -0.4197  0.9324
12241TIP3   OH258213   1.910   6.732  12.931  0.2666 -0.5240 -0.6499
12241TIP3    H158214   1.952   6.725  13.016 -2.3465 -2.0192  0.6364
12241TIP3    H258215   1.845   6.661  12.930 -3.4051  2.5513 -1.7196
12242TIP3   OH258216   5.675   0.019  12.630  0.1194 -0.4517 -0.2328
12242TIP3    H158217   5.658   0.088  12.566 -1.6319 -1.4720 -0.9468
12242TIP3    H258218   5.751  -0.027  12.595  0.6248  0.4401 -0.3304
12243TIP3   OH258219   3.749   3.139  11.485  0.0662 -0.2478 -0.4565
12243TIP3    H158220   3.806   3.063  11.470  1.0985  0.3318  0.4093
12243TIP3    H258221   3.664   3.100  11.506  0.5454 -1.1769 -0.1501
12244TIP3   OH258222   3.754   2.163   2.776 -0.2597 -0.5320 -0.1260
12244TIP3    H158223   3.838   2.171   2.822 -0.0358 -1.4056 -0.3558
12244TIP3    H258224   3.777   2.126   2.691 -0.7343  0.5590 -0.7481
12245TIP3   OH258225   0.582   2.664   2.090  0.2263  0.4328  0.9382
12245TIP3    H158226   0.552   2.714   2.015  0.0860  1.5755  1.7285
12245TIP3    H258227   0.520   2.592   2.097 -0.2847  0.8247  0.4951
12246TIP3   OH258228   1.051   1.154   0.965 -0.5171 -0.3108 -0.2429
12246TIP3    H158229   0.984   1.187   0.906 -0.1766  0.9708  0.0679
12246TIP3    H258230   1.004   1.136   1.047 -0.5633  0.2206 -0.1479
12247TIP3   OH258231   5.164   4.674  15.677 -0.0312  0.0643  0.1571
12247TIP3    H158232   5.213   4.593  15.696  0.5117  0.3249 -0.1373
12247TIP3    H258233   5.125   4.697  15.761  1.8414  0.8518  0.8697
12248TIP3   OH258234   1.520   1.863  13.950 -0.0557 -0.0829 -0.2315
12248TIP3    H158235   1.473   1.866  13.867 -0.8181  1.7994  0.2126
12248TIP3    H258236   1.491   1.781  13.991 -2.8153  0.8361 -0.1131
12249TIP3   OH258237   1.121   0.982  13.588 -0.0018  0.0122 -0.4242
12249TIP3    H158238   1.099   1.031  13.509  1.9060  0.7250 -0.5764
12249TIP3    H258239   1.167   1.045  13.643  0.8258 -1.0953  0.1979
12250TIP3   OH258240   2.821   3.577  14.755 -0.1559 -0.2644 -0.2608
12250TIP3    H158241   2.803   3.557  14.847  1.6709 -1.2316 -0.0700
12250TIP3    H258242   2.750   3.534  14.707  0.9992 -3.2900  0.4879
12251TIP3   OH258243   2.885   1.343   5.720  0.7885 -0.5303  0.0922
12251TIP3    H158244   2.856   1.380   5.637  1.5593  2.9494  1.1821
12251TIP3    H258245   2.980   1.337   5.712  0.7602 -1.3944  0.3129
12252TIP3   OH258246   5.047   0.213   0.700 -0.3493  0.7292  0.0008
12252TIP3    H158247   5.105   0.289   0.709  0.6801 -0.1382  0.9997
12252TIP3    H258248   5.045   0.196   0.606  0.3848  1.2678 -0.1229
12253TIP3   OH258249   1.901   6.726   2.144 -0.4700  0.1638  0.0690
12253TIP3    H158250   1.928   6.781   2.218  0.2281  0.9205 -0.7219
12253TIP3    H258251   1.875   6.789   2.076 -0.0203 -0.4915 -0.7267
12254TIP3   OH258252   2.162   5.652   0.886  0.2394  0.0045 -0.5453
12254TIP3    H158253   2.230   5.717   0.904 -0.2604  0.6009 -0.7575
12254TIP3    H258254   2.210   5.570   0.872  0.9622  0.5292 -1.2717
12255TIP3   OH258255   6.535   0.800   4.295  0.2901  0.0454  0.0278
12255TIP3    H158256   6.449   0.781   4.334 -0.2257  0.8782 -0.6697
12255TIP3    H258257   6.583   0.845   4.364 -0.8131  2.0049 -0.4036
12256TIP3   OH258258   1.058   3.255   4.335  0.0793  0.2079  0.2016
12256TIP3    H158259   1.132   3.312   4.356  0.2596  0.5686 -1.2635
12256TIP3    H258260   1.020   3.294   4.256 -0.3852 -1.1531 -0.2709
12257TIP3   OH258261   5.274   4.652   5.352 -1.2396 -0.4873  0.4145
12257TIP3    H158262   5.269   4.635   5.446 -0.8770  0.4569  0.6145
12257TIP3    H258263   5.228   4.578   5.312 -0.4237 -1.4751  1.2636
12258TIP3   OH258264   4.788   2.493  14.474 -0.5389 -0.2933  0.0905
12258TIP3    H158265   4.706   2.445  14.468 -0.2319 -0.6047 -2.3264
12258TIP3    H258266   4.832   2.478  14.391  0.7002  2.1570  0.2010
12259TIP3   OH258267   2.452   0.700   0.035  0.2685 -0.4811 -0.6461
12259TIP3    H158268   2.510   0.713  -0.040 -0.7073  1.0893 -1.1779
12259TIP3    H258269   2.364   0.700  -0.002 -0.2840  1.0873  0.5320
12260TIP3   OH258270   2.689   2.291  10.916 -0.1487 -0.2232 -0.0690
12260TIP3    H158271   2.712   2.285  10.823  1.3151  1.3589  0.1313
12260TIP3    H258272   2.733   2.216  10.956  1.3320  0.4840 -0.3125
12261TIP3   OH258273   6.749   4.750   1.405  0.3604  0.6172 -0.1561
12261TIP3    H158274   6.811   4.704   1.348  1.2817  1.8017 -0.1299
12261TIP3    H258275   6.802   4.787   1.475 -0.9421 -2.4427  2.7186
12262TIP3   OH258276   5.470   1.435  16.065  0.0082 -0.1128  0.3254
12262TIP3    H158277   5.556   1.423  16.024  0.1421  0.7216  0.3622
12262TIP3    H258278   5.474   1.381  16.144  0.5385  0.0033  0.3862
12263TIP3   OH258279   5.940   5.461   5.709  0.6583  0.5901 -0.1425
12263TIP3    H158280   5.964   5.535   5.765  1.2855  1.4570 -1.4948
12263TIP3    H258281   6.017   5.404   5.711  0.3677  0.2038  0.4978
12264TIP3   OH258282   4.730   1.470   2.061 -0.3320 -0.2645  0.4670
12264TIP3    H158283   4.735   1.559   2.096  3.2465 -0.2849  0.3616
12264TIP3    H258284   4.727   1.482   1.966  1.2613 -0.2310  0.4095
12265TIP3   OH258285   0.972   1.687  11.039 -0.4353 -0.6079  0.2529
12265TIP3    H158286   0.893   1.668  10.989 -0.4962  0.3217 -0.0254
12265TIP3    H258287   1.014   1.758  10.991 -0.1725 -0.1229  1.1719
12266TIP3   OH258288   3.224   2.636   3.361 -0.3877 -0.0832 -0.2779
12266TIP3    H158289   3.260   2.565   3.413 -0.7142  0.1310  0.2507
12266TIP3    H258290   3.300   2.688   3.335  0.2657 -2.2819 -3.3217
12267TIP3   OH258291   2.387   0.440  12.401  0.0909  0.5760 -0.0570
12267TIP3    H158292   2.374   0.389  12.481 -1.7019  0.2275 -0.5332
12267TIP3    H258293   2.409   0.527  12.432 -0.7467  0.4901  0.8452
12268TIP3   OH258294   2.227   6.088   5.154 -0.0736 -0.0746 -0.3696
12268TIP3    H158295   2.225   6.172   5.109 -0.9090 -0.3711 -0.9027
12268TIP3    H258296   2.143   6.047   5.133 -0.3812 -0.3379  1.2455
12269TIP3   OH258297   5.608   2.757  13.021  0.1730 -0.3736  0.2238
12269TIP3    H158298   5.627   2.668  12.992 -0.1318 -0.2825 -0.2533
12269TIP3    H258299   5.517   2.772  12.997  0.1937  0.0391  0.3836
12270TIP3   OH258300   5.330   2.677  13.864 -0.0535 -0.2485 -0.0048
12270TIP3    H158301   5.319   2.653  13.956 -0.4609  1.1004  0.3290
12270TIP3    H258302   5.242   2.704  13.835  0.6614  2.7585  0.2895
12271TIP3   OH258303   1.725   1.150   3.783  1.1072 -0.1129  0.0169
12271TIP3    H158304   1.695   1.084   3.845 -2.8684  0.2800 -1.2525
12271TIP3    H258305   1.738   1.102   3.701  1.6202  0.1424 -0.0538
12272TIP3   OH258306   6.150   4.430   1.272  0.3597 -0.2029  0.7505
12272TIP3    H158307   6.144   4.438   1.177  1.3646 -0.3357  0.6584
12272TIP3    H258308   6.072   4.381   1.297 -0.3047  0.4790  0.0902
12273TIP3   OH258309   5.632   2.597   3.768  0.1364  0.4972  0.1085
12273TIP3    H158310   5.658   2.507   3.789 -1.7799  0.0031  0.5308
12273TIP3    H258311   5.613   2.637   3.853  2.3056  1.8156  0.0708
12274TIP3   OH258312   1.451   5.246   9.759 -0.3816 -0.3713  0.0231
12274TIP3    H158313   1.419   5.161   9.790  1.7831 -1.1676  0.2276
12274TIP3    H258314   1.511   5.275   9.827  2.0702 -0.6758 -1.8596
12275TIP3   OH258315   6.738   0.360   1.355  0.2608 -0.4412 -0.0862
12275TIP3    H158316   6.790   0.419   1.301 -2.8433  2.8902  0.2083
12275TIP3    H258317   6.780   0.362   1.441 -0.5781  2.7155  0.3460
12276TIP3   OH258318   0.680   3.133   5.209  0.2953 -0.2696 -0.1354
12276TIP3    H158319   0.625   3.092   5.143 -0.4793 -0.3555  0.5362
12276TIP3    H258320   0.650   3.095   5.292  0.1400  1.0128  0.4248
12277TIP3   OH258321   0.572   2.830   0.154 -0.1616 -0.1495  0.1672
12277TIP3    H158322   0.537   2.907   0.111  0.2667  0.4289  0.8257
12277TIP3    H258323   0.575   2.763   0.086  2.8447  1.4115 -1.4484
12278TIP3   OH258324   6.678   0.342   1.758 -0.3633 -0.1763  0.1339
12278TIP3    H158325   6.630   0.425   1.756  0.5225  0.3370 -0.3147
12278TIP3    H258326   6.756   0.361   1.810 -0.0606 -0.6660 -0.1343
12279TIP3   OH258327   3.005   1.953  14.499  0.2015 -0.2690 -0.1464
12279TIP3    H158328   2.986   1.978  14.589 -0.4726  1.6299 -0.7621
12279TIP3    H258329   2.920   1.953  14.455  0.4369 -1.8053 -0.6607
12280TIP3   OH258330   2.437   1.618   5.910 -0.4017  0.4100 -0.0870
12280TIP3    H158331   2.519   1.574   5.887 -0.7485  0.6569 -2.0249
12280TIP3    H258332   2.462   1.707   5.933 -0.0903  0.3929 -0.3521
12281TIP3   OH258333   2.506   4.599   5.435  0.2794 -0.5950  0.1719
12281TIP3    H158334   2.484   4.507   5.451 -2.9753 -0.0454 -0.3966
12281TIP3    H258335   2.528   4.602   5.341 -1.8187 -0.5203 -0.3628
12282TIP3   OH258336   2.941   3.316  10.743  0.0004  0.2109  0.0882
12282TIP3    H158337   2.917   3.379  10.675 -1.6956 -0.1573  0.3009
12282TIP3    H258338   2.867   3.254  10.746  1.9908 -2.4028 -0.7749
12283TIP3   OH258339   0.261   3.183  13.081 -0.0084  0.1681  0.4009
12283TIP3    H158340   0.266   3.268  13.036 -1.1047 -1.3540 -2.9240
12283TIP3    H258341   0.172   3.180  13.116 -0.1409  0.1847  0.0686
12284TIP3   OH258342   0.211   3.359   5.277  0.2442  0.5856 -0.3319
12284TIP3    H158343   0.185   3.325   5.363  0.5257 -0.9208 -0.8103
12284TIP3    H258344   0.307   3.355   5.278  0.2476  0.4840 -0.7324
12285TIP3   OH258345   1.089   2.246   5.295  0.0155 -0.2989  0.0298
12285TIP3    H158346   1.042   2.280   5.371 -2.1044 -0.2178 -1.2528
12285TIP3    H258347   1.102   2.323   5.239  0.8300 -0.5037 -0.0771
12286TIP3   OH258348   5.318   5.852  14.411  0.6862 -0.2598  0.0673
12286TIP3    H158349   5.240   5.796  14.409  0.0578  0.6149 -0.4881
12286TIP3    H258350   5.306   5.906  14.490  0.9045 -0.3562  0.1676
12287TIP3   OH258351   3.337   6.493  11.127 -0.9833 -0.0698 -0.4483
12287TIP3    H158352   3.303   6.436  11.196 -0.4505  0.5691  0.3557
12287TIP3    H258353   3.265   6.554  11.109 -0.9870  0.0055 -0.1824
12288TIP3   OH258354   5.167   4.448   3.990  0.2879 -0.4808  0.1965
12288TIP3    H158355   5.243   4.447   4.047 -0.3485 -0.9713  1.0559
12288TIP3    H258356   5.124   4.364   4.005 -1.5436  0.5902  1.2877
12289TIP3   OH258357   4.503   5.211  14.742 -0.6009  0.0210 -0.0559
12289TIP3    H158358   4.465   5.250  14.663 -0.2894 -1.6858 -1.1044
12289TIP3    H258359   4.436   5.151  14.774 -0.7404  0.7340  1.0346
12290TIP3   OH258360   2.535   2.785   1.497 -0.8441 -0.6828 -0.4152
12290TIP3    H158361   2.580   2.830   1.426 -1.4954  0.7514  0.0404
12290TIP3    H258362   2.570   2.696   1.495  0.0381 -0.3359 -1.7424
12291TIP3   OH258363   0.333   3.435  12.996 -0.3069  0.4171 -0.4229
12291TIP3    H158364   0.359   3.485  13.073  0.5212  1.1700 -1.1688
12291TIP3    H258365   0.261   3.484  12.958 -1.4725 -0.5550  0.4785
12292TIP3   OH258366   5.555   2.914   1.202  0.1139  0.8130 -0.3995
12292TIP3    H158367   5.507   2.902   1.121  0.5967 -2.1351 -0.3526
12292TIP3    H258368   5.647   2.915   1.175  0.4396 -2.5065  0.1518
12293TIP3   OH258369   3.063   2.250  12.845  0.6215 -0.0300 -0.1240
12293TIP3    H158370   3.116   2.297  12.910  0.1895  0.2011  0.0655
12293TIP3    H258371   3.091   2.159  12.853 -1.6018 -0.6171  2.6265
12294TIP3   OH258372   0.196   1.715  16.274  0.2571 -0.4121 -0.4599
12294TIP3    H158373   0.256   1.746  16.206  1.1044 -1.1461 -0.0716
12294TIP3    H258374   0.195   1.786  16.339  0.2638 -0.1615 -0.7294
12295TIP3   OH258375   0.530   1.243   5.664  0.2774  0.5290  0.4738
12295TIP3    H158376   0.571   1.158   5.677 -0.2929  0.2516  0.5051
12295TIP3    H258377   0.477   1.256   5.743 -0.1732  0.5988  0.1629
12296TIP3   OH258378   3.588   0.975   2.121  0.5123 -0.0839  0.4999
12296TIP3    H158379   3.608   1.011   2.034  1.4077 -1.6412  0.0243
12296TIP3    H258380   3.657   1.010   2.178 -0.2567  1.1942  0.6794
12297TIP3   OH258381   0.517   0.008   4.794 -0.3293  0.3642  0.3328
12297TIP3    H158382   0.582  -0.029   4.733 -0.1264  2.0526 -0.5232
12297TIP3    H258383   0.477  -0.069   4.835 -0.6727 -0.8846 -2.1258
12298TIP3   OH258384   1.711   6.067   2.233 -0.9395 -0.6401 -0.3270
12298TIP3    H158385   1.776   6.056   2.302 -0.1892 -2.1988 -1.2296
12298TIP3    H258386   1.672   6.153   2.250  1.9223  0.7381 -0.2214
12299TIP3   OH258387   2.520   3.609  12.303  0.4004 -0.2543  0.1655
12299TIP3    H158388   2.445   3.621  12.246 -0.2653 -0.7043  0.9344
12299TIP3    H258389   2.565   3.532  12.268  0.5348  0.0450 -0.3241
12300TIP3   OH258390   4.891   3.333  15.587  0.1669 -1.0455  0.3768
12300TIP3    H158391   4.872   3.360  15.677 -0.5300 -0.1960 -0.0055
12300TIP3    H258392   4.807   3.340  15.542  1.2540  3.4698 -1.5761
12301TIP3   OH258393   3.999   0.223   5.020  0.1737  0.8129  0.2990
12301TIP3    H158394   4.010   0.304   4.971 -0.5944  1.1789  0.7156
12301TIP3    H258395   4.007   0.154   4.955 -0.1654  1.2675 -0.2310
12302TIP3   OH258396   1.676   3.633  10.844 -0.4457  0.0977 -0.2231
12302TIP3    H158397   1.638   3.621  10.757  1.7878 -1.0777 -1.1343
12302TIP3    H258398   1.764   3.668  10.826  0.4375 -1.1078  1.4732
12303TIP3   OH258399   4.653   4.987   2.162 -0.0763 -0.4181  0.2716
12303TIP3    H158400   4.708   4.909   2.151 -2.1737 -2.0173  0.6727
12303TIP3    H258401   4.668   5.038   2.082 -2.8514 -4.0051 -2.8733
12304TIP3   OH258402   4.302   6.508  13.826 -0.5097 -0.5341 -0.0547
12304TIP3    H158403   4.355   6.564  13.883 -0.3400 -1.3387  0.5984
12304TIP3    H258404   4.220   6.556  13.814  0.6634  1.1447 -1.8074
12305TIP3   OH258405   5.434   2.966   0.325 -0.5511  0.5937  0.1064
12305TIP3    H158406   5.427   2.972   0.420  0.0508  2.3621  0.0621
12305TIP3    H258407   5.361   2.909   0.300 -2.2866  2.1200  1.4016
12306TIP3   OH258408   0.073   6.366   0.792 -0.1122  0.4867  0.2298
12306TIP3    H158409   0.074   6.438   0.729 -1.4084 -0.2376 -0.6696
12306TIP3    H258410   0.005   6.306   0.760  1.4239 -1.5259  0.5216
12307TIP3   OH258411   1.472   2.262   2.205  0.6897 -0.1245  0.2664
12307TIP3    H158412   1.550   2.302   2.166  0.2200  0.5035 -0.0538
12307TIP3    H258413   1.506   2.203   2.272  1.4121  0.9752  0.9010
12308TIP3   OH258414   3.873   2.841   3.881 -0.2782 -0.1727  0.0568
12308TIP3    H158415   3.935   2.907   3.849  0.0706 -1.1240 -1.2935
12308TIP3    H258416   3.915   2.804   3.959  1.2145 -1.2785 -1.2205
12309TIP3   OH258417   2.542   2.125   3.516 -0.1731 -0.1683 -0.2199
12309TIP3    H158418   2.463   2.171   3.545  0.1428  0.0172  0.3524
12309TIP3    H258419   2.604   2.136   3.587  0.4028 -0.2515 -0.6973
12310TIP3   OH258420   1.284   1.877  10.556  0.8163  0.3430  0.0440
12310TIP3    H158421   1.278   1.794  10.603 -1.1426  0.5116  0.1785
12310TIP3    H258422   1.194   1.910  10.554  0.8989  0.6480 -3.3424
12311TIP3   OH258423   2.713   5.102  16.366  0.2346  0.6942 -0.2757
12311TIP3    H158424   2.619   5.088  16.375  0.2974  0.2736 -0.2559
12311TIP3    H258425   2.752   5.040  16.428  0.5155  1.0691 -0.0702
12312TIP3   OH258426   3.187   0.583  10.784  0.2391 -0.8792  0.9963
12312TIP3    H158427   3.170   0.518  10.715 -0.8091 -0.0840  0.4768
12312TIP3    H258428   3.160   0.540  10.865  0.3939 -1.4139  0.7699
12313TIP3   OH258429   5.346   6.816   2.050 -0.1511 -0.4435  0.2087
12313TIP3    H158430   5.435   6.787   2.033 -0.2097 -0.0883 -0.7399
12313TIP3    H258431   5.307   6.828   1.964 -0.8150  0.3383  0.6008
12314TIP3   OH258432   6.662   4.856   2.491 -0.4494  0.1706  0.4213
12314TIP3    H158433   6.596   4.918   2.459 -0.9958  0.6230  2.2771
12314TIP3    H258434   6.744   4.884   2.450 -0.9463  1.2551  0.1338
12315TIP3   OH258435   6.523   5.848  11.102 -0.0727 -0.4745 -0.0991
12315TIP3    H158436   6.563   5.880  11.182 -1.2598 -1.3008  0.8635
12315TIP3    H258437   6.537   5.918  11.038 -1.9379  1.6863  1.6905
12316TIP3   OH258438   2.936   1.985  14.797  0.0371  0.2496  0.3231
12316TIP3    H158439   2.844   1.962  14.802  0.0837 -0.1143 -0.3238
12316TIP3    H258440   2.982   1.902  14.809  0.2626  0.3234 -0.0175
12317TIP3   OH258441   3.097   6.599  13.915  0.8333 -0.1364  0.0573
12317TIP3    H158442   3.153   6.557  13.849  2.0878  0.5712  0.6478
12317TIP3    H258443   3.010   6.600  13.875  1.0662 -1.8838 -0.6088
12318TIP3   OH258444   5.853   0.257   4.965  0.2727 -0.2864 -0.2342
12318TIP3    H158445   5.893   0.306   4.894  0.4596  1.1226  0.7914
12318TIP3    H258446   5.926   0.217   5.012  0.4410  1.2849  0.9189
12319TIP3   OH258447   5.620   4.240   3.255 -0.3405  0.0015 -0.4614
12319TIP3    H158448   5.526   4.254   3.242 -0.1718  0.0163 -1.8131
12319TIP3    H258449   5.625   4.173   3.323 -1.3388 -0.0838 -0.4556
12320TIP3   OH258450   5.409   0.623   2.579 -0.9015 -0.1534 -0.3927
12320TIP3    H158451   5.333   0.609   2.635  0.0534  2.0944  1.6489
12320TIP3    H258452   5.484   0.612   2.637  0.1553  1.6010 -1.3354
12321TIP3   OH258453   1.517   4.457   3.606  0.1907 -0.6079  0.0777
12321TIP3    H158454   1.576   4.500   3.667 -0.3156 -0.1411  0.2417
12321TIP3    H258455   1.467   4.395   3.659  0.7561 -1.2407 -0.1176
12322TIP3   OH258456   3.604   6.857   0.087 -0.3640  0.7918  0.1640
12322TIP3    H158457   3.610   6.852  -0.008  0.0967  1.4712  0.1527
12322TIP3    H258458   3.673   6.918   0.113  0.1610 -0.1118  1.0136
12323TIP3   OH258459   0.415   6.083   0.935  0.0319  0.2600 -0.1261
12323TIP3    H158460   0.332   6.120   0.964  0.6093  0.4629  1.3287
12323TIP3    H258461   0.473   6.158   0.925 -0.4550  0.3874 -3.1777
12324TIP3   OH258462   5.056   3.945   2.229 -0.7841  0.1297 -0.4801
12324TIP3    H158463   5.054   4.020   2.289  1.4804  0.5090 -0.7950
12324TIP3    H258464   5.080   3.871   2.285 -1.7285 -0.1395 -0.4079
12325TIP3   OH258465   4.799   6.769  15.872  0.6340  0.1950  0.3755
12325TIP3    H158466   4.779   6.765  15.966 -2.4566 -1.9817 -0.2089
12325TIP3    H258467   4.843   6.685  15.854 -0.8425 -0.4457 -0.4288
12326TIP3   OH258468   5.129   0.312  12.357  0.1641 -0.2223  0.4716
12326TIP3    H158469   5.109   0.237  12.300 -1.1503 -0.0761  0.7278
12326TIP3    H258470   5.128   0.276  12.445 -2.4889  0.4510  0.7759
12327TIP3   OH258471   0.815   1.270   3.211 -0.8756 -0.0942 -0.0974
12327TIP3    H158472   0.905   1.299   3.228 -0.9324  0.8909 -1.2815
12327TIP3    H258473   0.783   1.238   3.295  0.1992  0.6293  0.6111
12328TIP3   OH258474   6.872   5.836  16.471 -0.3725  0.1981  0.0959
12328TIP3    H158475   6.871   5.909  16.534  0.4076  0.9942 -0.7891
12328TIP3    H258476   6.794   5.850  16.418  0.4851  1.2322 -0.9642
12329TIP3   OH258477   5.627   6.753   0.194 -0.8735  0.2989  0.3365
12329TIP3    H158478   5.702   6.726   0.248 -2.0175 -3.7683  0.2265
12329TIP3    H258479   5.586   6.823   0.245  1.0799  0.3074  2.0626
12330TIP3   OH258480   1.881   6.561  15.742  0.2462 -0.0913 -0.5635
12330TIP3    H158481   1.849   6.648  15.763 -1.7214 -0.8092 -0.3995
12330TIP3    H258482   1.844   6.542  15.656  1.1044 -0.5691 -0.8388
12331TIP3   OH258483   6.003   2.246  14.068 -0.0717 -0.4734  0.1610
12331TIP3    H158484   5.983   2.325  14.117  0.7311 -0.2311  0.1200
12331TIP3    H258485   5.999   2.175  14.133 -0.5146 -0.3660  0.2542
12332TIP3   OH258486   4.293   5.584  13.877 -0.2305  0.0016  0.1759
12332TIP3    H158487   4.326   5.623  13.796 -0.5459  1.9630  0.9340
12332TIP3    H258488   4.372   5.567  13.929 -0.1513  0.9413  0.3812
12333TIP3   OH258489   3.226   2.272  16.851 -0.6191 -0.2531  0.0661
12333TIP3    H158490   3.271   2.200  16.808  0.7386  0.3882  0.3439
12333TIP3    H258491   3.265   2.351  16.812  1.1861  0.3741  2.8779
12334TIP3   OH258492   3.643   1.816   2.974  0.5923  0.1032 -0.1341
12334TIP3    H158493   3.595   1.837   3.054 -1.3377 -3.3466 -0.1880
12334TIP3    H258494   3.621   1.885   2.912 -0.1914  1.2891  1.4232
12335TIP3   OH258495   0.936   3.487   2.042  0.1355 -0.2836  0.5241
12335TIP3    H158496   0.852   3.476   1.999  0.7979 -0.7100 -0.7232
12335TIP3    H258497   0.999   3.449   1.981  1.2687  0.3421  1.2643
12336TIP3   OH258498   2.921   3.096   5.576  0.3174 -0.0831  0.2146
12336TIP3    H158499   2.905   3.058   5.490  2.1753 -2.8138  0.9518
12336TIP3    H258500   2.835   3.099   5.618 -0.7379  2.0086 -1.9083
12337TIP3   OH258501   4.566   0.622   3.046 -0.1244 -0.2028 -0.1636
12337TIP3    H158502   4.596   0.615   2.955  0.4859 -0.9273  0.0816
12337TIP3    H258503   4.476   0.591   3.044 -0.3187  0.3607 -0.6154
12338TIP3   OH258504   2.774   5.579  15.871  0.3754  0.0244  0.3282
12338TIP3    H158505   2.804   5.668  15.891  0.2436  0.4125 -1.1066
12338TIP3    H258506   2.688   5.572  15.912 -1.0253  1.6801 -2.0857
12339TIP3   OH258507   0.190   0.715   3.841  0.3347  0.0577 -0.0881
12339TIP3    H158508   0.094   0.709   3.844  0.4475 -1.4763  2.0053
12339TIP3    H258509   0.207   0.807   3.821 -1.5869  0.6510  0.7553
12340TIP3   OH258510   0.855   0.488  10.697  0.8115  0.1295 -0.7863
12340TIP3    H158511   0.870   0.553  10.628  1.2416  0.3166 -0.5249
12340TIP3    H258512   0.769   0.510  10.732  0.6107  0.0596 -1.2350
12341TIP3   OH258513   6.142   3.751  10.752  0.0365  0.3696  0.2400
12341TIP3    H158514   6.062   3.714  10.790  0.1489 -0.8052 -0.6007
12341TIP3    H258515   6.152   3.705  10.669  0.8075  1.5440 -0.3426
12342TIP3   OH258516   2.089   4.272  16.869 -0.3375  0.0813  0.0628
12342TIP3    H158517   2.105   4.329  16.944 -0.2191  0.7248 -0.4390
12342TIP3    H258518   2.140   4.312  16.798 -1.0564 -0.0762 -0.5569
12343TIP3   OH258519   3.854   2.286   4.178  0.5946 -0.4689  0.7337
12343TIP3    H158520   3.905   2.206   4.165  2.6188  0.8618 -0.0955
12343TIP3    H258521   3.908   2.355   4.139 -1.6745  1.1394  0.2312
12344TIP3   OH258522   3.413   5.509   1.701 -0.4353  0.0285 -0.1905
12344TIP3    H158523   3.483   5.531   1.640  1.0708  0.3973  1.5731
12344TIP3    H258524   3.357   5.587   1.703 -0.4166  0.0689 -0.9497
12345TIP3   OH258525   3.315   1.285  12.197  0.1351 -0.2650  0.0890
12345TIP3    H158526   3.280   1.261  12.111  0.3659 -1.0267  0.2008
12345TIP3    H258527   3.346   1.375  12.186 -2.0762  0.5700  0.0536
12346TIP3   OH258528   4.825   5.669   2.367  0.8860 -0.4440  0.1562
12346TIP3    H158529   4.917   5.666   2.344  0.3560 -1.8432 -2.1108
12346TIP3    H258530   4.787   5.593   2.323 -0.6884 -2.4304  4.3186
12347TIP3   OH258531   5.212   0.951  14.028 -0.0630  0.1776 -0.3837
12347TIP3    H158532   5.179   0.949  14.118 -1.2761  0.0365 -0.8096
12347TIP3    H258533   5.235   0.860  14.009  0.5353  0.2680 -0.0981
12348TIP3   OH258534   1.863   2.099  13.398  0.1235 -0.4538 -0.1231
12348TIP3    H158535   1.776   2.115  13.360  0.1543 -0.3439 -0.1477
12348TIP3    H258536   1.871   2.004  13.399  0.7016 -0.4508 -1.7095
12349TIP3   OH258537   0.636   3.561  10.435  0.3676 -0.5782 -0.2125
12349TIP3    H158538   0.611   3.472  10.411  1.5131 -0.9668 -0.0417
12349TIP3    H258539   0.559   3.597  10.479  0.8802 -2.5787  2.5910
12350TIP3   OH258540   1.408   0.366   5.370  0.1577 -0.8582  0.7174
12350TIP3    H158541   1.422   0.272   5.375  0.6788 -0.7424  1.6323
12350TIP3    H258542   1.495   0.404   5.378  0.2252 -0.3259 -1.7938
12351TIP3   OH258543   5.829   1.039  12.828 -0.2925  0.0715 -0.2443
12351TIP3    H158544   5.909   0.987  12.820 -1.5370 -1.9797 -0.1247
12351TIP3    H258545   5.842   1.091  12.907  0.6623 -0.7502  0.1619
12352TIP3   OH258546   6.633   3.978  10.522  0.0890 -0.4377  0.8150
12352TIP3    H158547   6.604   4.048  10.464  0.9606  0.2808  1.2383
12352TIP3    H258548   6.728   3.982  10.519  0.2559  1.3805  4.3102
12353TIP3   OH258549   5.334   1.721  15.256 -0.0805 -0.5839  0.6789
12353TIP3    H158550   5.328   1.777  15.178  3.3636 -0.7818  0.1004
12353TIP3    H258551   5.273   1.650  15.240  0.1938 -0.3720 -1.6857
12354TIP3   OH258552   4.038   1.583  12.415  0.2455  0.1654 -0.0862
12354TIP3    H158553   4.097   1.536  12.356  0.3995  0.6685 -0.3374
12354TIP3    H258554   4.006   1.516  12.475  2.3094  0.1301  1.0845
12355TIP3   OH258555   5.827   2.487  12.158  0.1323  0.1405 -0.6253
12355TIP3    H158556   5.768   2.452  12.225  0.0730  0.6410 -0.4183
12355TIP3    H258557   5.771   2.506  12.083  0.3738 -1.6715 -1.3338
12356TIP3   OH258558   6.057   5.969   2.274  0.2188 -0.9504  0.2676
12356TIP3    H158559   6.130   5.913   2.246  1.1405  0.1574  0.3783
12356TIP3    H258560   6.098   6.054   2.291 -1.2308 -0.0778 -0.4384
12357TIP3   OH258561   5.641   2.708   3.037  0.8288  0.0025 -0.2897
12357TIP3    H158562   5.688   2.631   3.004  2.2462 -0.1616  1.9024
12357TIP3    H258563   5.703   2.780   3.029  0.3565  0.4318 -0.1508
12358TIP3   OH258564   2.546   0.020  16.211  0.0230  0.2225 -0.8981
12358TIP3    H158565   2.634   0.044  16.182  0.5579  0.4056  0.8137
12358TIP3    H258566   2.535  -0.070  16.180  1.0715 -0.0233 -0.5875
12359TIP3   OH258567   0.839   0.199   0.532  0.6024  0.0888  0.1361
12359TIP3    H158568   0.863   0.254   0.607  2.1062  0.4261 -0.5560
12359TIP3    H258569   0.922   0.175   0.492 -0.1640 -0.0561 -1.4530
12360TIP3   OH258570   3.518   2.234  14.242  0.2716 -0.0805 -0.9707
12360TIP3    H158571   3.460   2.284  14.300  0.5285  0.9800 -1.5919
12360TIP3    H258572   3.594   2.212  14.296 -0.3257 -0.7511 -0.3861
12361TIP3   OH258573   4.987   1.839  16.006 -0.0559  0.2344  0.0185
12361TIP3    H158574   4.986   1.934  16.010 -1.4215  0.1975  1.1810
12361TIP3    H258575   4.915   1.816  15.948 -0.0780 -0.1105  0.1810
12362TIP3   OH258576   4.501   5.995   2.491  0.0994  0.2122 -0.8578
12362TIP3    H158577   4.558   5.920   2.509 -2.2157 -1.7970 -1.2365
12362TIP3    H258578   4.547   6.070   2.527  2.7358 -1.3224 -0.7898
12363TIP3   OH258579   5.879   5.487   0.631 -0.3329 -0.0274 -0.2995
12363TIP3    H158580   5.799   5.435   0.636  0.1857 -1.1072 -2.1467
12363TIP3    H258581   5.907   5.480   0.539  2.0300  0.0273  0.3301
12364TIP3   OH258582   2.112   1.687   3.726 -0.1317  0.0865 -0.0679
12364TIP3    H158583   2.066   1.721   3.803 -0.0740 -0.7634  0.3514
12364TIP3    H258584   2.127   1.595   3.746  1.3759  0.2395 -0.3801
12365TIP3   OH258585   2.814   4.346   3.212 -0.7135  0.6332 -0.0800
12365TIP3    H158586   2.885   4.408   3.198 -1.8104  1.8113 -0.5618
12365TIP3    H258587   2.819   4.287   3.136 -0.1203  0.5624  0.0085
12366TIP3   OH258588   6.034   2.829   5.211  0.4470  0.4804  0.5197
12366TIP3    H158589   6.067   2.919   5.215 -0.6039  1.0767 -2.2238
12366TIP3    H258590   5.940   2.838   5.226  0.1140  0.0607 -1.1637
12367TIP3   OH258591   1.595   3.554   0.139  0.6617 -0.2389 -0.4154
12367TIP3    H158592   1.530   3.485   0.149 -0.0851  0.2307 -1.8463
12367TIP3    H258593   1.559   3.612   0.073  0.8976  1.9910  1.2824
12368TIP3   OH258594   3.321   6.052   3.554 -0.0818  0.0053 -0.8403
12368TIP3    H158595   3.265   6.063   3.477  0.3835  0.0940 -1.1667
12368TIP3    H258596   3.268   6.085   3.626 -1.2762 -1.8009 -0.8121
12369TIP3   OH258597   3.473   0.657  11.315  0.1165 -0.5796  0.1707
12369TIP3    H158598   3.436   0.742  11.342  1.1272 -0.0900  0.0606
12369TIP3    H258599   3.470   0.660  11.219 -4.1216 -2.5987 -0.0067
12370TIP3   OH258600   4.546   2.301   4.481  0.2043 -0.1063  0.2168
12370TIP3    H158601   4.467   2.327   4.529 -0.8877 -1.3397 -0.8332
12370TIP3    H258602   4.558   2.371   4.416  1.0643  1.0127  1.5236
12371TIP3   OH258603   1.438   3.986   4.456 -0.0786 -0.1662  0.1044
12371TIP3    H158604   1.360   4.024   4.498 -0.8729 -1.7714  0.1435
12371TIP3    H258605   1.429   3.892   4.470  2.1141 -0.3604  0.4757
12372TIP3   OH258606   4.680   6.434   0.586 -0.0616 -0.5181 -0.5700
12372TIP3    H158607   4.693   6.340   0.598 -0.8061 -0.4047  1.8221
12372TIP3    H258608   4.716   6.473   0.666  1.0507  1.3477 -1.9022
12373TIP3   OH258609   2.972   3.118  11.174  0.0008 -0.2098  0.2469
12373TIP3    H158610   2.985   3.026  11.153 -1.3271 -0.8257  1.9191
12373TIP3    H258611   3.060   3.151  11.192  0.3495 -1.6031  1.2596
12374TIP3   OH258612   3.301   5.280   0.483  0.3691  0.3466  0.0222
12374TIP3    H158613   3.333   5.314   0.400  0.1577  0.6942  0.0816
12374TIP3    H258614   3.298   5.356   0.541 -2.2168  0.7262 -0.4667
12375TIP3   OH258615   1.532   5.188  15.614 -0.1723  0.0110  0.2392
12375TIP3    H158616   1.450   5.167  15.658  0.1275  2.2213  2.0569
12375TIP3    H258617   1.599   5.146  15.668 -0.0578 -1.5323 -1.0654
12376TIP3   OH258618   3.385   1.863  11.081 -0.4710 -0.1495 -0.5804
12376TIP3    H158619   3.336   1.830  11.006 -0.2368 -0.3581 -0.6421
12376TIP3    H258620   3.372   1.797  11.149 -0.3384 -0.1670 -0.5720
12377TIP3   OH258621   3.920   5.664   1.493 -0.4133  0.0466  0.5601
12377TIP3    H158622   4.006   5.629   1.469 -0.7522 -0.3089 -0.1491
12377TIP3    H258623   3.907   5.739   1.436 -0.1857  0.6586  1.2980
12378TIP3   OH258624   3.640   5.879  16.154  0.0773 -0.6688 -0.3035
12378TIP3    H158625   3.665   5.788  16.167 -0.9797 -0.7020  1.9807
12378TIP3    H258626   3.544   5.879  16.162 -0.0036  0.5237 -1.0974
12379TIP3   OH258627   5.299   6.750  14.145  0.3920 -0.1076  0.0525
12379TIP3    H158628   5.317   6.656  14.132  1.5033  0.3381 -2.2864
12379TIP3    H258629   5.378   6.783  14.188  0.3041 -0.1181  0.2224
12380TIP3   OH258630   2.291   6.655   4.523  0.5436  0.3576 -0.7170
12380TIP3    H158631   2.341   6.692   4.596  0.4881 -2.2114  0.7482
12380TIP3    H258632   2.201   6.687   4.538 -0.2884 -2.8928  2.6194
12381TIP3   OH258633   1.778   4.537  13.985  0.8374 -0.6303  0.8094
12381TIP3    H158634   1.836   4.464  13.961  0.3116 -1.5397  2.1447
12381TIP3    H258635   1.700   4.494  14.020 -0.3443  0.5895 -0.2479
12382TIP3   OH258636   4.086   0.163  15.235  0.3534 -0.3128  0.1004
12382TIP3    H158637   4.131   0.083  15.207  1.3760 -0.2145  1.3620
12382TIP3    H258638   4.156   0.223  15.259 -0.3891  1.0685 -0.9832
12383TIP3   OH258639   6.393   3.553   5.388  0.4071  0.1933 -0.0469
12383TIP3    H158640   6.439   3.601   5.456  2.4633 -1.7874  0.0762
12383TIP3    H258641   6.372   3.468   5.428 -0.2735 -0.2223 -1.2126
12384TIP3   OH258642   0.799   4.585   0.677 -0.9741 -0.0163  0.2178
12384TIP3    H158643   0.819   4.514   0.738 -0.7737  1.0200  1.4048
12384TIP3    H258644   0.844   4.661   0.714 -1.6542  0.8625 -0.7114
12385TIP3   OH258645   1.881   4.820  16.513  0.0483 -0.2046  0.1621
12385TIP3    H158646   1.880   4.753  16.445  0.6247 -1.6822  1.5415
12385TIP3    H258647   1.974   4.834  16.532 -0.0817  0.6813  0.1936
12386TIP3   OH258648   4.739   0.182  11.550 -0.0380 -0.4128 -0.1175
12386TIP3    H158649   4.646   0.164  11.561  0.1870 -1.0457  0.8730
12386TIP3    H258650   4.763   0.236  11.625  0.4359 -0.4137 -0.2624
12387TIP3   OH258651   2.623   1.456   4.613 -0.3577  0.1890 -0.2821
12387TIP3    H158652   2.716   1.459   4.589 -0.1331  0.9201  0.6305
12387TIP3    H258653   2.579   1.510   4.547 -0.3650 -1.2643 -1.5558
12388TIP3   OH258654   5.417   4.516   0.732  0.3767 -0.8474  0.1242
12388TIP3    H158655   5.364   4.462   0.674  0.8374  0.7676 -1.9681
12388TIP3    H258656   5.505   4.478   0.726  0.1441 -1.5278  0.9214
12389TIP3   OH258657   2.851   4.494  12.137 -0.1927 -0.2338 -0.3172
12389TIP3    H158658   2.832   4.578  12.180 -0.0970 -0.7729  0.8105
12389TIP3    H258659   2.893   4.518  12.054 -0.4813  0.8352 -0.1688
12390TIP3   OH258660   1.583   6.201   0.976 -0.6337  0.4534 -0.6399
12390TIP3    H158661   1.535   6.249   1.043  1.1686  0.8371  0.4550
12390TIP3    H258662   1.674   6.229   0.987  0.0424 -1.1004 -1.8365
12391TIP3   OH258663   0.493   2.092  14.281  0.1738 -0.5754  0.3144
12391TIP3    H158664   0.466   2.036  14.354 -1.1545 -1.3727 -0.7523
12391TIP3    H258665   0.412   2.135  14.253  0.7611  0.0869 -0.3924
12392TIP3   OH258666   5.217   0.360  10.580 -0.1062 -0.3300 -0.1305
12392TIP3    H158667   5.121   0.353  10.581 -0.1091 -0.3062 -0.2486
12392TIP3    H258668   5.236   0.438  10.632 -0.1769 -0.0431 -0.5323
12393TIP3   OH258669   2.827   1.767   5.683  1.0211  0.1259  0.0918
12393TIP3    H158670   2.796   1.687   5.727  0.6352  1.2008  1.8890
12393TIP3    H258671   2.773   1.837   5.720 -0.8917  0.9384 -3.7404
12394TIP3   OH258672   0.608   2.462  16.351 -0.4672 -0.3422 -0.2983
12394TIP3    H158673   0.526   2.464  16.302 -0.9680 -3.2639  0.2196
12394TIP3    H258674   0.671   2.424  16.291 -0.1470 -0.4617  0.1099
12395TIP3   OH258675   6.247   2.019   1.640  0.1906 -0.0343  0.1043
12395TIP3    H158676   6.334   1.991   1.668  0.4621  0.9687  0.3235
12395TIP3    H258677   6.187   1.971   1.696  0.6877  0.8303  1.4277
12396TIP3   OH258678   4.588   4.228  12.469  0.3398 -0.0781  0.2135
12396TIP3    H158679   4.605   4.308  12.419 -1.1882  0.3457  0.3213
12396TIP3    H258680   4.671   4.208  12.511  0.8743  1.2022 -0.1896
12397TIP3   OH258681   6.104   0.442  12.371 -0.4904 -0.5939 -0.2954
12397TIP3    H158682   6.056   0.367  12.406 -1.5462 -0.2188 -0.8854
12397TIP3    H258683   6.179   0.404  12.327 -1.5615 -1.4151 -1.4882
12398TIP3   OH258684   6.010   4.347   0.565  0.5134 -0.3516 -0.6272
12398TIP3    H158685   6.094   4.334   0.522  0.1796  0.4643 -1.5589
12398TIP3    H258686   6.032   4.356   0.658  1.4205 -0.3778 -0.8320
12399TIP3   OH258687   2.767   5.268  14.483 -0.0150  0.1091  0.0415
12399TIP3    H158688   2.717   5.312  14.552  1.7552  1.6485  0.4595
12399TIP3    H258689   2.777   5.335  14.415 -0.0637 -0.7538 -0.8290
12400TIP3   OH258690   0.274   4.739   1.002 -0.0675 -0.1081  0.3991
12400TIP3    H158691   0.199   4.712   0.948  0.2153 -1.6732  0.7400
12400TIP3    H258692   0.300   4.824   0.965 -1.4752  0.0750 -0.2585
12401TIP3   OH258693   6.509   2.011   5.821 -0.5425  0.0820 -0.0227
12401TIP3    H158694   6.502   2.050   5.734 -1.3391 -1.2105 -0.5728
12401TIP3    H258695   6.483   2.080   5.881  0.1630  1.0408 -0.7905
12402TIP3   OH258696   6.495   5.480  16.701  0.3714 -0.0039 -0.4748
12402TIP3    H158697   6.561   5.411  16.705  1.9934  1.5056  0.0334
12402TIP3    H258698   6.423   5.447  16.756  1.6622 -0.7336  0.8534
12403TIP3   OH258699   4.143   1.985   2.443  0.3116  0.1821 -0.2460
12403TIP3    H158700   4.201   1.921   2.402  3.1524  1.8734  0.8666
12403TIP3    H258701   4.189   2.068   2.435 -0.4496  1.1325  3.3986
12404TIP3   OH258702   4.040   4.451   4.517 -0.1527  0.3682  0.0805
12404TIP3    H158703   4.081   4.530   4.553  0.0909 -0.0908  0.8250
12404TIP3    H258704   4.024   4.472   4.425  0.6239  0.9972  0.0838
12405TIP3   OH258705   2.149   5.188  15.544 -0.1432 -0.2400 -0.0438
12405TIP3    H158706   2.181   5.265  15.591 -0.5149 -0.4419  0.5402
12405TIP3    H258707   2.116   5.223  15.461 -1.5733  0.4128  0.7729
12406TIP3   OH258708   4.024   2.287  11.602 -0.0621  0.1446 -0.0994
12406TIP3    H158709   4.039   2.336  11.521  1.1508 -0.8137 -0.4786
12406TIP3    H258710   4.108   2.246  11.621 -0.7878 -1.0028  0.7391
12407TIP3   OH258711   2.532   2.558   4.102 -0.1457  0.2589  0.3067
12407TIP3    H158712   2.608   2.506   4.130 -0.6123  1.0948  3.4646
12407TIP3    H258713   2.571   2.636   4.061  0.7427  0.6862  1.8888
12408TIP3   OH258714   2.798   0.411  10.404 -0.0382  0.2507  0.3774
12408TIP3    H158715   2.745   0.440  10.478  1.2564  0.0976  1.4007
12408TIP3    H258716   2.743   0.347  10.358 -1.3325  1.2613  0.4643
12409TIP3   OH258717   4.287   5.341  15.467 -0.0877 -0.0809 -0.5014
12409TIP3    H158718   4.203   5.387  15.475 -1.2562 -2.3700  2.9244
12409TIP3    H258719   4.340   5.377  15.539  0.6279 -0.9280 -0.5927
12410TIP3   OH258720   1.028   1.390  13.811 -0.0253  0.6535 -0.1397
12410TIP3    H158721   1.048   1.299  13.832  0.1804  0.9487  1.0223
12410TIP3    H258722   1.109   1.427  13.777  0.0178  0.5243 -0.1736
12411TIP3   OH258723   1.800   5.195  16.475 -0.8591  0.1711  0.1593
12411TIP3    H158724   1.821   5.260  16.409 -3.5066  0.6870 -0.2926
12411TIP3    H258725   1.814   5.111  16.431  2.1437  0.3239  0.6069
12412TIP3   OH258726   4.141   6.477   1.472  0.2573 -0.7405 -0.0603
12412TIP3    H158727   4.079   6.435   1.413  1.1799 -1.2716 -0.6948
12412TIP3    H258728   4.111   6.456   1.560 -1.4465  0.4948 -0.2999
12413TIP3   OH258729   2.066   0.397  12.093 -0.5158  0.3890  0.5915
12413TIP3    H158730   1.997   0.454  12.060  0.6655  2.1961  1.0848
12413TIP3    H258731   2.122   0.455  12.145  1.8706 -0.8022 -0.5126
12414TIP3   OH258732   5.191   3.218   5.311  0.2192  0.1977  0.0659
12414TIP3    H158733   5.183   3.308   5.280  0.2121  0.5649  1.0949
12414TIP3    H258734   5.141   3.166   5.248 -0.0496  0.9523 -0.3521
12415TIP3   OH258735   5.472   0.390   0.532  0.1434 -0.3038  0.4110
12415TIP3    H158736   5.433   0.305   0.512  1.9591 -1.7854  2.6371
12415TIP3    H258737   5.524   0.375   0.611  3.3659  2.0144 -1.0249
12416TIP3   OH258738   5.515   2.418  13.249 -0.4486  0.1473 -0.4668
12416TIP3    H158739   5.592   2.463  13.284 -1.7648 -0.0043  3.0746
12416TIP3    H258740   5.461   2.487  13.211  0.8888  0.3855 -2.0491
12417TIP3   OH258741   6.739   0.089  16.340 -0.3314 -0.2808  0.3606
12417TIP3    H158742   6.804   0.027  16.308 -2.0358 -1.1428 -1.6542
12417TIP3    H258743   6.791   0.160  16.379  1.7080 -1.9900  0.9665
12418TIP3   OH258744   6.791   5.461  16.762 -0.9085 -0.9339 -0.1109
12418TIP3    H158745   6.859   5.510  16.808 -2.2068  0.8478  0.0183
12418TIP3    H258746   6.791   5.498  16.674 -0.8497 -1.8456 -0.5030
12419TIP3   OH258747   1.673   4.355   3.394  0.0341  0.0470  0.1217
12419TIP3    H158748   1.745   4.307   3.434 -0.0086 -0.1202 -0.0035
12419TIP3    H258749   1.609   4.366   3.465 -0.0909 -0.3461  0.0734
12420TIP3   OH258750   2.882   2.724  14.927 -0.4136 -0.0604  0.0135
12420TIP3    H158751   2.816   2.793  14.928  0.9680  1.3673 -1.4324
12420TIP3    H258752   2.959   2.764  14.966  0.6535 -0.5031 -1.5577
12421TIP3   OH258753   3.608   3.465   5.136 -0.0679  0.1971 -0.3350
12421TIP3    H158754   3.682   3.490   5.081 -0.8258  2.0298 -0.5934
12421TIP3    H258755   3.596   3.538   5.196  0.4005 -1.5109  2.0083
12422TIP3   OH258756   6.515   6.857  12.728  0.5875 -0.8237 -0.5205
12422TIP3    H158757   6.579   6.786  12.727 -0.3656 -1.6997 -0.6940
12422TIP3    H258758   6.534   6.907  12.648  1.5135 -0.6522 -0.1957
12423TIP3   OH258759   0.051   1.486   1.037  0.0702  0.1409  0.1241
12423TIP3    H158760   0.116   1.554   1.019  0.8910 -0.5992  0.2468
12423TIP3    H258761   0.100   1.404   1.032 -1.2445 -0.5970 -1.8098
12424TIP3   OH258762   2.102   1.182  16.421  0.0639  0.1127 -0.1220
12424TIP3    H158763   2.171   1.185  16.354 -0.2814  0.1099 -0.4840
12424TIP3    H258764   2.048   1.107  16.397  0.9284 -0.9622  1.1712
12425TIP3   OH258765   6.646   1.167  11.683 -0.0161  0.6657 -0.6421
12425TIP3    H158766   6.600   1.101  11.632  2.6128  1.0211 -3.8333
12425TIP3    H258767   6.591   1.245  11.676 -0.9974 -0.0037 -0.6219
12426TIP3   OH258768   3.041   3.039  12.729 -0.3610  0.3070  0.0220
12426TIP3    H158769   3.082   2.993  12.803  1.8453 -0.0151 -1.2808
12426TIP3    H258770   3.073   3.129  12.736  0.2438  0.1654 -0.7589
12427TIP3   OH258771   0.930   5.231  16.626 -0.0312  0.4905  0.1038
12427TIP3    H158772   0.864   5.162  16.614  0.4547  0.0962 -0.2916
12427TIP3    H258773   0.970   5.242  16.540  0.1258  1.0335  0.2427
12428TIP3   OH258774   2.176   2.318  11.224  0.6311  0.7643  0.4607
12428TIP3    H158775   2.152   2.227  11.240 -1.9932  1.2362 -0.2818
12428TIP3    H258776   2.134   2.367  11.296  0.8985  1.5131  0.1230
12429TIP3   OH258777   0.578   5.443  16.465  0.0338  0.1496 -0.0091
12429TIP3    H158778   0.516   5.509  16.498  0.6312  0.2146  1.0531
12429TIP3    H258779   0.605   5.476  16.379  0.7421  1.6188  0.7307
12430TIP3   OH258780   3.249   6.016  14.566  0.1614 -0.0221  0.5491
12430TIP3    H158781   3.191   6.093  14.570 -0.3319 -0.3700  0.2742
12430TIP3    H258782   3.226   5.974  14.482  1.0785  0.0364  0.2640
12431TIP3   OH258783   0.089   5.140   2.534  0.1645  0.1479 -0.1810
12431TIP3    H158784   0.162   5.201   2.544 -0.9648  1.9727 -2.1840
12431TIP3    H258785   0.033   5.156   2.611  0.7406  0.3759  0.1969
12432TIP3   OH258786   2.005   3.538   3.371  0.1697  0.3935 -0.8120
12432TIP3    H158787   2.025   3.452   3.336 -0.2676 -0.3605  0.7100
12432TIP3    H258788   1.910   3.546   3.366 -0.0147 -0.1589  1.0496
12433TIP3   OH258789   3.211   6.666   0.588 -0.6739  0.2681  0.3983
12433TIP3    H158790   3.278   6.639   0.525 -1.1891  0.5428 -0.2814
12433TIP3    H258791   3.130   6.668   0.538 -0.9765  1.1767  0.8941
12434TIP3   OH258792   1.827   3.693   4.376  1.0426  0.0907  0.5432
12434TIP3    H158793   1.821   3.637   4.453  0.6074 -0.2443  0.2725
12434TIP3    H258794   1.771   3.650   4.311 -0.4410  1.5655  0.7701
12435TIP3   OH258795   0.615   3.044   4.201 -0.3292  0.0194 -0.3824
12435TIP3    H158796   0.693   3.094   4.226 -0.0463 -1.1596  1.2986
12435TIP3    H258797   0.639   2.952   4.217 -1.3108 -0.5645 -2.0211
12436TIP3   OH258798   2.737   0.540   3.251 -0.0854  0.0749  0.3016
12436TIP3    H158799   2.823   0.499   3.263  0.0425  0.3127  0.1945
12436TIP3    H258800   2.754   0.617   3.197 -0.4269 -0.0964 -0.0516
12437TIP3   OH258801   4.433   3.657  16.334 -0.0620 -0.0063  0.4477
12437TIP3    H158802   4.505   3.631  16.276 -0.0241  1.5708 -0.2867
12437TIP3    H258803   4.448   3.610  16.415  1.3246 -0.3620  0.0015
12438TIP3   OH258804   2.925   3.063  15.462 -0.0076 -0.2356 -0.0461
12438TIP3    H158805   2.901   3.026  15.377  0.0307 -0.5049  0.0581
12438TIP3    H258806   2.969   2.991  15.508  0.8514  0.2056 -0.1722
12439TIP3   OH258807   1.710   4.429  11.407  0.3107 -0.0960 -0.2497
12439TIP3    H158808   1.789   4.480  11.390  0.5242 -0.4837 -0.4183
12439TIP3    H258809   1.664   4.479  11.475  0.6165  0.2183 -0.2718
12440TIP3   OH258810   2.323   0.682  11.916 -0.4220 -0.4854  0.0526
12440TIP3    H158811   2.317   0.645  12.004  1.3963  2.0153  1.3658
12440TIP3    H258812   2.266   0.759  11.918 -0.5553 -0.5275 -1.0862
12441TIP3   OH258813   4.308   6.025  11.937 -0.7370  0.2125 -0.1340
12441TIP3    H158814   4.311   6.119  11.920 -1.2666  0.6871  2.0584
12441TIP3    H258815   4.334   6.017  12.029 -3.6346 -1.4633  0.6435
12442TIP3   OH258816   0.724   5.154   4.562  0.4859  0.0455  0.2715
12442TIP3    H158817   0.806   5.132   4.607  1.2212  0.1829 -0.9523
12442TIP3    H258818   0.729   5.106   4.480 -0.0654  1.0675 -0.3796
12443TIP3   OH258819   1.472   5.227   4.906  0.7854  0.0153  0.9774
12443TIP3    H158820   1.453   5.321   4.915 -1.9898 -0.5380  1.8359
12443TIP3    H258821   1.513   5.203   4.989 -1.1278 -0.0273  1.9656
12444TIP3   OH258822   2.942   1.116   5.102 -0.4286 -0.3881 -0.4916
12444TIP3    H158823   2.886   1.117   5.179  2.0943  1.0199  1.4853
12444TIP3    H258824   3.014   1.056   5.126 -1.2477 -2.6404 -3.1659
12445TIP3   OH258825   0.556   1.504   9.952  0.2136 -0.0185 -0.1883
12445TIP3    H158826   0.472   1.532   9.917  0.5137  1.4472  0.2133
12445TIP3    H258827   0.566   1.554  10.033  0.3559 -1.9999  1.1006
12446TIP3   OH258828   0.490   0.228  14.510 -0.3319  0.3824  0.1104
12446TIP3    H158829   0.469   0.163  14.577  1.0610 -1.3327 -1.0186
12446TIP3    H258830   0.585   0.222  14.498  0.0501  3.4417  0.6896
12447TIP3   OH258831   1.999   6.275   4.793 -0.2520 -0.1788 -0.2046
12447TIP3    H158832   1.972   6.361   4.761 -0.8142  0.2162  1.2504
12447TIP3    H258833   1.931   6.215   4.762 -0.4824  0.0948 -0.2222
12448TIP3   OH258834   1.304   3.652   3.991  0.3169  0.4111 -0.1228
12448TIP3    H158835   1.389   3.676   3.954  0.9783 -1.3633  0.1582
12448TIP3    H258836   1.314   3.561   4.019 -1.1996  0.6477  1.3827
12449TIP3   OH258837   2.560   3.230   0.946  0.0338  0.8333  0.1018
12449TIP3    H158838   2.522   3.146   0.969  0.4834  0.9184  1.2251
12449TIP3    H258839   2.633   3.208   0.888 -0.1634  0.4946 -0.0226
12450TIP3   OH258840   1.589   2.058  12.598  0.1941  1.4275  0.1631
12450TIP3    H158841   1.576   2.109  12.678 -0.2463  0.7277  0.5467
12450TIP3    H258842   1.655   2.107  12.549  1.7759  0.9495  1.7372
12451TIP3   OH258843   3.104   6.886  10.537 -0.1804  0.0146 -0.6419
12451TIP3    H158844   3.106   6.923  10.625  2.1304  0.6519 -0.9034
12451TIP3    H258845   3.032   6.932  10.494  1.2197  2.7441 -0.2843
12452TIP3   OH258846   4.659   3.766  16.850  1.0329  0.0742 -0.3309
12452TIP3    H158847   4.592   3.751  16.916  1.0470  1.7474  0.0914
12452TIP3    H258848   4.672   3.680  16.810 -0.4108 -0.5554  0.4656
12453TIP3   OH258849   3.816   0.866  16.318  0.6099  0.1388 -0.0235
12453TIP3    H158850   3.735   0.913  16.296 -1.2703 -3.2815 -1.1974
12453TIP3    H258851   3.874   0.882  16.243 -0.6368 -0.6323 -1.2084
12454TIP3   OH258852   4.014   4.209   2.235 -0.0451 -0.4064  0.5438
12454TIP3    H158853   3.986   4.119   2.218 -0.6282 -0.2333  0.5701
12454TIP3    H258854   4.100   4.199   2.276 -0.8148 -1.0423  2.0893
12455TIP3   OH258855   4.290   4.185   5.028 -0.6205 -0.3497  0.4875
12455TIP3    H158856   4.314   4.142   4.946  0.8548  0.4559  0.4460
12455TIP3    H258857   4.298   4.279   5.009  0.0696 -0.1548  1.6161
12456TIP3   OH258858   4.789   1.774  14.476  0.0452  0.2177  0.0910
12456TIP3    H158859   4.710   1.819  14.445 -0.0903 -0.1502 -0.1101
12456TIP3    H258860   4.756   1.701  14.529  0.2293 -0.2740 -0.4522
12457TIP3   OH258861   5.785   0.121   3.909  0.1332  0.2175  0.2014
12457TIP3    H158862   5.719   0.055   3.890 -0.1276  0.3054  0.7994
12457TIP3    H258863   5.790   0.174   3.829  0.7862 -0.8851 -0.5279
12458TIP3   OH258864   1.092   2.623  13.917 -0.2809 -0.2041 -0.6022
12458TIP3    H158865   1.129   2.602  13.832  0.3045 -0.9985 -0.1624
12458TIP3    H258866   1.018   2.680  13.898  0.4827  0.4956 -1.5714
12459TIP3   OH258867   0.612   0.958   3.731  0.9024  0.4009 -0.1797
12459TIP3    H158868   0.684   0.906   3.697 -1.1162 -1.5771 -1.7682
12459TIP3    H258869   0.599   0.927   3.821  1.2436 -0.1469 -0.3160
12460TIP3   OH258870   0.829   0.601  10.088  0.1980 -0.1968 -0.1080
12460TIP3    H158871   0.892   0.537  10.055  0.0528  0.7353 -2.3888
12460TIP3    H258872   0.777   0.626  10.011  0.1837  2.5672  0.6836
12461TIP3   OH258873   3.263   6.795   3.923  0.5323 -0.6221  0.4929
12461TIP3    H158874   3.210   6.716   3.914 -0.7574  0.3682 -1.3360
12461TIP3    H258875   3.228   6.839   4.000 -3.2243  1.2337 -1.9954
12462TIP3   OH258876   2.188   3.284  12.016 -0.3143  0.8623  0.2387
12462TIP3    H158877   2.189   3.341  12.092 -1.6495  1.3149 -0.0688
12462TIP3    H258878   2.183   3.344  11.941  1.9569  0.4834 -0.3076
12463TIP3   OH258879   0.772   1.835  15.630 -0.1735  0.1058 -0.0856
12463TIP3    H158880   0.866   1.822  15.623  0.0087  1.5112 -0.5926
12463TIP3    H258881   0.753   1.910  15.573 -0.8184  2.9571  3.4679
12464TIP3   OH258882   1.104   1.130  13.885  0.3554 -0.0014 -0.4148
12464TIP3    H158883   1.034   1.073  13.851  0.7054 -1.9370  1.8748
12464TIP3    H258884   1.184   1.078  13.875  0.9329  0.7313  0.3260
12465TIP3   OH258885   6.769   4.894  10.847  0.5364 -0.3077  0.1074
12465TIP3    H158886   6.676   4.883  10.828  0.8357 -0.7774 -1.1981
12465TIP3    H258887   6.783   4.845  10.928 -0.1375 -1.2243 -0.3138
12466TIP3   OH258888   4.017   1.468   3.552  0.6550 -0.0446  0.3454
12466TIP3    H158889   4.031   1.454   3.646  2.7832  0.9066  0.2326
12466TIP3    H258890   4.015   1.379   3.515  1.0674 -0.3969  1.1362
12467TIP3   OH258891   5.238   6.895  14.699  0.0017 -0.2709  0.3308
12467TIP3    H158892   5.216   6.975  14.651 -1.5584 -0.1084  1.2691
12467TIP3    H258893   5.298   6.849  14.641 -0.9604  0.4408 -1.3068
12468TIP3   OH258894   5.864   5.541   2.575  0.2583  0.5565  0.0238
12468TIP3    H158895   5.841   5.627   2.541  0.7388  1.0551  0.9103
12468TIP3    H258896   5.799   5.523   2.643  0.9862  0.8709  0.8236
12469TIP3   OH258897   5.555   4.176  13.257  0.6853  0.0012  0.4976
12469TIP3    H158898   5.533   4.211  13.170 -0.1549  1.2504  1.1951
12469TIP3    H258899   5.581   4.085  13.239 -0.2592 -0.0244 -0.9700
12470TIP3   OH258900   2.634   5.579  12.052  0.1074  0.1632  0.6138
12470TIP3    H158901   2.598   5.508  11.998  0.6312 -0.4825  1.1064
12470TIP3    H258902   2.710   5.610  12.003 -0.4840  0.8225  0.0890
12471TIP3   OH258903   1.358   2.618  12.246  0.0055 -0.5716  0.9416
12471TIP3    H158904   1.262   2.619  12.240  0.0951 -0.2850 -0.9856
12471TIP3    H258905   1.388   2.637  12.158  1.8672  0.5453  1.7512
12472TIP3   OH258906   1.906   5.026  12.783  0.4585  0.2046  0.3991
12472TIP3    H158907   1.973   5.023  12.851  1.1109 -1.3411 -0.2609
12472TIP3    H258908   1.955   5.027  12.701 -0.2953  3.0274 -0.1245
12473TIP3   OH258909   0.264   4.328   3.129 -0.1622 -0.3046 -0.0655
12473TIP3    H158910   0.230   4.367   3.048 -0.6096  1.3642  0.8641
12473TIP3    H258911   0.236   4.237   3.125 -0.7719 -0.0878 -1.4755
12474TIP3   OH258912   2.532   1.883   4.767 -0.3327 -0.1023  0.4276
12474TIP3    H158913   2.616   1.848   4.736  0.5776  1.1553  1.3302
12474TIP3    H258914   2.470   1.812   4.754  1.3370 -1.9657  1.8590
12475TIP3   OH258915   4.595   5.045  10.976  0.0294 -0.3121  0.4473
12475TIP3    H158916   4.609   5.053  10.881 -0.8307 -1.3892  0.2117
12475TIP3    H258917   4.683   5.038  11.013  0.3524 -0.5143 -0.3437
12476TIP3   OH258918   6.349   3.391  12.535  0.1018  0.5937 -0.0712
12476TIP3    H158919   6.351   3.317  12.475  1.0244 -0.1990  0.9050
12476TIP3    H258920   6.258   3.397  12.564 -0.3525  0.9894 -1.5171
12477TIP3   OH258921   2.956   6.436   0.640  0.0429  0.0715 -0.1727
12477TIP3    H158922   2.936   6.412   0.730  1.6039 -1.8020 -0.2671
12477TIP3    H258923   2.963   6.532   0.642  0.9431  0.0132  1.8848
12478TIP3   OH258924   2.516   3.909   1.065  0.3301  0.0064  0.3123
12478TIP3    H158925   2.516   3.982   1.127 -1.9705 -1.1122  1.7747
12478TIP3    H258926   2.609   3.891   1.049  0.9539  2.1296  1.2366
12479TIP3   OH258927   2.937   6.350  14.856  0.2601 -0.0129 -0.6391
12479TIP3    H158928   2.849   6.321  14.830 -0.6440  0.0454  2.0237
12479TIP3    H258929   2.933   6.445  14.852  0.6744 -0.0305 -1.8136
12480TIP3   OH258930   3.170   3.434  14.134 -0.3630  0.1652 -0.3861
12480TIP3    H158931   3.240   3.495  14.113 -0.2030 -0.2769 -1.1554
12480TIP3    H258932   3.148   3.392  14.051 -1.5690  0.3255 -0.1729
12481TIP3   OH258933   3.250   4.103  16.772  0.1893 -0.3101 -0.4707
12481TIP3    H158934   3.315   4.083  16.704  0.8265 -0.3093  0.1340
12481TIP3    H258935   3.284   4.180  16.816  0.8400 -1.4985  1.1942
12482TIP3   OH258936   1.196   6.037   3.040 -0.3044  0.3291 -0.1380
12482TIP3    H158937   1.261   6.107   3.053 -0.4439  0.0774  2.4470
12482TIP3    H258938   1.204   5.983   3.119 -1.7582 -1.2947 -1.0609
12483TIP3   OH258939   6.381   4.504   0.639 -0.2246 -0.0407 -0.3143
12483TIP3    H158940   6.475   4.485   0.644 -0.5144 -1.3242  0.9384
12483TIP3    H258941   6.376   4.599   0.625  1.2355  0.2292  0.8048
12484TIP3   OH258942   2.268   1.447  11.860  0.2454 -0.5924 -0.8200
12484TIP3    H158943   2.299   1.380  11.799  0.6930 -1.6262  0.5068
12484TIP3    H258944   2.189   1.411  11.898  0.7267 -0.5790  0.2294
12485TIP3   OH258945   5.146   2.355   0.219 -0.5910 -0.2817  0.1757
12485TIP3    H158946   5.089   2.280   0.203 -0.4513 -0.4841  0.5987
12485TIP3    H258947   5.171   2.346   0.312  0.3791 -0.3801 -0.0846
12486TIP3   OH258948   3.342   4.998  15.252  0.0557  0.6555  0.4092
12486TIP3    H158949   3.398   5.000  15.175  0.0308 -0.0381  0.3747
12486TIP3    H258950   3.268   4.943  15.227 -0.3852  1.1350  0.6352
12487TIP3   OH258951   3.339   0.679   6.293 -0.7745 -0.6463 -0.3528
12487TIP3    H158952   3.403   0.728   6.242 -0.2165 -1.2442 -0.2424
12487TIP3    H258953   3.265   0.739   6.304  0.1791  0.4335  0.3933
12488TIP3   OH258954   3.372   5.411  15.279  0.7954 -0.1436  0.8307
12488TIP3    H158955   3.353   5.326  15.241  0.2553  0.6221 -0.6793
12488TIP3    H258956   3.304   5.469  15.245  2.6160  1.4729 -0.3331
12489TIP3   OH258957   4.369   4.525   0.990 -0.4133  0.1378 -0.0353
12489TIP3    H158958   4.379   4.551   0.899 -0.6778  0.6755  0.0814
12489TIP3    H258959   4.279   4.493   0.996  0.1548 -1.5794 -0.3531
12490TIP3   OH258960   6.841   5.585  14.683  0.3814  0.0024 -0.2036
12490TIP3    H158961   6.931   5.555  14.672  0.4888  0.1565  0.2414
12490TIP3    H258962   6.828   5.649  14.613  0.6015 -0.0467 -0.2902
12491TIP3   OH258963   2.048   3.831   3.483  0.6683 -0.0109 -0.4248
12491TIP3    H158964   2.072   3.884   3.407 -1.4462 -1.2526 -2.0867
12491TIP3    H258965   1.961   3.862   3.507 -0.1302 -1.8616 -0.7202
12492TIP3   OH258966   2.504   3.854   0.607 -0.6433  0.1270  0.4070
12492TIP3    H158967   2.458   3.866   0.690 -2.1106  0.9408 -0.4697
12492TIP3    H258968   2.434   3.847   0.542  0.4686  1.3262 -0.9901
12493TIP3   OH258969   5.082   4.899   0.314 -0.2687 -0.0618  0.3300
12493TIP3    H158970   5.054   4.979   0.360 -0.1710  0.8543 -1.1550
12493TIP3    H258971   5.140   4.855   0.377  1.4994  2.1802  0.3945
12494TIP3   OH258972   1.618   5.702  15.156 -1.0292 -0.3863  0.7284
12494TIP3    H158973   1.688   5.761  15.127 -1.0855 -0.2696  0.8246
12494TIP3    H258974   1.612   5.719  15.251 -2.0509  0.5352  0.5235
12495TIP3   OH258975   2.348   4.935  14.742 -0.4929  0.4952  0.6384
12495TIP3    H158976   2.390   5.006  14.693 -1.6616  0.5357 -0.3606
12495TIP3    H258977   2.310   4.879  14.675  0.3700 -1.0837  1.4139
12496TIP3   OH258978   3.385   5.522   3.972  0.5684 -0.2816 -0.2592
12496TIP3    H158979   3.470   5.478   3.967  0.7983  0.2370 -1.2605
12496TIP3    H258980   3.361   5.538   3.881 -0.7915 -0.7536 -0.0092
12497TIP3   OH258981   1.864   6.221   0.469 -0.3268 -0.3407  0.5050
12497TIP3    H158982   1.878   6.129   0.448 -2.4721 -0.3393 -1.2722
12497TIP3    H258983   1.934   6.267   0.423 -0.0810 -0.9678  0.2292
12498TIP3   OH258984   0.350   3.155  10.727  0.7514  0.2004 -0.1487
12498TIP3    H158985   0.297   3.229  10.756 -0.7295 -0.5960 -0.7130
12498TIP3    H258986   0.424   3.195  10.681 -0.3085  1.3520 -0.9303
12499TIP3   OH258987   3.617   5.754  15.691  0.2070 -0.0501  0.3697
12499TIP3    H158988   3.558   5.770  15.764  0.1744 -0.5498  0.4547
12499TIP3    H258989   3.697   5.801  15.714 -0.0783  0.4543  0.3530
12500TIP3   OH258990   0.978   4.813  12.429 -0.5437  0.4444  0.7658
12500TIP3    H158991   1.035   4.745  12.395 -0.7883  0.0823  1.0776
12500TIP3    H258992   1.038   4.872  12.477 -0.3842  0.2593  0.7951
12501TIP3   OH258993   5.095   0.653   0.434  0.2395 -0.1176 -0.3376
12501TIP3    H158994   5.015   0.696   0.403 -0.1023 -0.4897  0.0222
12501TIP3    H258995   5.123   0.706   0.508  0.3555  0.0429 -0.4957
12502TIP3   OH258996   5.363   1.969  11.471 -0.0024  0.4594  0.3506
12502TIP3    H158997   5.415   1.937  11.397 -1.3773 -0.2685 -0.3439
12502TIP3    H258998   5.344   2.060  11.448  0.2493  0.4789  0.2098
12503TIP3   OH258999   5.453   1.940  15.397 -0.2039 -0.5107  0.1023
12503TIP3    H159000   5.478   1.890  15.320 -0.6104  1.7289 -1.5759
12503TIP3    H259001   5.366   1.907  15.421 -0.7312 -0.2094 -1.3396
12504TIP3   OH259002   6.877   1.228   1.211  0.3728  0.3359  0.0976
12504TIP3    H159003   6.792   1.186   1.221  1.4359 -2.2407 -0.7898
12504TIP3    H259004   6.894   1.224   1.116  2.1739 -0.8444  0.4153
12505TIP3   OH259005   4.744   1.557   3.487  1.0596  0.2794 -0.1606
12505TIP3    H159006   4.796   1.522   3.559 -0.2354  0.7414  1.0443
12505TIP3    H259007   4.773   1.507   3.411  0.4704 -2.2911  1.1805
12506TIP3   OH259008   3.101   0.062  11.028 -0.1258  0.1201  0.0756
12506TIP3    H159009   3.038   0.028  11.091  3.5351 -1.8387  3.1513
12506TIP3    H259010   3.136   0.141  11.069  0.1242  0.6483 -1.1063
12507TIP3   OH259011   4.535   0.675  13.310  0.3908  0.6399 -0.3985
12507TIP3    H159012   4.534   0.653  13.404 -0.9502  2.5247  0.0958
12507TIP3    H259013   4.482   0.607  13.269  0.8142 -0.0879  0.2200
12508TIP3   OH259014   1.966   5.242  16.762 -0.5128  0.2671  0.4458
12508TIP3    H159015   1.889   5.241  16.705  0.6324 -0.9609 -1.1608
12508TIP3    H259016   1.979   5.335  16.782 -1.1810  0.7001 -0.9782
12509TIP3   OH259017   0.215   0.053   5.734 -0.4319 -0.0496  0.1227
12509TIP3    H159018   0.163  -0.026   5.717 -0.3439 -0.1620  0.3722
12509TIP3    H259019   0.276   0.027   5.803 -0.2583  0.1761  0.0552
12510TIP3   OH259020   0.804   5.892   2.136 -0.5085 -0.4162  0.4692
12510TIP3    H159021   0.754   5.819   2.100  0.0224  0.5333 -2.4406
12510TIP3    H259022   0.880   5.900   2.078 -0.3124  2.1287  0.9524
12511TIP3   OH259023   0.615   2.208   5.661  0.3696  0.1511 -0.2105
12511TIP3    H159024   0.662   2.281   5.702  0.0136  0.8083 -0.9560
12511TIP3    H259025   0.628   2.135   5.722  0.1966  0.9926  0.8758
12512TIP3   OH259026   1.696   3.407  11.196  0.0824  0.5215 -0.1187
12512TIP3    H159027   1.639   3.392  11.271  1.3548  2.0072  1.1960
12512TIP3    H259028   1.638   3.398  11.120 -1.8752  1.7629  1.1362
12513TIP3   OH259029   0.652   3.708  15.756 -0.1823 -0.1006  0.0726
12513TIP3    H159030   0.598   3.759  15.696  0.7242 -0.7827 -1.3717
12513TIP3    H259031   0.590   3.671  15.819 -1.1006  0.9611 -0.1768
12514TIP3   OH259032   4.420   6.064  13.100 -0.3716  0.1464  0.3602
12514TIP3    H159033   4.420   6.034  13.009  0.4872  0.6546  0.1728
12514TIP3    H259034   4.377   5.994  13.149  0.4778 -0.8262 -0.2385
12515TIP3   OH259035   0.045   6.363   4.043 -0.5840 -0.6023 -0.6169
12515TIP3    H159036  -0.034   6.361   3.989 -0.7255 -0.3837 -0.4174
12515TIP3    H259037   0.062   6.456   4.058 -1.5747 -0.6605  1.2085
12516TIP3   OH259038   4.305   0.332  10.978  0.0976  0.0681  0.2300
12516TIP3    H159039   4.255   0.408  11.008 -0.0443  0.3493 -0.7085
12516TIP3    H259040   4.240   0.274  10.939  0.4136  0.1420 -0.4117
12517TIP3   OH259041   5.345   5.740  10.584  0.1259 -0.0774 -0.5612
12517TIP3    H159042   5.422   5.780  10.544  0.2033 -1.3101 -1.7030
12517TIP3    H259043   5.365   5.737  10.677  0.9977  0.5882 -0.7149
12518TIP3   OH259044   1.834   0.268   0.911 -0.0941  0.2329 -0.3857
12518TIP3    H159045   1.807   0.195   0.856 -0.1642 -0.8634  1.0393
12518TIP3    H259046   1.772   0.338   0.890 -0.0400 -0.1103 -1.7584
12519TIP3   OH259047   1.049   0.929   2.651  0.2550 -0.1719 -0.0614
12519TIP3    H159048   0.977   0.923   2.714 -0.0751 -1.7641 -0.5300
12519TIP3    H259049   1.128   0.917   2.704 -0.0428 -1.8907  0.0486
12520TIP3   OH259050   5.771   6.859   0.840  0.4381 -0.0042  0.2468
12520TIP3    H159051   5.741   6.882   0.928  0.7690 -1.9183  0.9230
12520TIP3    H259052   5.866   6.872   0.842  0.3759  0.5019 -0.0175
12521TIP3   OH259053   1.996   2.008   2.891  0.1644 -0.2248  0.0135
12521TIP3    H159054   2.051   1.948   2.841  0.8414 -1.5781  2.2313
12521TIP3    H259055   1.990   1.968   2.978 -2.5156  1.0339  0.4976
12522TIP3   OH259056   5.268   5.773   0.633  0.0385  0.1694 -0.0016
12522TIP3    H159057   5.316   5.831   0.574 -1.4970  0.7342 -0.7370
12522TIP3    H259058   5.217   5.832   0.689 -1.9015 -0.4274 -1.0638
12523TIP3   OH259059   5.270   3.089   2.110  0.2845 -0.1132 -0.2600
12523TIP3    H159060   5.325   3.026   2.065  1.8647 -0.8432  2.4595
12523TIP3    H259061   5.289   3.173   2.069  1.0750 -0.8297 -1.3904
12524TIP3   OH259062   0.894   2.340   5.477  0.5603  0.0414 -0.0507
12524TIP3    H159063   0.922   2.377   5.561  2.5323  1.3062 -1.1897
12524TIP3    H259064   0.804   2.370   5.467  0.3448  0.0117  1.5182
12525TIP3   OH259065   4.025   4.932   4.718 -0.4456  0.3736  0.0678
12525TIP3    H159066   3.951   4.886   4.678 -1.8702  0.7244  2.1473
12525TIP3    H259067   3.994   5.023   4.727  0.2700  0.5525  0.8796
12526TIP3   OH259068   2.243   5.865  16.851 -0.1577  0.1113 -0.4248
12526TIP3    H159069   2.185   5.835  16.920  1.6279  1.7987  2.0195
12526TIP3    H259070   2.187   5.877  16.775 -2.0820 -2.6252  0.4202
12527TIP3   OH259071   3.673   4.196   5.131  0.2883  0.5952  0.1550
12527TIP3    H159072   3.611   4.218   5.061 -0.2838  2.2340  1.1317
12527TIP3    H259073   3.688   4.102   5.120 -2.7330  0.0091  0.1146
12528TIP3   OH259074   4.182   3.015  13.187 -1.0351 -0.6119  0.2331
12528TIP3    H159075   4.245   2.946  13.202 -1.1145 -0.6944  0.1878
12528TIP3    H259076   4.199   3.046  13.098 -0.8332 -0.4009  0.3433
12529TIP3   OH259077   2.865   6.264   1.837  0.5885  0.1769 -0.0189
12529TIP3    H159078   2.819   6.192   1.881 -2.1770  2.2179  0.7276
12529TIP3    H259079   2.848   6.251   1.744  1.8163 -1.1942 -0.0678
12530TIP3   OH259080   3.404   6.308   6.212  0.1956  0.9037 -0.0403
12530TIP3    H159081   3.346   6.242   6.249 -0.5129 -0.5076 -3.3288
12530TIP3    H259082   3.475   6.316   6.275 -1.4548 -0.3941  2.1208
12531TIP3   OH259083   2.611   2.862  10.744 -0.2324 -0.4159 -0.2294
12531TIP3    H159084   2.596   2.768  10.734 -0.2733 -0.5286  0.7516
12531TIP3    H259085   2.529   2.903  10.715  0.4848 -0.5331 -2.6168
12532TIP3   OH259086   4.869   4.145   0.806 -0.5489 -0.2550 -0.3225
12532TIP3    H159087   4.925   4.171   0.733 -0.0531  0.5720  0.3326
12532TIP3    H259088   4.883   4.213   0.872 -0.6071 -1.2527  0.7379
12533TIP3   OH259089   3.929   3.987  15.359  0.2228  0.3751 -0.2287
12533TIP3    H159090   3.920   3.946  15.273  0.5411  1.5872 -0.8688
12533TIP3    H259091   3.841   4.018  15.380  0.1528  0.1153 -0.1368
12534TIP3   OH259092   2.639   0.222   0.870  0.3445 -0.5588 -0.3217
12534TIP3    H159093   2.546   0.247   0.865  0.7879  1.2567 -0.0202
12534TIP3    H259094   2.666   0.215   0.778  0.4635  1.1557 -0.4373
12535TIP3   OH259095   0.777   3.977  16.758 -0.4689 -0.2613 -0.0955
12535TIP3    H159096   0.716   3.922  16.709 -0.2306 -2.1170  1.5631
12535TIP3    H259097   0.738   3.985  16.845  0.3790  0.7289  0.2213
12536TIP3   OH259098   4.728   1.111  10.316 -0.0683  0.7408 -0.2206
12536TIP3    H159099   4.696   1.201  10.319 -0.5500  0.6134 -1.1272
12536TIP3    H259100   4.686   1.073  10.239  0.6781 -0.0555 -0.2545
12537TIP3   OH259101   5.201   6.565  12.736  0.0798 -0.3076 -0.1878
12537TIP3    H159102   5.237   6.499  12.795 -0.1306 -0.9007 -0.7184
12537TIP3    H259103   5.114   6.585  12.772  0.4253  0.2236  0.3841
12538TIP3   OH259104   5.451   3.493   0.651  0.6690  0.3567  0.0220
12538TIP3    H159105   5.456   3.588   0.663  0.2634  0.7976 -2.7774
12538TIP3    H259106   5.359   3.472   0.666  0.6044  0.5208 -0.1454
12539TIP3   OH259107   5.316   4.181  11.650 -0.1139 -0.2216 -0.1411
12539TIP3    H159108   5.264   4.113  11.693  0.4425 -0.6772 -0.1720
12539TIP3    H259109   5.390   4.134  11.613 -1.3213 -0.0950 -2.9418
12540TIP3   OH259110   2.988   5.622  12.469 -0.3284  0.1177  0.2022
12540TIP3    H159111   2.951   5.540  12.437 -1.6694  0.4707  0.7740
12540TIP3    H259112   3.080   5.601  12.487 -0.7778 -1.4205  0.9006
12541TIP3   OH259113   0.300   4.864  11.468 -0.0965  0.2665  0.2449
12541TIP3    H159114   0.268   4.951  11.445 -1.0858  0.3151  1.6691
12541TIP3    H259115   0.307   4.818  11.384 -1.6207  1.0562 -0.3570
12542TIP3   OH259116   1.300   5.145  10.818 -0.3308 -0.3141 -0.3068
12542TIP3    H159117   1.227   5.200  10.843 -0.8577 -0.4055 -1.5897
12542TIP3    H259118   1.296   5.070  10.878 -1.6507 -0.6108 -0.7467
12543TIP3   OH259119   1.132   2.908  12.719 -0.2398 -0.3170 -0.5267
12543TIP3    H159120   1.200   2.846  12.692  0.9069  0.2450  0.8999
12543TIP3    H259121   1.175   2.963  12.785 -1.9708  0.3484  0.1070
12544TIP3   OH259122   0.006   5.991   0.252 -0.3391 -0.1368  0.1286
12544TIP3    H159123  -0.043   6.037   0.320  0.2475  1.5070 -0.4935
12544TIP3    H259124  -0.054   5.986   0.178  0.4456  2.2408 -0.7753
12545TIP3   OH259125   3.999   2.065  15.901  0.3000  0.5015  0.2355
12545TIP3    H159126   4.040   2.131  15.845  1.2054  0.0631  0.3627
12545TIP3    H259127   4.070   2.030  15.954 -0.4295  0.4506  1.2190
12546TIP3   OH259128   5.225   6.249  16.463  0.1278 -0.0011  0.1218
12546TIP3    H159129   5.231   6.156  16.442 -0.5079 -0.1864  0.7142
12546TIP3    H259130   5.307   6.268  16.509 -0.8264 -0.9248  2.3441
12547TIP3   OH259131   6.407   5.239   4.200 -0.0893 -0.1010 -0.2285
12547TIP3    H159132   6.483   5.277   4.243  0.7173 -1.7329 -0.1377
12547TIP3    H259133   6.434   5.227   4.109 -0.6022  0.2131 -0.4314
12548TIP3   OH259134   3.372   0.527   5.443 -0.2628 -0.1745  0.1606
12548TIP3    H159135   3.337   0.473   5.513 -0.2504 -0.9940 -0.4493
12548TIP3    H259136   3.437   0.472   5.400  1.0009  0.9340  0.5781
12549TIP3   OH259137   6.386   3.683   0.540 -0.4372 -0.1261 -0.2494
12549TIP3    H159138   6.365   3.726   0.623 -1.4399 -1.4021  0.1824
12549TIP3    H259139   6.471   3.642   0.555  0.0267  0.7752 -0.3208
12550TIP3   OH259140   2.182   3.717   8.337  0.7529 -0.3129 -0.5116
12550TIP3    H159141   2.191   3.796   8.284  0.6256 -0.6687 -1.0709
12550TIP3    H259142   2.162   3.749   8.425  0.8523  0.2803 -0.7038
12551TIP3   OH259143   3.665   4.583  14.509 -0.1599 -0.2873  0.6258
12551TIP3    H159144   3.745   4.531  14.516  0.2714 -0.0714 -1.7988
12551TIP3    H259145   3.687   4.666  14.551  0.9624 -0.1819 -0.1200
12552TIP3   OH259146   4.384   0.230   2.441  0.3866 -0.4317 -0.3261
12552TIP3    H159147   4.323   0.173   2.489 -0.5053  0.2952 -0.5607
12552TIP3    H259148   4.350   0.319   2.456  0.4291 -0.1367 -1.7972
12553TIP3   OH259149   3.961   3.647  14.934 -0.1037  0.2252  0.2646
12553TIP3    H159150   3.997   3.729  14.900 -0.3164  0.8727  1.5451
12553TIP3    H259151   3.903   3.616  14.864 -1.5770  2.2200  0.5166
12554TIP3   OH259152   4.028   1.896  12.161 -0.3770 -0.3359  0.8945
12554TIP3    H159153   4.061   1.971  12.210  0.3907 -1.2224  1.7654
12554TIP3    H259154   3.981   1.844  12.226  2.3186 -2.5422  1.2311
12555TIP3   OH259155   1.778   5.006  15.626 -0.1484 -0.5968  0.6650
12555TIP3    H159156   1.813   5.004  15.715  0.4863  0.7726  0.4770
12555TIP3    H259157   1.713   4.936  15.624 -0.9221  0.0043  2.5356
12556TIP3   OH259158   3.631   5.322  14.209  0.3220  0.4116 -0.0555
12556TIP3    H159159   3.709   5.286  14.167  1.3205  2.9253 -0.4843
12556TIP3    H259160   3.646   5.309  14.302 -0.7007 -2.7879 -0.2003
12557TIP3   OH259161   3.686   2.691  12.801  0.3352 -0.3978 -0.3227
12557TIP3    H159162   3.710   2.676  12.709  0.7956 -2.8144  0.1302
12557TIP3    H259163   3.590   2.690  12.801  0.3335 -0.5786 -0.7463
12558TIP3   OH259164   6.005   2.030  16.487  0.0221  0.0156  0.3994
12558TIP3    H159165   6.004   1.940  16.520 -1.7022  0.3888  1.5310
12558TIP3    H259166   5.960   2.024  16.402 -1.1328 -0.0655  0.9881
12559TIP3   OH259167   5.277   3.062  12.071 -0.1796 -0.0091  0.5081
12559TIP3    H159168   5.329   3.142  12.067 -0.7566  0.3302 -1.6634
12559TIP3    H259169   5.189   3.089  12.048  0.1291 -1.5415 -3.3427
12560TIP3   OH259170   4.448   5.146  16.276 -0.8462 -0.2072  0.2780
12560TIP3    H159171   4.382   5.188  16.221 -1.1214  1.0479  1.5080
12560TIP3    H259172   4.516   5.117  16.215  0.3092  3.7365 -0.5797
12561TIP3   OH259173   2.800   0.611   1.204  0.0026 -0.1849  0.2014
12561TIP3    H159174   2.784   0.689   1.151 -1.1984 -0.1295  0.6299
12561TIP3    H259175   2.738   0.618   1.276 -2.4013 -3.1208 -1.3949
12562TIP3   OH259176   2.497   4.162   4.577  0.1874  0.0670 -0.3099
12562TIP3    H159177   2.582   4.191   4.546  0.9584  0.0021  1.5816
12562TIP3    H259178   2.461   4.239   4.622 -1.2080  0.3960 -1.8924
12563TIP3   OH259179   4.052   3.531  16.826  0.4259 -0.2009  0.1871
12563TIP3    H159180   4.082   3.616  16.860 -1.3310  0.4250  0.3078
12563TIP3    H259181   4.072   3.535  16.733  0.9761  0.0583  0.3100
12564TIP3   OH259182   1.005   4.019  16.630 -0.1029 -0.0386 -0.4086
12564TIP3    H159183   0.920   4.005  16.671 -0.1583  1.6034  0.1093
12564TIP3    H259184   1.022   3.938  16.581 -1.3581 -0.8952  0.5145
12565TIP3   OH259185   3.491   2.002   2.090 -0.1677 -0.9023 -0.0826
12565TIP3    H159186   3.435   2.039   2.022 -0.8077 -0.5587  0.6204
12565TIP3    H259187   3.490   1.907   2.074 -0.4836 -0.8423 -0.4171
12566TIP3   OH259188   4.159   4.515  16.684 -0.1278 -0.4269  0.2681
12566TIP3    H159189   4.202   4.587  16.731  0.3851 -0.4332 -0.1806
12566TIP3    H259190   4.078   4.553  16.651 -0.4427 -0.3905  1.0603
12567TIP3   OH259191   6.300   4.209  11.872 -0.5873 -0.2357 -0.2776
12567TIP3    H159192   6.293   4.119  11.904  1.3813  0.3202  2.0451
12567TIP3    H259193   6.234   4.216  11.804 -1.7807 -3.0146  0.4732
12568TIP3   OH259194   0.827   4.376  15.225  0.8035  0.3385  0.3358
12568TIP3    H159195   0.827   4.432  15.303  0.5897  0.1139  0.4970
12568TIP3    H259196   0.840   4.437  15.152  0.5046  0.6076  0.5057
12569TIP3   OH259197   0.713   0.557   1.594 -1.1521 -0.0061  0.5637
12569TIP3    H159198   0.653   0.627   1.619  0.2090  1.8923 -1.1313
12569TIP3    H259199   0.668   0.511   1.523 -0.2322  2.2992 -1.7016
12570TIP3   OH259200   0.396   6.503   3.660 -0.1813  0.2602 -0.1344
12570TIP3    H159201   0.367   6.467   3.576 -0.0473  1.2037 -0.5966
12570TIP3    H259202   0.324   6.484   3.720  0.1305 -1.3042 -0.1984
12571TIP3   OH259203   0.346   0.366   1.281 -0.4061 -0.0112  0.5421
12571TIP3    H159204   0.274   0.422   1.250  0.9230  0.9878 -0.8686
12571TIP3    H259205   0.334   0.284   1.234  0.6438  0.9370 -1.5221
12572TIP3   OH259206   3.379   6.524   0.415  0.0205  0.0509 -0.2791
12572TIP3    H159207   3.463   6.526   0.370  0.2828 -1.8947  0.0325
12572TIP3    H259208   3.329   6.457   0.369 -1.1351  0.7422 -0.0612
12573TIP3   OH259209   4.920   3.902  14.111  0.4592  0.3360  0.5265
12573TIP3    H159210   4.995   3.864  14.156  0.4246 -1.0211 -0.4945
12573TIP3    H259211   4.844   3.861  14.152  0.4667 -2.3800 -1.8698
12574TIP3   OH259212   2.595   3.150  15.608 -0.3617  0.3125 -0.5191
12574TIP3    H159213   2.662   3.185  15.549 -1.0462  1.1555 -0.8159
12574TIP3    H259214   2.556   3.077  15.560  1.4801 -1.3433  0.3401
12575TIP3   OH259215   1.429   4.629   4.409 -0.4915  0.1988  0.2318
12575TIP3    H159216   1.462   4.540   4.399 -1.9200 -0.3630  0.2647
12575TIP3    H259217   1.389   4.630   4.496 -0.6950  0.8067  0.1362
12576TIP3   OH259218   3.598   0.226  14.329  0.4999 -0.1136  0.2457
12576TIP3    H159219   3.670   0.289  14.323  0.6320 -0.2719  0.1555
12576TIP3    H259220   3.602   0.177  14.247  1.5537 -1.4748  1.0693
12577TIP3   OH259221   2.361   3.305   4.999 -0.2290 -0.3635  0.4393
12577TIP3    H159222   2.415   3.304   4.920 -0.1086  0.9226  0.4885
12577TIP3    H259223   2.368   3.394   5.032 -2.2136 -0.2218  0.5817
12578TIP3   OH259224   2.835   6.881   4.128  0.1393 -0.0978  0.3491
12578TIP3    H159225   2.759   6.898   4.184 -1.7540  2.4812 -2.6874
12578TIP3    H259226   2.887   6.961   4.133  1.6176 -1.0593  0.8079
12579TIP3   OH259227   4.554   0.785  12.028  0.5350 -0.2843  0.1708
12579TIP3    H159228   4.554   0.690  12.025  1.4748 -0.2653 -0.9576
12579TIP3    H259229   4.508   0.806  12.110  0.9110 -1.7112  0.7846
12580TIP3   OH259230   0.074   4.545   0.334 -0.2658 -0.4679  0.0609
12580TIP3    H159231   0.152   4.594   0.359 -0.7376  0.1147  0.4369
12580TIP3    H259232   0.002   4.609   0.342 -0.7999 -1.0392 -0.0952
12581TIP3   OH259233   3.286   0.381   5.695 -0.0785 -0.2421 -0.7111
12581TIP3    H159234   3.322   0.460   5.736 -1.3354  0.5315 -1.0410
12581TIP3    H259235   3.266   0.323   5.769  0.5957 -0.1457 -0.4456
12582TIP3   OH259236   2.517   5.422  11.843  0.2345  0.1659  0.0304
12582TIP3    H159237   2.449   5.355  11.842  0.3088  0.0459  1.4195
12582TIP3    H259238   2.599   5.373  11.831  0.1080  0.3290 -1.8398
12583TIP3   OH259239   5.451   2.813   0.946 -0.4162 -0.4094  0.4223
12583TIP3    H159240   5.389   2.871   0.902 -1.3075 -1.6175  0.0553
12583TIP3    H259241   5.508   2.780   0.876  0.2486  0.1878  0.6656
12584TIP3   OH259242   4.567   6.887   6.301  0.1174 -0.2752  0.2313
12584TIP3    H159243   4.596   6.815   6.357 -0.4243 -0.3005  0.4907
12584TIP3    H259244   4.530   6.844   6.224  0.5789 -0.2496 -0.0032
12585TIP3   OH259245   3.709   2.451  11.138 -0.4434  0.4655  0.0178
12585TIP3    H159246   3.618   2.420  11.145 -1.0245  1.6140 -1.8579
12585TIP3    H259247   3.702   2.546  11.139  0.6556  0.5702 -1.0056
12586TIP3   OH259248   4.750   2.668  11.773  0.0281  0.5371  0.6878
12586TIP3    H159249   4.784   2.754  11.798 -0.8045  1.2938 -0.6393
12586TIP3    H259250   4.656   2.676  11.784 -0.1224  0.0554 -0.1616
12587TIP3   OH259251   4.057   0.497   3.706 -0.2335  0.6921 -0.0979
12587TIP3    H159252   4.027   0.577   3.663  0.6740  2.3669  2.1764
12587TIP3    H259253   4.049   0.429   3.639 -0.8815  2.6903 -2.1725
12588TIP3   OH259254   2.650   2.687   6.306  0.0270  0.3630 -0.5410
12588TIP3    H159255   2.669   2.645   6.390  1.7730 -0.5309 -1.3194
12588TIP3    H259256   2.688   2.628   6.241  0.7928  2.1743 -1.8092
12589TIP3   OH259257   0.583   6.312  11.560 -0.5916 -0.1304 -0.0459
12589TIP3    H159258   0.629   6.396  11.558 -0.3394 -0.2768 -0.8155
12589TIP3    H259259   0.512   6.325  11.622  0.1538  0.2801  0.7540
12590TIP3   OH259260   1.386   6.839  11.429 -0.1333  0.4311 -0.6559
12590TIP3    H159261   1.326   6.910  11.452  0.1764  0.2960  0.6466
12590TIP3    H259262   1.403   6.851  11.335 -2.2391  0.4102 -1.0905
12591TIP3   OH259263   5.355   3.754  14.873  0.7348  0.5804 -0.6168
12591TIP3    H159264   5.362   3.746  14.778  0.4379 -0.2721 -0.5748
12591TIP3    H259265   5.346   3.848  14.889 -1.2687  0.6013 -1.5947
12592TIP3   OH259266   2.065   0.183  15.443 -0.1237  0.2078 -0.0224
12592TIP3    H159267   2.089   0.237  15.368  0.8119  1.7042  1.2699
12592TIP3    H259268   2.018   0.243  15.501  0.0279 -0.6430  1.0127
12593TIP3   OH259269   5.472   6.199   3.991  0.5235 -0.3443 -0.2502
12593TIP3    H159270   5.418   6.256   3.936 -1.3926 -0.8221  1.0543
12593TIP3    H259271   5.549   6.180   3.937  0.6858  2.4670 -1.2005
12594TIP3   OH259272   5.502   2.537  15.827  0.2968  0.3044  0.4323
12594TIP3    H159273   5.467   2.475  15.891 -1.6951  1.8965  0.9997
12594TIP3    H259274   5.564   2.590  15.878 -0.0486  0.5115  0.6417
12595TIP3   OH259275   3.470   5.117   0.180 -0.1076 -0.0936  0.1412
12595TIP3    H159276   3.524   5.051   0.135  1.3691  1.0659  0.1168
12595TIP3    H259277   3.531   5.162   0.239 -0.3543  2.9650 -1.6897
12596TIP3   OH259278   2.449   3.794   3.219 -0.3052  0.0063  0.0567
12596TIP3    H159279   2.400   3.769   3.141 -2.0147  1.2587  0.6661
12596TIP3    H259280   2.389   3.775   3.291 -0.2723  2.3421  0.7782
12597TIP3   OH259281   6.428   4.087  12.290  0.0373  0.0205  0.2706
12597TIP3    H159282   6.367   4.059  12.222 -0.4887  2.1100 -0.1813
12597TIP3    H259283   6.389   4.055  12.371 -0.7526 -0.1705 -0.1753
12598TIP3   OH259284   2.422   0.775   5.506  0.1190  0.1305 -0.4827
12598TIP3    H159285   2.327   0.766   5.500 -0.1393  0.8381  1.5230
12598TIP3    H259286   2.438   0.786   5.600  2.0075  1.9064 -0.9555
12599TIP3   OH259287   6.664   1.433  15.986 -0.2379 -0.0158 -0.3175
12599TIP3    H159288   6.738   1.379  16.014  1.1204  1.0294 -1.6793
12599TIP3    H259289   6.681   1.518  16.028 -1.6683 -0.2480  0.7964
12600TIP3   OH259290   2.535   1.158   5.364  0.1692  0.1532 -0.3279
12600TIP3    H159291   2.456   1.105   5.372  0.5159 -0.3328 -0.0856
12600TIP3    H259292   2.507   1.247   5.384 -0.7395  0.3342 -2.1739
12601TIP3   OH259293   2.913   0.246  10.133 -0.4624 -0.6087 -0.2557
12601TIP3    H159294   2.979   0.314  10.143 -1.3100  0.1698  0.0569
12601TIP3    H259295   2.832   0.284  10.165 -1.7575 -0.4942 -3.2874
12602TIP3   OH259296   1.577   5.429  15.479 -0.5039 -0.3327  0.0407
12602TIP3    H159297   1.607   5.499  15.536 -0.1674  0.7871 -1.4650
12602TIP3    H259298   1.579   5.351  15.535  1.0448  0.4702  1.1941
12603TIP3   OH259299   1.022   6.398  16.709  0.0924  0.4076 -0.5252
12603TIP3    H159300   1.019   6.489  16.738  1.2184  0.3013 -0.0199
12603TIP3    H259301   1.102   6.363  16.748 -1.2128 -1.3188  0.7801
12604TIP3   OH259302   0.339   0.280  12.099 -0.1488  0.1957  0.1992
12604TIP3    H159303   0.315   0.316  12.013 -0.4424  1.7819  0.9034
12604TIP3    H259304   0.269   0.309  12.157 -0.8458 -2.2690  0.6993
12605TIP3   OH259305   1.275   3.566   5.536 -0.5453  0.6567 -0.4502
12605TIP3    H159306   1.336   3.640   5.546 -0.7879  0.5941  2.2925
12605TIP3    H259307   1.307   3.502   5.600 -1.8272 -0.5610 -1.0113
12606TIP3   OH259308   4.416   4.707  15.186 -0.6038 -0.0685  0.1142
12606TIP3    H159309   4.415   4.702  15.091 -0.8562  0.4934  0.0888
12606TIP3    H259310   4.326   4.729  15.211 -0.6930 -0.8481  0.5206
12607TIP3   OH259311   5.791   6.064   5.894  0.0689  0.0281 -0.1847
12607TIP3    H159312   5.866   6.121   5.912 -0.0457  0.0633  0.2081
12607TIP3    H259313   5.789   6.004   5.969  1.1524 -1.5481 -1.3623
12608TIP3   OH259314   4.215   0.477  15.381  0.1598 -0.4408 -0.3774
12608TIP3    H159315   4.221   0.571  15.364  0.6367 -0.3818  0.0760
12608TIP3    H259316   4.264   0.436  15.309 -0.0220 -0.3395 -0.5574
12609TIP3   OH259317   3.009   2.896  12.216 -0.0493  0.1910  0.2155
12609TIP3    H159318   2.919   2.921  12.194 -0.8810 -0.6688  2.2620
12609TIP3    H259319   3.047   2.974  12.256 -0.7446 -0.1119  1.5314
12610TIP3   OH259320   1.397   6.330   4.297  0.1597  0.0874 -0.2227
12610TIP3    H159321   1.393   6.306   4.390 -2.3093 -2.6456 -0.8664
12610TIP3    H259322   1.443   6.257   4.256 -0.7034  0.1574 -1.3708
12611TIP3   OH259323   1.373   4.940   2.888 -0.4153  0.2866  0.1040
12611TIP3    H159324   1.455   4.931   2.839  0.6296 -1.0956  1.9804
12611TIP3    H259325   1.398   4.932   2.980 -2.7944 -1.4475  0.7081
12612TIP3   OH259326   6.519   5.849   4.322 -0.1237  0.1152 -0.0490
12612TIP3    H159327   6.428   5.833   4.295  0.2244 -1.5656 -0.3521
12612TIP3    H259328   6.571   5.828   4.244  0.5824  0.2245  0.3830
12613TIP3   OH259329   2.682   3.026   6.253  0.4017  0.5077  0.1014
12613TIP3    H159330   2.604   2.983   6.220  2.2999 -2.2910 -1.2219
12613TIP3    H259331   2.667   3.035   6.347 -0.8232 -1.6511  0.1712
12614TIP3   OH259332   5.668   5.327   4.996 -0.1109  0.3240  0.7307
12614TIP3    H159333   5.710   5.282   4.922 -0.4325  2.7814 -1.0560
12614TIP3    H259334   5.741   5.365   5.045  0.0116  0.3980  0.4943
12615TIP3   OH259335   3.436   2.248   0.204  0.3079 -0.1202  0.6208
12615TIP3    H159336   3.354   2.295   0.216  1.5519  2.1725  0.6930
12615TIP3    H259337   3.447   2.243   0.109 -0.5320 -1.7014  0.5616
12616TIP3   OH259338   1.400   6.579   3.109 -0.2718  0.8069  0.0453
12616TIP3    H159339   1.466   6.515   3.137 -0.3350  1.0547  0.7830
12616TIP3    H259340   1.435   6.664   3.136 -2.1297  0.7586  3.1454
12617TIP3   OH259341   5.712   5.708   3.476 -0.9598 -0.2383 -0.2650
12617TIP3    H159342   5.662   5.649   3.533 -0.2306  1.1675  1.9331
12617TIP3    H259343   5.646   5.761   3.433 -1.5277 -1.3400 -0.8034
12618TIP3   OH259344   6.337   4.942  16.190 -0.2503 -0.1414  0.1193
12618TIP3    H159345   6.274   4.909  16.126  1.1047 -2.8538  0.0339
12618TIP3    H259346   6.315   5.035  16.200 -3.2542 -0.6319 -0.9792
12619TIP3   OH259347   1.104   4.616  13.759  0.3873  0.2291  0.0699
12619TIP3    H159348   1.072   4.541  13.709  0.6334 -1.2528  1.9931
12619TIP3    H259349   1.198   4.618  13.741  0.4548 -0.2176  0.3438
12620TIP3   OH259350   3.963   5.967  13.517  0.2277 -0.4626  0.4921
12620TIP3    H159351   3.889   6.002  13.468  0.3173  0.0785  0.7415
12620TIP3    H259352   4.022   5.934  13.449 -0.1909 -0.8075  0.2896
12621TIP3   OH259353   5.832   4.816  13.416 -0.0487 -1.0361 -0.2452
12621TIP3    H159354   5.884   4.743  13.448  1.0272 -1.2640 -2.3747
12621TIP3    H259355   5.773   4.777  13.351 -2.4623 -0.6623  1.5684
12622TIP3   OH259356   6.674   5.909   0.124  0.2003 -0.8263 -0.0547
12622TIP3    H159357   6.612   5.839   0.104 -0.9292  0.0758  0.1817
12622TIP3    H259358   6.635   5.987   0.083  1.5322 -0.3632 -0.4959
12623TIP3   OH259359   5.546   0.663  10.705 -0.0148 -0.7610  0.0909
12623TIP3    H159360   5.558   0.744  10.655 -1.1250  0.3083  1.4709
12623TIP3    H259361   5.586   0.595  10.651 -1.7586  0.1994 -2.6058
12624TIP3   OH259362   3.227   0.843  11.183  0.2249  0.0015 -0.0160
12624TIP3    H159363   3.180   0.889  11.114 -0.8947 -2.4839 -1.0115
12624TIP3    H259364   3.316   0.877  11.178 -0.5652  2.2378 -0.4358
12625TIP3   OH259365   0.779   4.423   3.104 -0.0016 -0.0641 -0.2380
12625TIP3    H159366   0.706   4.404   3.046  1.7216 -0.3025 -2.4395
12625TIP3    H259367   0.843   4.468   3.049  1.1776  0.9625  1.8313
12626TIP3   OH259368   3.753   3.744   1.789 -0.2256  0.0514 -0.3412
12626TIP3    H159369   3.782   3.655   1.772 -1.2195 -0.1152 -1.2656
12626TIP3    H259370   3.708   3.738   1.874  0.0718 -0.2298 -0.1986
12627TIP3   OH259371   0.601   3.815   3.939  0.4590  0.1889 -0.3864
12627TIP3    H159372   0.681   3.771   3.967  0.8207  1.9381  1.5062
12627TIP3    H259373   0.629   3.870   3.866  0.8806  0.3990 -0.0724
12628TIP3   OH259374   5.885   6.736   2.104 -0.2421  0.2093  0.3166
12628TIP3    H159375   5.927   6.670   2.159 -2.8496 -0.8568  1.2241
12628TIP3    H259376   5.835   6.790   2.165 -2.3126 -0.2906 -0.8278
12629TIP3   OH259377   6.602   3.321   0.997  0.5167  0.0809  0.6123
12629TIP3    H159378   6.601   3.331   0.902  0.9268 -0.2706  0.5634
12629TIP3    H259379   6.546   3.246   1.015  0.4795  0.1155  0.6402
12630TIP3   OH259380   6.376   4.301  12.605 -0.0839  0.1485 -0.1238
12630TIP3    H159381   6.369   4.312  12.511 -1.5463 -1.8125 -0.3105
12630TIP3    H259382   6.415   4.383  12.636  1.4279  0.4206 -2.4975
12631TIP3   OH259383   5.995   4.380   4.037  0.2274 -0.1071  0.3020
12631TIP3    H159384   6.025   4.369   4.128  0.3865  1.3490  0.4493
12631TIP3    H259385   6.064   4.431   3.995  0.2626 -0.9557 -0.7238
12632TIP3   OH259386   3.495   1.900   0.069  0.1214 -0.1012  0.2423
12632TIP3    H159387   3.556   1.971   0.049  0.5333 -0.7696 -0.9976
12632TIP3    H259388   3.532   1.857   0.146  1.1314 -0.3952 -0.3963
12633TIP3   OH259389   3.056   6.529   1.329  0.3372 -0.3719  0.2229
12633TIP3    H159390   3.128   6.536   1.391 -0.2906  0.4580  0.8671
12633TIP3    H259391   2.994   6.470   1.371  1.1384 -2.0710 -0.8541
12634TIP3   OH259392   6.527   0.597   0.280  0.5660 -0.2258  0.2434
12634TIP3    H159393   6.596   0.661   0.262 -0.4462  0.3949 -1.7478
12634TIP3    H259394   6.446   0.648   0.278 -0.3135 -1.5515 -1.7900
12635TIP3   OH259395   6.566   2.216   3.208 -0.9671 -0.1430 -0.1677
12635TIP3    H159396   6.633   2.277   3.241 -2.2740  0.4219  1.6181
12635TIP3    H259397   6.558   2.237   3.115  0.1823  0.8850 -0.0657
12636TIP3   OH259398   1.336   6.190  10.509 -0.2564 -0.0794 -0.8110
12636TIP3    H159399   1.306   6.149  10.590  0.1929  1.6442  0.2792
12636TIP3    H259400   1.274   6.160  10.443 -1.9067  0.1358  0.5710
12637TIP3   OH259401   4.280   6.718  12.898 -0.2436 -0.5697 -0.0964
12637TIP3    H159402   4.252   6.739  12.808  0.6727  0.8279 -0.0800
12637TIP3    H259403   4.264   6.798  12.947  0.5179 -0.8853  0.6874
12638TIP3   OH259404   2.390   1.317  14.601 -0.5935 -0.3037  0.1363
12638TIP3    H159405   2.321   1.297  14.538 -0.0641 -2.1375  0.0715
12638TIP3    H259406   2.461   1.353  14.548 -1.3308  1.2582  0.1589
12639TIP3   OH259407   0.239   4.540  10.797  0.3280  0.0260 -0.0825
12639TIP3    H159408   0.294   4.464  10.814  0.2663 -0.4753 -1.8912
12639TIP3    H259409   0.293   4.597  10.742 -0.4499  0.1835 -0.6997
12640TIP3   OH259410   3.715   4.975   3.420 -0.2931  0.1672 -0.7373
12640TIP3    H159411   3.648   4.940   3.362  0.0949 -0.3831 -0.8560
12640TIP3    H259412   3.667   5.003   3.498 -0.6358 -0.3966 -0.7445
12641TIP3   OH259413   0.898   0.695  14.945  0.3342 -0.2216  0.1574
12641TIP3    H159414   0.948   0.637  15.002  2.3989  1.2528 -0.0501
12641TIP3    H259415   0.928   0.674  14.857 -2.6500 -2.3101 -0.5106
12642TIP3   OH259416   5.952   1.790  15.274  0.1183  0.2478 -0.2313
12642TIP3    H159417   5.971   1.844  15.351  0.9350 -0.3324 -0.0090
12642TIP3    H259418   6.018   1.721  15.277 -2.0902 -1.9817  0.6258
12643TIP3   OH259419   1.028   3.094  13.601  0.5588 -0.5127 -0.2161
12643TIP3    H159420   0.974   3.123  13.527  1.9660 -0.8593 -1.4275
12643TIP3    H259421   1.106   3.056  13.560  0.1864 -3.1975  1.3545
12644TIP3   OH259422   6.431   1.319   5.422  0.0238 -0.0881  0.3369
12644TIP3    H159423   6.487   1.255   5.465 -0.5127 -1.3084 -0.7219
12644TIP3    H259424   6.478   1.342   5.342 -0.1079  0.3177  0.3729
12645TIP3   OH259425   5.465   6.806  16.001  0.7009 -0.4522 -0.3056
12645TIP3    H159426   5.477   6.797  16.095  0.0835  2.1664  0.1079
12645TIP3    H259427   5.548   6.777  15.964  1.4740 -0.2241  1.1620
12646TIP3   OH259428   5.211   2.719  11.494  0.3635  0.3766  0.4630
12646TIP3    H159429   5.149   2.713  11.421  0.5165 -0.3264  0.3796
12646TIP3    H259430   5.243   2.629  11.505 -0.1688  0.3306  1.8466
12647TIP3   OH259431   3.036   5.820  13.734  0.5992 -0.1608  0.2594
12647TIP3    H159432   2.952   5.784  13.765  0.1683 -1.0069 -1.7489
12647TIP3    H259433   3.023   5.835  13.641  2.5602  0.0926 -0.0113
12648TIP3   OH259434   5.515   4.680   4.554  0.1510 -0.8093  0.2852
12648TIP3    H159435   5.530   4.712   4.465  1.9742 -1.5383  0.2869
12648TIP3    H259436   5.497   4.758   4.606  1.7723 -0.0749 -0.2221
12649TIP3   OH259437   5.433   3.108  15.646 -0.6129  0.1211  0.3525
12649TIP3    H159438   5.513   3.130  15.599  0.1848 -1.4052  0.9341
12649TIP3    H259439   5.380   3.188  15.641  0.6888  0.9742 -0.5329
12650TIP3   OH259440   0.699   0.786  13.848  0.8047 -0.4254 -0.4484
12650TIP3    H159441   0.644   0.748  13.780  1.2294 -2.2912  0.1769
12650TIP3    H259442   0.684   0.731  13.925 -1.8932  3.2735  2.0206
12651TIP3   OH259443   0.947   3.475  11.191  0.7132  0.2368  0.2134
12651TIP3    H159444   1.029   3.459  11.237  0.8226  1.2012  0.3599
12651TIP3    H259445   0.880   3.431  11.244  1.0344  0.0704  0.4816
12652TIP3   OH259446   3.438   4.589   4.870 -0.0136  0.1134  0.4298
12652TIP3    H159447   3.365   4.637   4.909 -0.3758 -0.2641  0.2183
12652TIP3    H259448   3.434   4.502   4.909 -0.7309 -0.4559 -0.8585
12653TIP3   OH259449   3.446   0.821   3.135 -0.0651 -0.4546 -0.2477
12653TIP3    H159450   3.498   0.885   3.184 -1.0447 -0.0377  0.2815
12653TIP3    H259451   3.415   0.870   3.058  2.5597 -1.4630 -2.0853
12654TIP3   OH259452   3.285   3.262  16.660  0.6370  0.0175 -0.0786
12654TIP3    H159453   3.346   3.275  16.587  0.2770  0.6168 -0.2803
12654TIP3    H259454   3.296   3.170  16.684  1.1340 -0.0542 -0.5494
12655TIP3   OH259455   4.572   1.780  11.672 -0.4533 -0.1039  0.2836
12655TIP3    H159456   4.655   1.737  11.693 -0.7898 -0.6130  0.5878
12655TIP3    H259457   4.506   1.714  11.690 -0.7731 -0.7243 -2.6786
12656TIP3   OH259458   2.818   5.823   5.171 -0.1728  0.2579  0.2371
12656TIP3    H159459   2.874   5.892   5.135 -0.8498  1.1677  0.8659
12656TIP3    H259460   2.731   5.863   5.177 -0.2217 -0.0378  2.2563
12657TIP3   OH259461   6.773   0.617   1.507 -0.1119  0.2647  0.2931
12657TIP3    H159462   6.854   0.567   1.507  0.9543  1.9062  1.0551
12657TIP3    H259463   6.744   0.615   1.598  1.6182  3.4650  1.0653
12658TIP3   OH259464   1.079   1.130   5.834 -0.3675 -0.1066 -0.0622
12658TIP3    H159465   1.100   1.046   5.874 -0.5582 -0.7045 -1.1575
12658TIP3    H259466   1.006   1.164   5.884  0.3608 -0.0978  1.0298
12659TIP3   OH259467   4.795   3.729  12.845  0.1846 -0.3025 -0.6193
12659TIP3    H159468   4.836   3.685  12.772  0.4917  0.3950 -0.8797
12659TIP3    H259469   4.721   3.673  12.869  1.0255 -1.3567 -0.4136
12660TIP3   OH259470   0.950   3.398  13.637  0.6117  0.5846  0.3706
12660TIP3    H159471   0.926   3.387  13.546 -0.0695  2.0912  0.3360
12660TIP3    H259472   1.004   3.322  13.657 -0.5890 -0.6328 -0.8012
12661TIP3   OH259473   1.434   2.719  15.081  0.2631 -0.0291  0.5345
12661TIP3    H159474   1.425   2.697  14.988 -1.4776 -1.7479  1.0297
12661TIP3    H259475   1.443   2.634  15.125 -2.2213  0.4452  2.1827
12662TIP3   OH259476   6.590   1.624  11.935 -0.3942 -0.3362 -0.3492
12662TIP3    H159477   6.658   1.563  11.905  0.0807 -0.2725  0.5471
12662TIP3    H259478   6.516   1.567  11.959 -0.0495 -0.5507  0.2312
12663TIP3   OH259479   2.210   4.745   4.630 -0.1047 -0.2427  0.2033
12663TIP3    H159480   2.160   4.734   4.711  0.3782  1.4539  0.7943
12663TIP3    H259481   2.144   4.747   4.561 -0.6254 -0.6494  0.6769
12664TIP3   OH259482   3.570   2.258   3.586 -0.2898  0.0829  0.3742
12664TIP3    H159483   3.518   2.197   3.639 -1.9766  1.1157 -0.0164
12664TIP3    H259484   3.624   2.202   3.531 -0.8160 -1.0403  0.9615
12665TIP3   OH259485   5.125   6.427  10.347 -0.5979 -0.1337 -0.0659
12665TIP3    H159486   5.192   6.449  10.412  0.4431 -1.6372 -0.5751
12665TIP3    H259487   5.084   6.511  10.326  2.4822  1.2312 -1.2390
12666TIP3   OH259488   3.007   2.465  16.603 -0.2641  0.0934  0.6270
12666TIP3    H159489   3.079   2.416  16.641  1.9622  1.6381 -1.3475
12666TIP3    H259490   2.982   2.528  16.672  0.4742 -0.2490  1.2191
12667TIP3   OH259491   0.977   3.786  14.719 -0.5510  0.0741 -0.0123
12667TIP3    H159492   1.031   3.864  14.736 -2.3851  1.1190  1.5502
12667TIP3    H259493   1.010   3.751  14.637  0.4290  2.4614 -0.7299
12668TIP3   OH259494   1.554   1.484   5.180 -0.1892  0.3461  0.1220
12668TIP3    H159495   1.610   1.556   5.151  0.0877  0.0329 -0.1362
12668TIP3    H259496   1.506   1.519   5.255  0.9451  0.3579  0.8512
12669TIP3   OH259497   2.306   0.892  14.297 -0.2620  0.3593 -0.3455
12669TIP3    H159498   2.371   0.963  14.292 -0.9454  1.0431  0.1611
12669TIP3    H259499   2.355   0.813  14.274  0.3403  1.0937 -1.7368
12670TIP3   OH259500   3.204   1.017   5.045  0.0352 -0.4155  0.7255
12670TIP3    H159501   3.272   0.950   5.045 -1.4312 -1.9696  0.8085
12670TIP3    H259502   3.192   1.040   4.953 -0.7387 -1.6651  0.4951
12671TIP3   OH259503   1.348   2.844  13.821  0.0239 -0.1455  0.2271
12671TIP3    H159504   1.397   2.926  13.828  1.0723 -0.7355  0.1002
12671TIP3    H259505   1.256   2.869  13.829  0.2404  1.1893 -1.0567
12672TIP3   OH259506   1.443   0.007   1.151  0.2070  0.2845 -0.5322
12672TIP3    H159507   1.519   0.062   1.132  0.2342  2.3600  4.1002
12672TIP3    H259508   1.478  -0.064   1.205 -0.5856 -1.6643 -2.4195
12673TIP3   OH259509   3.104   0.834   3.611  0.1222  0.0413 -0.1674
12673TIP3    H159510   3.163   0.894   3.657  0.4486  0.1843 -0.7643
12673TIP3    H259511   3.049   0.797   3.680 -0.4049  1.3743  0.1509
12674TIP3   OH259512   1.640   4.150  13.523  0.5078 -0.8299  0.3200
12674TIP3    H159513   1.681   4.090  13.461 -1.4832 -1.3254 -0.6111
12674TIP3    H259514   1.607   4.094  13.593 -0.0020 -0.6542  0.2266
12675TIP3   OH259515   0.810   3.201  12.087  0.3200 -0.1606  0.2372
12675TIP3    H159516   0.761   3.283  12.092  0.8878  0.1265  1.8525
12675TIP3    H259517   0.770   3.145  12.153 -1.0467 -1.8183 -1.8557
12676TIP3   OH259518   1.194   2.529   0.116 -0.3449  0.0514 -0.4445
12676TIP3    H159519   1.112   2.511   0.070 -0.5181  1.4563 -0.7293
12676TIP3    H259520   1.188   2.621   0.140  0.5174 -0.2079  0.8564
12677TIP3   OH259521   6.728   5.912  15.019  0.1564  0.7443  0.5537
12677TIP3    H159522   6.756   5.931  15.109  0.6685  0.9655  0.3569
12677TIP3    H259523   6.810   5.909  14.969 -0.1232  0.6182  0.0947
12678TIP3   OH259524   5.347   2.979   1.444  0.4416 -0.3403  0.2739
12678TIP3    H159525   5.407   2.968   1.518  0.8738 -2.3804 -0.3030
12678TIP3    H259526   5.405   2.990   1.368  0.0069  1.6206  0.1936
12679TIP3   OH259527   2.691   5.087  14.964  0.6805  0.4513 -0.2463
12679TIP3    H159528   2.612   5.099  14.910  0.6521  0.0778 -0.2911
12679TIP3    H259529   2.657   5.065  15.051  0.7255  1.0996 -0.0615
12680TIP3   OH259530   6.476   0.830  10.839  0.3922 -0.1131 -0.3354
12680TIP3    H159531   6.395   0.782  10.817  0.8778 -0.8796 -0.4934
12680TIP3    H259532   6.483   0.897  10.771 -0.2542  0.1405 -0.1608
12681TIP3   OH259533   4.077   1.178  14.002 -0.4830  0.3153 -0.3718
12681TIP3    H159534   4.006   1.242  14.005  0.7762  1.7285  1.5959
12681TIP3    H259535   4.154   1.227  14.031  1.0655 -1.4910 -1.2365
12682TIP3   OH259536   4.594   4.514  11.705 -0.1313  0.7893  0.1362
12682TIP3    H159537   4.636   4.430  11.726 -0.7235  0.4177 -0.1326
12682TIP3    H259538   4.531   4.528  11.776 -0.6792  0.5479 -0.2941
12683TIP3   OH259539   6.704   0.810   5.367  0.9681  0.2794 -0.3592
12683TIP3    H159540   6.690   0.849   5.453  0.7709  0.8227 -0.6310
12683TIP3    H259541   6.643   0.736   5.364 -0.1277  1.1494 -0.5871
12684TIP3   OH259542   1.887   0.050   2.026 -0.0657  0.4827  1.1267
12684TIP3    H159543   1.821   0.063   1.958  1.1328 -0.1812 -0.2279
12684TIP3    H259544   1.893   0.135   2.070  0.3304  1.4837 -0.7478
12685TIP3   OH259545   2.609   0.939  16.326 -0.2295  0.1883  0.5978
12685TIP3    H159546   2.587   0.872  16.261  1.4014  1.5513 -1.5349
12685TIP3    H259547   2.687   0.906  16.369  0.6659  0.6998 -0.5619
12686TIP3   OH259548   1.070   1.557  16.690  0.0319  0.2468  0.6273
12686TIP3    H159549   1.136   1.534  16.756  0.3382  1.6590  0.8385
12686TIP3    H259550   1.010   1.616  16.736  0.3702  1.4304 -0.4067
12687TIP3   OH259551   1.185   3.036  14.027 -0.3971  0.0084 -0.0054
12687TIP3    H159552   1.119   2.991  13.974  0.1341  0.1465 -0.7985
12687TIP3    H259553   1.247   3.072  13.963  1.4988 -1.7330  0.7484
12688TIP3   OH259554   2.778   3.566  15.029 -0.6048  0.0800  0.8032
12688TIP3    H159555   2.758   3.528  15.115 -2.1307 -0.6875  0.1444
12688TIP3    H259556   2.847   3.629  15.047  1.4364 -2.3526  2.1047
12689TIP3   OH259557   2.566   0.501   4.460  0.2571  0.4885  0.1904
12689TIP3    H159558   2.586   0.412   4.489 -1.0978 -0.0547 -0.4494
12689TIP3    H259559   2.559   0.551   4.541  2.7967  0.4550  0.4963
12690TIP3   OH259560   1.557   1.778  12.529  0.2203 -1.0453  0.2570
12690TIP3    H159561   1.587   1.864  12.561 -0.7672 -1.0811  1.3347
12690TIP3    H259562   1.466   1.792  12.504 -0.0709 -1.8798  0.8324
12691TIP3   OH259563   4.897   5.550  10.539 -0.8637 -0.0481  0.1033
12691TIP3    H159564   4.861   5.534  10.452 -1.1207  0.9390  0.0184
12691TIP3    H259565   4.963   5.618  10.525 -0.8975  0.1056  0.6796
12692TIP3   OH259566   4.651   5.479  16.241  0.4210  0.2721 -0.5711
12692TIP3    H159567   4.693   5.530  16.311 -0.0817  0.3697 -0.3358
12692TIP3    H259568   4.638   5.393  16.279  1.6299 -0.1704 -1.1004
12693TIP3   OH259569   0.529   0.097   0.863  0.5459 -0.5969 -0.2195
12693TIP3    H159570   0.457   0.034   0.853  0.2431 -0.0192 -1.9558
12693TIP3    H259571   0.485   0.179   0.887  0.4726 -0.0009 -2.2160
12694TIP3   OH259572   4.413   4.783   3.184  0.1304  0.4518  0.3801
12694TIP3    H159573   4.353   4.822   3.249  0.9801  0.6553  1.0652
12694TIP3    H259574   4.373   4.803   3.100 -0.0879  1.7598  0.7699
12695TIP3   OH259575   5.752   1.013  13.615 -0.0284 -0.3318  0.7648
12695TIP3    H159576   5.757   1.107  13.633 -1.2153 -0.6549  3.1662
12695TIP3    H259577   5.838   0.992  13.577  0.9019  1.4345  1.7308
12696TIP3   OH259578   5.378   6.347   1.505 -0.3552  0.2212 -0.2325
12696TIP3    H159579   5.404   6.255   1.503 -1.2150 -0.0201 -0.4834
12696TIP3    H259580   5.437   6.386   1.570 -0.9282 -0.8089  0.9646
12697TIP3   OH259581   0.432   6.021  10.812  0.3740 -0.3254 -0.1540
12697TIP3    H159582   0.462   5.940  10.855 -0.1401 -0.5773 -0.2625
12697TIP3    H259583   0.466   6.014  10.723 -0.0385 -0.6311 -0.2893
12698TIP3   OH259584   3.765   6.057   5.171 -0.1926 -0.1736 -0.3759
12698TIP3    H159585   3.842   6.104   5.140 -1.2168  1.7669 -0.1257
12698TIP3    H259586   3.698   6.124   5.182 -1.2595 -1.4502  1.6367
12699TIP3   OH259587   5.034   2.250   1.931  0.0554  0.1177 -0.9825
12699TIP3    H159588   5.114   2.227   1.977  0.9945  0.8669 -2.1776
12699TIP3    H259589   4.972   2.181   1.954  1.2330 -0.8088 -0.5171
12700TIP3   OH259590   1.226   1.115  15.827 -0.3073  0.5060  0.2238
12700TIP3    H159591   1.226   1.037  15.883 -1.8187 -0.3956 -0.9344
12700TIP3    H259592   1.134   1.142  15.825 -0.3187  0.4617 -1.8115
12701TIP3   OH259593   2.688   5.829  11.317  0.7334  0.3681  0.0076
12701TIP3    H159594   2.606   5.783  11.335 -0.0508  2.2468  1.6065
12701TIP3    H259595   2.660   5.911  11.276  1.5799  1.8265  2.1461
12702TIP3   OH259596   3.377   2.729   5.303 -0.2551 -0.7462  0.2979
12702TIP3    H159597   3.398   2.646   5.345  0.5286 -0.7006  0.0092
12702TIP3    H259598   3.457   2.754   5.257  0.2024  1.1611  1.9878
12703TIP3   OH259599   2.758   0.799  14.503 -0.1594 -0.3677 -0.2794
12703TIP3    H159600   2.853   0.809  14.493 -0.1211  0.1157  0.4360
12703TIP3    H259601   2.741   0.828  14.593 -0.9928 -0.4197 -0.4143
12704TIP3   OH259602   2.144   4.399  13.315  0.4177  0.1033 -0.7922
12704TIP3    H159603   2.193   4.418  13.394 -0.6744  1.2317 -0.3418
12704TIP3    H259604   2.085   4.474  13.305 -1.8832 -1.6038 -0.7600
12705TIP3   OH259605   4.668   5.787  13.299  0.1602 -0.0657  0.5113
12705TIP3    H159606   4.689   5.710  13.351  0.1071 -0.4063  0.0361
12705TIP3    H259607   4.742   5.796  13.239 -0.5612 -0.7027 -0.5187
12706TIP3   OH259608   1.997   0.102   3.169  0.3192 -0.1507  0.6581
12706TIP3    H159609   1.903   0.115   3.155  0.3339 -1.8657 -1.9982
12706TIP3    H259610   2.039   0.161   3.106  0.8808 -0.9992  0.2034
12707TIP3   OH259611   2.431   5.675  10.126 -0.1272  0.1156  0.1860
12707TIP3    H159612   2.492   5.748  10.123  0.2579 -0.2329 -1.1972
12707TIP3    H259613   2.350   5.710  10.089 -0.3659  0.2000  0.7707
12708TIP3   OH259614   5.206   5.233  12.119  0.0157  0.0201  0.4501
12708TIP3    H159615   5.210   5.139  12.135 -1.7705 -0.0105  0.9485
12708TIP3    H259616   5.203   5.242  12.024  0.5832 -0.3876  0.3891
12709TIP3   OH259617   1.941   2.813  16.731 -0.4448 -0.4561  0.0239
12709TIP3    H159618   1.890   2.887  16.765  1.0514  2.3715 -3.3391
12709TIP3    H259619   1.889   2.780  16.657  0.2632 -0.8426 -0.3120
12710TIP3   OH259620   6.439   2.095   5.451  0.0247 -0.2186 -0.2652
12710TIP3    H159621   6.372   2.151   5.412  0.0373 -0.5163 -0.7238
12710TIP3    H259622   6.476   2.147   5.522  1.6305  1.2554 -2.0777
12711TIP3   OH259623   4.685   4.124  13.536  0.3737 -0.0252  0.5570
12711TIP3    H159624   4.718   4.089  13.453  3.2730 -0.9552  1.9681
12711TIP3    H259625   4.624   4.057  13.567  1.4231 -1.0475  0.4787
12712TIP3   OH259626   1.155   6.390   2.843 -0.3689 -0.4080 -0.3041
12712TIP3    H159627   1.139   6.400   2.937 -1.5775 -0.5353 -0.4865
12712TIP3    H259628   1.207   6.467   2.819  1.8601 -1.4376  0.8668
12713TIP3   OH259629   5.678   3.583   4.691 -0.5765  0.5992  0.4013
12713TIP3    H159630   5.584   3.593   4.678 -0.2721  0.9417 -2.0472
12713TIP3    H259631   5.717   3.648   4.633  1.1917  1.0601  2.0118
12714TIP3   OH259632   4.264   2.826   5.688  0.2313  0.4373 -0.0089
12714TIP3    H159633   4.208   2.749   5.685 -0.6407  1.0620 -0.1428
12714TIP3    H259634   4.323   2.811   5.762 -0.5235  0.0434  0.5149
12715TIP3   OH259635   3.633   6.860  13.589  0.1852 -0.1575  0.0571
12715TIP3    H159636   3.606   6.811  13.666  0.3921 -0.1626  0.1269
12715TIP3    H259637   3.619   6.800  13.516 -0.1309 -0.1083  0.0750
12716TIP3   OH259638   0.796   3.019   3.466 -1.0107  0.3691  0.5925
12716TIP3    H159639   0.842   2.937   3.485 -0.2469  0.4124 -0.8629
12716TIP3    H259640   0.723   2.993   3.411 -0.7982  0.6477  0.1710
12717TIP3   OH259641   6.721   0.483  15.902 -0.5821  0.1225 -0.6285
12717TIP3    H159642   6.661   0.532  15.958  0.3176  0.9132 -0.3342
12717TIP3    H259643   6.766   0.423  15.962 -1.1949 -0.6056 -0.8789
12718TIP3   OH259644   3.720   5.097  12.551 -0.5321  0.1286  0.3625
12718TIP3    H159645   3.712   5.167  12.487 -2.3828 -0.3981 -0.0339
12718TIP3    H259646   3.809   5.106  12.586  0.2688  0.8811 -1.7253
12719TIP3   OH259647   1.213   1.219   1.962  0.0202  0.1977 -0.7220
12719TIP3    H159648   1.271   1.286   1.925  2.4925 -0.6585  1.3243
12719TIP3    H259649   1.169   1.264   2.035 -0.0695  0.1896 -0.7705
12720TIP3   OH259650   0.142   5.810  15.220 -0.4715 -0.1712 -0.6192
12720TIP3    H159651   0.189   5.811  15.303  1.6819 -1.5972 -1.7056
12720TIP3    H259652   0.054   5.840  15.241 -0.3149 -1.5066  2.3582
12721TIP3   OH259653   3.298   2.038  12.085 -0.7851 -0.4801 -0.0059
12721TIP3    H159654   3.290   1.958  12.032 -2.5223 -0.8083  0.6607
12721TIP3    H259655   3.391   2.059  12.084 -0.4181 -2.0078 -0.9483
12722TIP3   OH259656   5.841   1.271  13.796  0.1372 -0.1172  0.0456
12722TIP3    H159657   5.796   1.249  13.878  1.5481  0.9829  1.1666
12722TIP3    H259658   5.781   1.333  13.753 -0.2569 -0.0824  0.6236
12723TIP3   OH259659   3.041   0.296   6.130  0.3137 -0.0796  0.3143
12723TIP3    H159660   3.132   0.325   6.139 -0.2505  1.3677  1.9024
12723TIP3    H259661   3.015   0.327   6.043  1.2581 -0.2779 -0.0480
12724TIP3   OH259662   4.591   5.419   4.532  0.3807 -0.0850  0.0580
12724TIP3    H159663   4.608   5.465   4.614  1.0143  0.2814 -0.2689
12724TIP3    H259664   4.516   5.363   4.551  0.8234 -0.3826  1.0283
12725TIP3   OH259665   5.262   4.215   1.673  0.8007 -0.5313 -0.4490
12725TIP3    H159666   5.263   4.299   1.720 -2.4855 -1.2644  1.1778
12725TIP3    H259667   5.202   4.160   1.722 -1.0487 -2.2018 -4.1431
12726TIP3   OH259668   1.105   1.520   5.958  0.1839  0.0266  0.0584
12726TIP3    H159669   1.089   1.589   6.023  0.1967 -0.4383  0.5563
12726TIP3    H259670   1.200   1.519   5.947  0.3019 -0.7342  0.9727
12727TIP3   OH259671   6.063   6.562   2.631 -0.8620 -0.0377 -0.0827
12727TIP3    H159672   6.140   6.591   2.679 -1.0768 -1.7903  1.4451
12727TIP3    H259673   5.989   6.585   2.687 -1.3412  0.3403 -0.8598
12728TIP3   OH259674   0.023   5.318  12.573  0.1801 -0.0539 -0.7457
12728TIP3    H159675  -0.023   5.303  12.656 -0.5540  0.1371 -1.1051
12728TIP3    H259676  -0.038   5.287  12.506  1.1674 -1.1425 -1.1804
12729TIP3   OH259677   4.516   3.781  14.928  0.2466  0.6674  0.1662
12729TIP3    H159678   4.469   3.783  14.845 -1.5625  1.3874  1.1436
12729TIP3    H259679   4.489   3.699  14.969 -1.0341  1.5104  1.1429
12730TIP3   OH259680   2.565   5.839   1.277 -0.0989  0.0415  0.3636
12730TIP3    H159681   2.613   5.811   1.199  0.1577 -0.9050  0.8495
12730TIP3    H259682   2.589   5.775   1.344 -3.1008 -1.3110  0.2913
12731TIP3   OH259683   1.754   1.119   5.542 -0.3357 -0.1750  0.0280
12731TIP3    H159684   1.736   1.045   5.601 -0.7177 -1.7718 -1.9964
12731TIP3    H259685   1.826   1.089   5.488 -0.6180  0.8845 -0.9608
12732TIP3   OH259686   4.110   0.126  16.880  0.0243 -0.2004 -0.0223
12732TIP3    H159687   4.122   0.136  16.786 -1.4313 -3.5542 -0.6928
12732TIP3    H259688   4.197   0.104  16.913  0.6127  1.3453 -0.4679
12733TIP3   OH259689   3.315   5.044   0.868 -0.5643  0.3658 -0.4374
12733TIP3    H159690   3.326   4.993   0.788 -0.9672  0.0023 -0.2650
12733TIP3    H259691   3.332   5.135   0.841  0.6133  0.1056 -0.6485
12734TIP3   OH259692   4.939   6.072  14.262 -0.1879 -0.7456 -0.3657
12734TIP3    H159693   4.933   6.013  14.337  0.6126 -1.8754 -1.1591
12734TIP3    H259694   5.030   6.101  14.261 -0.4016 -0.0550 -0.4139
12735TIP3   OH259695   4.057   6.656  16.799 -0.6812  0.7405 -0.6305
12735TIP3    H159696   3.976   6.618  16.834 -0.0120 -0.7716 -0.6320
12735TIP3    H259697   4.099   6.697  16.875 -0.1855 -0.8083 -0.0205
12736TIP3   OH259698   2.861   5.410   3.783  0.1027 -0.7445  0.0274
12736TIP3    H159699   2.890   5.329   3.825  1.2022 -0.7387 -0.6586
12736TIP3    H259700   2.941   5.463   3.777 -0.1532 -0.4778 -1.4247
12737TIP3   OH259701   1.122   3.507  16.874  0.0030  0.2541  0.0194
12737TIP3    H159702   1.087   3.595  16.860  0.3663  0.5091  0.6467
12737TIP3    H259703   1.062   3.449  16.827 -1.1314  0.7001  0.8733
12738TIP3   OH259704   3.964   0.706   1.928 -0.4816 -0.2243 -0.2336
12738TIP3    H159705   3.967   0.689   1.834  1.2326  0.5482 -0.3514
12738TIP3    H259706   3.905   0.780   1.938  0.0081  0.2455 -0.7988
12739TIP3   OH259707   3.583   1.126  11.375  0.2042  0.1863  0.2553
12739TIP3    H159708   3.566   1.108  11.282 -1.1389 -1.2642  0.7504
12739TIP3    H259709   3.561   1.045  11.420 -2.1503  1.7638  2.1931
12740TIP3   OH259710   1.373   2.885  14.683 -0.4951 -0.4414  0.5995
12740TIP3    H159711   1.448   2.898  14.741 -0.4591 -2.1791  0.9904
12740TIP3    H259712   1.411   2.886  14.595  0.4640 -3.6767  0.8666
12741TIP3   OH259713   0.714   4.592   4.560 -0.1375  0.1090 -0.0847
12741TIP3    H159714   0.649   4.523   4.571 -1.1232  0.9900 -0.2552
12741TIP3    H259715   0.707   4.645   4.639  0.4068  0.1951 -0.0891
12742TIP3   OH259716   4.230   6.802  16.071  0.0248  0.4804 -0.0092
12742TIP3    H159717   4.137   6.792  16.049  0.1342 -0.2258 -0.1900
12742TIP3    H259718   4.276   6.791  15.988  0.3594 -0.8185  0.3273
12743TIP3   OH259719   5.923   3.769  12.756 -0.2433  0.3085 -0.5991
12743TIP3    H159720   5.921   3.864  12.764 -0.4971  0.1754  1.3670
12743TIP3    H259721   5.833   3.742  12.774 -0.2799 -0.2953 -1.6065
12744TIP3   OH259722   2.297   4.005  14.130 -0.5646  0.0824  0.6889
12744TIP3    H159723   2.282   3.937  14.195 -2.2558  0.2740  0.5491
12744TIP3    H259724   2.314   4.084  14.181  0.5817 -0.2586  0.8548
12745TIP3   OH259725   2.561   0.310   6.414  0.1007  0.0801 -0.6004
12745TIP3    H159726   2.624   0.272   6.353  0.5393 -1.0776  0.5224
12745TIP3    H259727   2.602   0.391   6.444  0.4581  0.0007 -0.8714
12746TIP3   OH259728   1.949   6.251   4.240  0.1596 -0.3293 -0.0537
12746TIP3    H159729   1.922   6.160   4.223 -1.2959 -0.1638  1.1503
12746TIP3    H259730   1.997   6.246   4.323  4.7988 -0.7184 -2.4528
12747TIP3   OH259731   0.936   2.292   2.958  0.0887 -0.2724  0.5783
12747TIP3    H159732   0.888   2.219   2.997 -1.7947  0.5708 -0.0229
12747TIP3    H259733   0.916   2.367   3.014  1.1394  0.0086  0.5958
12748TIP3   OH259734   3.056   6.459   3.009 -0.9407  0.2671  1.0145
12748TIP3    H159735   3.061   6.497   3.096 -2.3055  1.8278  0.4760
12748TIP3    H259736   2.962   6.444   2.995 -0.7083 -0.3210 -0.0317
12749TIP3   OH259737   0.421   1.085   5.432  0.0883  0.7190 -0.5334
12749TIP3    H159738   0.472   1.044   5.362 -0.1940 -0.6551  0.0337
12749TIP3    H259739   0.487   1.127   5.488  0.3638  1.2941 -1.2875
12750TIP3   OH259740   5.573   6.584  13.305  0.4877  0.2208  0.4951
12750TIP3    H159741   5.642   6.641  13.340  3.7547 -1.5078 -2.4742
12750TIP3    H259742   5.503   6.644  13.279  0.6951  2.0722  3.6466
12751TIP3   OH259743   2.781   0.934  11.106 -0.0838 -0.3778 -0.1226
12751TIP3    H159744   2.722   0.923  11.032 -1.4013  0.0511  0.8247
12751TIP3    H259745   2.849   0.867  11.093 -1.4617 -1.7425 -0.5902
12752TIP3   OH259746   0.073   2.868  11.373 -0.6822 -0.1410  0.0101
12752TIP3    H159747   0.120   2.949  11.392 -1.3058  0.1989  0.1568
12752TIP3    H259748   0.110   2.837  11.291  0.1446 -0.1566  0.3850
12753TIP3   OH259749   4.226   1.297  11.333  0.6355  0.1321  0.1047
12753TIP3    H159750   4.308   1.305  11.382  1.1165 -2.8801  0.0083
12753TIP3    H259751   4.237   1.353  11.257  1.5505  1.6931  1.3358
12754TIP3   OH259752   6.887   0.701   0.825  0.2660 -0.6115 -0.1585
12754TIP3    H159753   6.809   0.661   0.863 -1.3819  2.4011 -0.0985
12754TIP3    H259754   6.861   0.726   0.737  0.9642  0.8514  0.0142
12755TIP3   OH259755   2.148   0.645   0.200 -0.4009  0.1722  0.3208
12755TIP3    H159756   2.156   0.603   0.114  1.0622 -0.3194  0.6707
12755TIP3    H259757   2.211   0.717   0.197 -0.5715  0.3445  0.8822
12756TIP3   OH259758   4.923   2.662   3.705  0.1115 -0.3656  0.3138
12756TIP3    H159759   4.985   2.730   3.681 -0.6402  0.3101  0.2443
12756TIP3    H259760   4.910   2.672   3.799 -0.4536 -0.0212  0.2017
12757TIP3   OH259761   2.294   5.587   3.741 -0.7769 -0.4925 -0.2490
12757TIP3    H159762   2.326   5.672   3.771  4.2235 -1.7662 -1.0021
12757TIP3    H259763   2.284   5.536   3.822  2.6652 -0.9260  0.0540
12758TIP3   OH259764   2.928   4.066  12.256  0.0982 -0.5325 -0.2495
12758TIP3    H159765   2.987   4.119  12.202  1.0278 -0.0666  1.1855
12758TIP3    H259766   2.947   3.976  12.230  1.6054 -0.3987  0.3387
12759TIP3   OH259767   5.237   3.687   3.427  0.7199 -0.0824  0.4463
12759TIP3    H159768   5.170   3.685   3.359 -0.4167  0.4932  1.5170
12759TIP3    H259769   5.202   3.633   3.497  0.9191  1.0070  1.4165
12760TIP3   OH259770   6.071   0.296   1.690 -0.2372 -0.0712 -0.6539
12760TIP3    H159771   6.118   0.317   1.609 -1.5033 -0.1587 -1.4467
12760TIP3    H259772   6.022   0.375   1.711 -0.9265 -0.4641 -0.7213
12761TIP3   OH259773   2.844   4.897  11.184 -0.2528  0.2417  0.3868
12761TIP3    H159774   2.775   4.846  11.225  2.0786 -2.6044  1.0658
12761TIP3    H259775   2.896   4.930  11.257 -0.8522  2.4885 -0.1146
12762TIP3   OH259776   6.527   2.207   1.029 -0.0533  0.2056  0.4176
12762TIP3    H159777   6.447   2.196   1.079 -0.0319  1.3780  0.7472
12762TIP3    H259778   6.589   2.246   1.091  1.2268 -1.9004  0.5571
12763TIP3   OH259779   4.366   4.222   3.951 -0.1869  0.9985 -0.1603
12763TIP3    H159780   4.434   4.163   3.919 -0.9499  0.0236 -0.0275
12763TIP3    H259781   4.346   4.191   4.039 -2.2271 -0.0385 -0.9343
12764TIP3   OH259782   0.285   5.436   1.577  0.3035  0.5948  0.9268
12764TIP3    H159783   0.238   5.464   1.499  0.7549  1.6273  1.0114
12764TIP3    H259784   0.290   5.341   1.569  0.7245  0.7221 -0.5308
12765TIP3   OH259785   6.719   6.147   2.609 -0.0887 -0.3540 -0.0988
12765TIP3    H159786   6.669   6.168   2.688  0.6371 -0.2217  0.3342
12765TIP3    H259787   6.764   6.228   2.586  0.9806 -0.8184  0.2980
12766TIP3   OH259788   3.288   4.974  16.553 -0.0778 -0.1286  0.0658
12766TIP3    H159789   3.296   5.067  16.537 -3.4142  0.1133 -0.7651
12766TIP3    H259790   3.274   4.967  16.648 -0.3647  0.2472  0.0489
12767TIP3   OH259791   4.338   4.965   2.741 -0.4574 -0.0057 -0.4003
12767TIP3    H159792   4.339   5.039   2.802  3.7145  0.4749 -0.7475
12767TIP3    H259793   4.336   4.888   2.797 -0.4663  0.4117  0.1861
12768TIP3   OH259794   1.278   1.337   3.905 -0.8289  0.5761  0.0301
12768TIP3    H159795   1.366   1.369   3.925 -0.5174  0.5703 -1.2213
12768TIP3    H259796   1.235   1.410   3.862 -1.2748  0.4197  0.2038
12769TIP3   OH259797   3.690   1.344   3.088 -0.0683  0.3097 -0.3353
12769TIP3    H159798   3.672   1.268   3.032  2.7027  0.0064 -0.9853
12769TIP3    H259799   3.703   1.416   3.026 -0.7460  0.8569  0.1600
12770TIP3   OH259800   5.450   5.865  12.547 -0.5214  0.3830  0.3959
12770TIP3    H159801   5.476   5.808  12.474  1.3905 -1.5310  2.4041
12770TIP3    H259802   5.506   5.942  12.538  1.1010 -0.6906  0.8413
12771TIP3   OH259803   3.704   4.370  11.432 -0.2153 -0.0506 -0.2812
12771TIP3    H159804   3.645   4.434  11.391 -0.7149 -0.8576 -0.8311
12771TIP3    H259805   3.655   4.337  11.507 -0.1493 -0.1635 -0.2881
12772TIP3   OH259806   6.284   2.964   5.488  0.3712  0.0834  0.3898
12772TIP3    H159807   6.280   2.974   5.583  1.9806 -3.3957  0.9921
12772TIP3    H259808   6.277   2.869   5.475  0.4344  0.4522 -2.9753
12773TIP3   OH259809   0.512   5.378   0.889  0.0920 -0.1900 -0.0871
12773TIP3    H159810   0.495   5.448   0.826 -3.1116 -2.4657 -2.0498
12773TIP3    H259811   0.516   5.298   0.836 -4.2581 -2.4544  2.4840
12774TIP3   OH259812   5.980   1.822   2.280 -0.0513  0.3518  0.0031
12774TIP3    H159813   5.974   1.727   2.269  1.1591  0.1679  0.6387
12774TIP3    H259814   6.045   1.849   2.215 -0.4093  0.7575 -0.1910
12775TIP3   OH259815   2.524   4.260  15.247 -0.1520 -0.3153 -0.1926
12775TIP3    H159816   2.555   4.177  15.285  2.1744  0.7599  0.4508
12775TIP3    H259817   2.599   4.319  15.256 -1.6345  1.7688 -0.9627
12776TIP3   OH259818   1.603   5.101  12.744 -0.6100  0.3527  0.0048
12776TIP3    H159819   1.583   5.168  12.678 -2.3002 -0.0534  0.0558
12776TIP3    H259820   1.694   5.077  12.727 -0.4650  1.5338 -1.0300
12777TIP3   OH259821   4.407   5.862  12.897 -0.1393 -0.2275  0.6373
12777TIP3    H159822   4.407   5.770  12.871 -1.9875  0.2145 -1.2064
12777TIP3    H259823   4.316   5.889  12.888  0.3826  1.8227  1.0601
12778TIP3   OH259824   0.824   1.566   2.918 -0.6723  0.4602 -0.3660
12778TIP3    H159825   0.902   1.620   2.926  1.2573 -2.1755 -0.4027
12778TIP3    H259826   0.819   1.545   2.825 -0.2484 -1.0042 -0.0711
12779TIP3   OH259827   3.231   1.381  16.152 -0.3466 -0.3406  0.1561
12779TIP3    H159828   3.241   1.428  16.235  1.3275 -0.4260  0.0249
12779TIP3    H259829   3.137   1.365  16.146 -0.7141  1.1248  1.2322
12780TIP3   OH259830   0.501   4.971   5.066 -0.1689 -0.3329  0.3469
12780TIP3    H159831   0.568   4.933   5.123 -0.5986  1.1859  1.9737
12780TIP3    H259832   0.519   5.065   5.068 -1.0653 -0.1046 -0.9225
12781TIP3   OH259833   6.195   6.714  11.711 -0.1071 -0.5946  0.3743
12781TIP3    H159834   6.186   6.768  11.633 -0.0316 -0.4628  0.4556
12781TIP3    H259835   6.284   6.732  11.742 -0.0582 -0.8167  0.3637
12782TIP3   OH259836   4.659   0.586  10.312  0.1624 -1.1959  0.5540
12782TIP3    H159837   4.755   0.586  10.306  0.2083 -1.2923  1.2119
12782TIP3    H259838   4.630   0.541  10.232  0.5593  0.9517 -0.8944
12783TIP3   OH259839   2.546   4.611  15.722 -0.3317 -0.1490 -0.1805
12783TIP3    H159840   2.568   4.671  15.793  0.9671  2.9994 -3.0127
12783TIP3    H259841   2.601   4.534  15.737  1.7292  1.4612  0.8946
12784TIP3   OH259842   5.289   0.142   0.133  0.6738 -0.0387 -0.0414
12784TIP3    H159843   5.334   0.214   0.177  1.3239 -0.3679 -0.1624
12784TIP3    H259844   5.199   0.174   0.121  0.8899  0.6504  0.1361
12785TIP3   OH259845   0.266   3.535   2.275 -0.3472  0.2323  0.2108
12785TIP3    H159846   0.203   3.546   2.347 -1.1547  0.2760 -0.4870
12785TIP3    H259847   0.332   3.476   2.311 -1.5932 -1.0696  0.4703
12786TIP3   OH259848   3.363   5.198   2.863  0.1876  0.7197 -0.5825
12786TIP3    H159849   3.292   5.187   2.927 -0.3459  3.9566 -0.4261
12786TIP3    H259850   3.426   5.254   2.909  1.0443  0.9371 -1.9931
12787TIP3   OH259851   2.666   0.251   2.010 -0.4016  0.0150 -0.1334
12787TIP3    H159852   2.617   0.301   1.945 -0.5002  0.0328 -0.0450
12787TIP3    H259853   2.600   0.197   2.054 -0.2100 -0.6680 -0.6623
12788TIP3   OH259854   2.213   5.016  11.998 -0.1446  0.3237 -0.2047
12788TIP3    H159855   2.262   5.083  12.047  0.8155 -1.4816  1.4778
12788TIP3    H259856   2.223   4.936  12.051 -2.2764 -0.8830 -1.4750
12789TIP3   OH259857   0.008   1.990   0.534  0.3191  0.5250 -0.3771
12789TIP3    H159858  -0.082   2.016   0.511  0.4365  0.5875 -0.7789
12789TIP3    H259859   0.059   2.012   0.456  0.8067  1.1504  0.1136
12790TIP3   OH259860   5.703   4.395  13.825 -0.0105 -0.4407  0.6037
12790TIP3    H159861   5.616   4.371  13.793  0.7335  0.3768 -2.3633
12790TIP3    H259862   5.740   4.313  13.856 -1.1240 -1.1988  0.0111
12791TIP3   OH259863   2.893   2.002   4.952 -0.0759 -0.8384  0.1237
12791TIP3    H159864   2.980   1.986   4.917  0.4105 -0.5356  1.1296
12791TIP3    H259865   2.841   2.032   4.877  0.8250 -0.5244 -0.3860
12792TIP3   OH259866   0.154   6.753   2.046  0.3602  0.2521  0.2101
12792TIP3    H159867   0.239   6.742   2.089  1.1361 -0.3772 -1.3830
12792TIP3    H259868   0.171   6.730   1.955 -1.1440  1.7701 -0.5041
12793TIP3   OH259869   1.328   0.952   4.637 -0.1172 -0.5360  0.1479
12793TIP3    H159870   1.309   0.875   4.689 -1.2638 -0.4750 -0.1540
12793TIP3    H259871   1.277   1.022   4.677 -0.2225 -0.2637 -0.4425
12794TIP3   OH259872   6.010   5.238  16.692 -0.2630 -0.8894 -0.2404
12794TIP3    H159873   6.040   5.309  16.635 -0.2634 -0.2856  0.4891
12794TIP3    H259874   5.951   5.281  16.754  1.4069 -1.1118  1.5790
12795TIP3   OH259875   2.106   1.094   6.368 -0.0872 -0.2512  0.1892
12795TIP3    H159876   2.011   1.087   6.382 -0.1939 -0.2859 -0.5102
12795TIP3    H259877   2.129   1.179   6.406 -0.1525 -0.8223  1.5857
12796TIP3   OH259878   1.687   0.766   4.296 -0.0474  0.2441  0.4049
12796TIP3    H159879   1.622   0.807   4.352  1.0171  2.6046  0.0054
12796TIP3    H259880   1.734   0.706   4.354  0.3328  1.8422  1.8251
12797TIP3   OH259881   2.413   4.298   6.017  0.2384 -0.0745 -0.8973
12797TIP3    H159882   2.466   4.346   5.953  0.4804 -0.3113 -0.8807
12797TIP3    H259883   2.324   4.330   6.004  0.0316 -1.1453 -2.3373
12798TIP3   OH259884   6.242   1.643  10.866  0.1885 -0.1916  0.1381
12798TIP3    H159885   6.156   1.600  10.866  0.3642 -0.5452  0.5367
12798TIP3    H259886   6.291   1.596  10.798 -0.0278  0.2125 -0.3061
12799TIP3   OH259887   5.539   4.501  14.982  0.0051  0.2734 -0.0812
12799TIP3    H159888   5.522   4.593  14.964  1.3695  0.4666 -0.5000
12799TIP3    H259889   5.532   4.493  15.077  0.0551  0.8405 -0.0299
12800TIP3   OH259890   4.324   2.166   3.146  0.1880 -0.0798  0.6314
12800TIP3    H159891   4.345   2.095   3.086 -1.4602  0.3055 -0.4705
12800TIP3    H259892   4.400   2.172   3.204  2.2466  0.0626 -1.9140
12801TIP3   OH259893   3.284   6.477  13.757 -0.2093  0.1242  0.3321
12801TIP3    H159894   3.313   6.498  13.668  0.3430  0.0503  0.4911
12801TIP3    H259895   3.337   6.534  13.813 -0.5395  0.1548  0.6182
12802TIP3   OH259896   1.947   3.112  12.013 -0.3130  0.0633 -0.2991
12802TIP3    H159897   2.017   3.173  11.990  0.5975 -0.6866  0.3995
12802TIP3    H259898   1.943   3.115  12.109  0.1392 -1.3757 -0.2092
12803TIP3   OH259899   1.544   4.774  15.040  0.3676 -0.5616  0.3616
12803TIP3    H159900   1.458   4.807  15.011  0.4229  0.0036  0.8248
12803TIP3    H259901   1.607   4.817  14.983  0.3450 -1.0566 -0.0480
12804TIP3   OH259902   1.296   6.879  11.856  0.1630 -0.0706 -0.0490
12804TIP3    H159903   1.242   6.931  11.797  0.2881  0.7895  0.5763
12804TIP3    H259904   1.332   6.810  11.801  0.6955  1.0121 -1.1010
12805TIP3   OH259905   0.698   3.441   4.236 -0.0666  0.2917 -0.3494
12805TIP3    H159906   0.677   3.506   4.303 -1.9663 -0.5807 -0.0207
12805TIP3    H259907   0.626   3.448   4.173  1.9562  1.4742 -2.6791
12806TIP3   OH259908   0.725   2.574   2.803  0.0442  0.2518 -0.5685
12806TIP3    H159909   0.802   2.568   2.859 -0.9473 -0.7629  0.7321
12806TIP3    H259910   0.727   2.495   2.750 -0.9690 -0.6371  0.6631
12807TIP3   OH259911   6.570   5.850  13.295  0.0075  0.3668 -0.3288
12807TIP3    H159912   6.513   5.899  13.354 -0.4592 -0.9184  0.3242
12807TIP3    H259913   6.642   5.819  13.350  0.0568 -0.0694 -0.6282
12808TIP3   OH259914   3.183   3.211   0.535  0.2816 -0.3384  0.0312
12808TIP3    H159915   3.106   3.164   0.503  0.6236  0.5950 -2.4464
12808TIP3    H259916   3.177   3.208   0.630 -1.0758 -3.0517 -0.0702
12809TIP3   OH259917   3.033   4.876  16.775  0.1470  0.1208 -0.4925
12809TIP3    H159918   3.127   4.861  16.782  0.2302  1.1447  1.0998
12809TIP3    H259919   2.995   4.825  16.847 -0.2488  1.6108  0.3902
12810TIP3   OH259920   5.189   6.610   5.690  0.0914  0.4500 -0.2634
12810TIP3    H159921   5.255   6.598   5.621 -1.4426 -1.8218 -1.4569
12810TIP3    H259922   5.238   6.601   5.772  1.4610  0.0185 -1.1005
12811TIP3   OH259923   3.685   1.856   3.799 -0.4644  0.2928 -0.0366
12811TIP3    H159924   3.705   1.768   3.830 -0.6951  0.5435  0.8583
12811TIP3    H259925   3.617   1.888   3.859 -1.9307  0.3067 -1.6176
12812TIP3   OH259926   4.853   0.776   0.305  0.2791  0.7285  0.1787
12812TIP3    H159927   4.837   0.847   0.243 -1.2640  0.0367 -0.2668
12812TIP3    H259928   4.769   0.763   0.349  0.6759 -0.4568  0.6363
12813TIP3   OH259929   3.714   5.548   3.149  0.5089 -0.3244 -0.1393
12813TIP3    H159930   3.750   5.527   3.063 -0.0630  0.2549 -0.5287
12813TIP3    H259931   3.663   5.628   3.135 -0.6384 -0.9315  0.4741
12814TIP3   OH259932   0.857   5.968   3.189 -0.6149 -0.1347 -0.0563
12814TIP3    H159933   0.851   6.046   3.245 -1.0508 -1.4634  1.8401
12814TIP3    H259934   0.911   5.907   3.239  0.9246 -0.5787 -2.1434
12815TIP3   OH259935   6.056   1.325  12.210 -0.2655  0.0437 -0.1945
12815TIP3    H159936   6.008   1.248  12.180  0.0179  0.5067 -1.8996
12815TIP3    H259937   6.063   1.382  12.133  0.7398  1.1578  0.6700
12816TIP3   OH259938   6.238   5.260  12.792  0.1225  0.8178  0.4642
12816TIP3    H159939   6.200   5.176  12.816 -1.3255  1.2410 -0.2415
12816TIP3    H259940   6.332   5.242  12.782 -0.1539 -0.6938  0.3601
12817TIP3   OH259941   4.713   6.515   4.674  0.5896 -0.2962  0.2339
12817TIP3    H159942   4.637   6.471   4.713 -0.2200  0.9034  0.0604
12817TIP3    H259943   4.701   6.607   4.695  2.1617 -0.1050  0.4371
12818TIP3   OH259944   6.385   6.804   3.492 -0.1463  0.4635 -0.2818
12818TIP3    H159945   6.306   6.750   3.486 -1.3392  1.8084  2.0341
12818TIP3    H259946   6.372   6.872   3.426 -1.7688  1.5979  1.1208
12819TIP3   OH259947   1.359   2.607   5.385  0.3803 -0.0895  0.2163
12819TIP3    H159948   1.388   2.628   5.296  1.5652 -0.4770  0.4845
12819TIP3    H259949   1.412   2.664   5.441  0.3349 -0.5317  0.7170
12820TIP3   OH259950   1.507   1.885   3.416 -0.0358 -0.6917 -0.7303
12820TIP3    H159951   1.548   1.965   3.446 -0.8143 -0.9080  1.0513
12820TIP3    H259952   1.414   1.897   3.436  0.0278 -2.6365  1.2050
12821TIP3   OH259953   6.121   3.444   0.676  0.0080  0.3126 -0.3032
12821TIP3    H159954   6.209   3.439   0.639  0.2715 -0.9671  0.4309
12821TIP3    H259955   6.066   3.474   0.604  0.8611  0.0200 -1.0946
12822TIP3   OH259956   2.887   2.472   0.919 -0.1957 -0.0310  0.5076
12822TIP3    H159957   2.931   2.557   0.931 -0.6585  0.0078  2.1070
12822TIP3    H259958   2.926   2.436   0.839  0.2329  1.5470 -0.0320
12823TIP3   OH259959   4.487   6.360   4.749 -0.5424 -0.3937 -0.6029
12823TIP3    H159960   4.510   6.276   4.709  1.2578  1.0146 -2.7346
12823TIP3    H259961   4.485   6.342   4.843 -0.2675 -2.8023 -0.9913
12824TIP3   OH259962   2.978   3.579   0.387 -0.2793  0.4684 -0.3533
12824TIP3    H159963   2.956   3.649   0.325 -3.0677  1.5257  1.6562
12824TIP3    H259964   2.920   3.507   0.364 -1.4258  0.9151  1.0407
12825TIP3   OH259965   3.236   3.349  10.742 -0.2242  0.7163  0.6914
12825TIP3    H159966   3.142   3.336  10.731 -0.6115  2.7482  1.1763
12825TIP3    H259967   3.272   3.336  10.654 -0.6988 -1.6481  0.7857
12826TIP3   OH259968   2.352   4.730  14.949  0.5530  0.5499  1.0262
12826TIP3    H159969   2.280   4.773  14.901 -0.0253  0.6233  1.9326
12826TIP3    H259970   2.427   4.737  14.891 -0.1803  0.4625  0.0454
12827TIP3   OH259971   6.511   4.522  13.561  0.5320  0.1633 -0.1986
12827TIP3    H159972   6.581   4.504  13.624  0.0553  1.2615  0.6716
12827TIP3    H259973   6.440   4.463  13.585 -0.4912  2.0640  1.7502
12828TIP3   OH259974   1.790   6.376  16.601  0.2699 -0.0702 -0.4021
12828TIP3    H159975   1.771   6.337  16.515  1.2871 -1.2135 -0.1333
12828TIP3    H259976   1.853   6.317  16.641 -0.4677  0.2240  1.3126
12829TIP3   OH259977   3.962   6.493   0.536 -0.0409 -1.1634 -0.2752
12829TIP3    H159978   3.950   6.541   0.618  1.3760  1.9610 -1.7099
12829TIP3    H259979   3.912   6.412   0.548 -2.6376  0.6082  2.4198
12830TIP3   OH259980   0.569   3.540   2.072 -0.6152  0.0307 -0.1184
12830TIP3    H159981   0.510   3.615   2.084  1.0718  1.1309  2.1270
12830TIP3    H259982   0.615   3.559   1.990 -0.6610  1.1463  0.0972
12831TIP3   OH259983   1.799   1.061   3.524 -0.4000 -0.3523  0.0448
12831TIP3    H159984   1.867   0.995   3.539  2.0449  1.1839 -2.9773
12831TIP3    H259985   1.760   1.036   3.440 -0.2674  1.3181 -0.5468
12832TIP3   OH259986   2.057   3.594   3.625  0.1233  0.5634  0.2437
12832TIP3    H159987   2.051   3.675   3.574  1.0309  0.5187  0.0564
12832TIP3    H259988   2.046   3.524   3.560  0.7892  0.5148  0.1795
12833TIP3   OH259989   1.227   2.500   0.789  0.0870 -0.4276 -0.1330
12833TIP3    H159990   1.166   2.486   0.862  0.7510 -3.4975 -0.0474
12833TIP3    H259991   1.175   2.549   0.725 -1.4132 -0.0851  1.2593
12834TIP3   OH259992   3.267   5.759   2.062  0.0240 -0.1034  0.5757
12834TIP3    H159993   3.334   5.808   2.015  0.5121  0.1598  1.5210
12834TIP3    H259994   3.276   5.787   2.153 -0.4335 -1.1252  0.9510
12835TIP3   OH259995   0.459   4.083   5.047  1.0048 -0.0488 -0.3299
12835TIP3    H159996   0.466   4.064   5.140  0.7481  0.7291 -0.1481
12835TIP3    H259997   0.366   4.103   5.034  0.5008 -2.5590 -1.2261
12836TIP3   OH259998   3.769   4.469  13.992 -0.4766 -0.0741 -0.1171
12836TIP3    H159999   3.689   4.514  14.019 -0.4657 -0.3862  0.4520
12836TIP3    H260000   3.791   4.508  13.907 -2.7763 -1.8383 -1.6946
12837TIP3   OH260001   0.230   5.673  11.785 -0.0835 -0.5119  0.5000
12837TIP3    H160002   0.260   5.618  11.713 -0.0319  1.1463 -0.7791
12837TIP3    H260003   0.153   5.719  11.751  0.3066  0.7780  1.2752
12838TIP3   OH260004   3.735   4.312  14.714 -0.0336 -0.0045 -0.1013
12838TIP3    H160005   3.794   4.359  14.655  1.0398 -0.3719  0.6406
12838TIP3    H260006   3.675   4.265  14.656  0.6428  0.0807 -0.8925
12839TIP3   OH260007   6.317   4.426  11.513 -0.4132 -0.4291 -0.2404
12839TIP3    H160008   6.284   4.487  11.446 -1.4072 -0.2116  0.4350
12839TIP3    H260009   6.241   4.375  11.539  0.0908 -0.9026  0.3276
12840TIP3   OH260010   2.396   1.349   0.018  0.3509 -0.0976  0.3307
12840TIP3    H160011   2.467   1.355   0.082  2.4740  1.7300 -2.0053
12840TIP3    H260012   2.407   1.263  -0.022  1.0786  0.0576  0.1922
12841TIP3   OH260013   6.407   6.671   1.896  0.4904  0.4605  0.5383
12841TIP3    H160014   6.475   6.605   1.882  0.9524  1.2810 -1.5177
12841TIP3    H260015   6.326   6.628   1.870  0.5042  0.1310  1.0185
12842TIP3   OH260016   2.735   2.782   2.798  0.6760  0.0648  0.7416
12842TIP3    H160017   2.779   2.795   2.882  1.8331  1.2091  0.0063
12842TIP3    H260018   2.735   2.869   2.757  0.5891 -0.5562 -0.6407
12843TIP3   OH260019   5.810   2.233  16.831  0.2247 -0.0416 -0.2029
12843TIP3    H160020   5.825   2.186  16.913 -0.6133 -0.4360 -0.2721
12843TIP3    H260021   5.889   2.286  16.819  1.7803 -2.3367 -0.7353
12844TIP3   OH260022   1.863   0.761  16.701 -0.3755  0.1604  0.2811
12844TIP3    H160023   1.834   0.851  16.715 -2.2770 -0.1157 -1.5012
12844TIP3    H260024   1.946   0.770  16.654 -0.3913  0.9641  0.3902
12845TIP3   OH260025   5.254   1.160   2.405 -0.3146  0.2064  0.4647
12845TIP3    H160026   5.304   1.203   2.474  0.2592  1.8079 -0.8839
12845TIP3    H260027   5.172   1.134   2.448  0.8859 -0.8882  2.2683
12846TIP3   OH260028   2.250   4.167  11.286 -0.0375 -0.3030 -0.0629
12846TIP3    H160029   2.248   4.207  11.373 -0.8560  1.4326 -0.8372
12846TIP3    H260030   2.341   4.138  11.275  0.3631  0.5034  0.9238
12847TIP3   OH260031   6.620   1.267  15.524  0.7884  0.7504 -0.9219
12847TIP3    H160032   6.554   1.203  15.498 -1.7834  2.2356  1.3715
12847TIP3    H260033   6.682   1.217  15.578 -0.7877 -0.0097  0.2722
12848TIP3   OH260034   1.930   4.098  11.324  0.5318 -0.0959  0.1005
12848TIP3    H160035   2.005   4.086  11.382  1.0851 -0.3136 -0.6462
12848TIP3    H260036   1.949   4.043  11.247  0.6397  1.4796 -1.0586
12849TIP3   OH260037   3.028   5.502   5.969 -0.3102 -0.2096 -0.2534
12849TIP3    H160038   3.077   5.540   6.041 -3.0192 -0.2400  1.7536
12849TIP3    H260039   3.086   5.433   5.935  2.7422  2.4650 -0.9550
12850TIP3   OH260040   1.978   6.167  10.844  0.5791  0.0670  0.0567
12850TIP3    H160041   2.046   6.159  10.910  0.7909  0.5228 -0.1017
12850TIP3    H260042   1.982   6.085  10.795  1.4581  0.3497 -0.3676
12851TIP3   OH260043   0.981   4.557   3.253  0.3769  0.2065 -0.0630
12851TIP3    H160044   1.037   4.635   3.260 -0.4916  0.9746 -1.3597
12851TIP3    H260045   1.027   4.501   3.190  0.6981 -0.0727  0.4142
12852TIP3   OH260046   0.042   2.639  13.463  0.3073  0.0898 -0.4568
12852TIP3    H160047   0.014   2.651  13.373 -0.9469 -0.9248 -0.2254
12852TIP3    H260048   0.119   2.583  13.458  2.2948  2.6711 -1.0815
12853TIP3   OH260049   6.042   3.083  13.868  0.1773 -0.0465 -0.5225
12853TIP3    H160050   6.062   3.169  13.831 -0.0754  1.2013  2.0465
12853TIP3    H260051   6.085   3.083  13.953 -0.9366 -1.9598  0.0952
12854TIP3   OH260052   2.424   6.731   4.090  0.3802  0.4179 -0.3116
12854TIP3    H160053   2.352   6.793   4.078  0.7815  1.3092  1.5834
12854TIP3    H260054   2.394   6.672   4.160  0.7365 -0.4087 -0.8365
12855TIP3   OH260055   5.066   1.987   4.711  0.3174  0.1052  0.1309
12855TIP3    H160056   5.007   1.961   4.640  1.1835 -0.7200 -0.3099
12855TIP3    H260057   5.018   1.965   4.791  0.2773 -1.1801 -0.2238
12856TIP3   OH260058   6.007   5.755   3.830  0.0727  0.7662  0.1443
12856TIP3    H160059   5.943   5.684   3.820  1.1744 -0.2658  0.1544
12856TIP3    H260060   5.965   5.831   3.790 -0.7002 -0.1630 -0.8821
12857TIP3   OH260061   3.194   5.382   2.719 -0.3807 -0.0914 -0.1140
12857TIP3    H160062   3.117   5.427   2.754 -0.7698 -1.9124  1.5704
12857TIP3    H260063   3.246   5.359   2.796  0.9767 -0.4467 -1.0976
12858TIP3   OH260064   3.549   1.258   2.234  0.0158  0.4296 -0.0163
12858TIP3    H160065   3.571   1.174   2.273  0.1784 -0.4431 -1.8875
12858TIP3    H260066   3.587   1.255   2.146  0.8311  2.8354  0.1845
12859TIP3   OH260067   3.943   6.289   4.495  0.3449 -0.8158  0.0313
12859TIP3    H160068   3.871   6.227   4.505 -0.6118 -0.5609 -3.6877
12859TIP3    H260069   4.013   6.238   4.455  0.1168  0.0642 -1.5877
12860TIP3   OH260070   5.188   4.113  14.299 -0.2960  0.4292 -0.0642
12860TIP3    H160071   5.251   4.159  14.243 -0.6726  1.6260  0.4663
12860TIP3    H260072   5.165   4.034  14.249  2.7890 -0.9006  0.4147
12861TIP3   OH260073   5.195   3.413   4.379 -0.4374  0.6273 -0.7141
12861TIP3    H160074   5.137   3.356   4.428 -0.4239 -0.0955 -1.5191
12861TIP3    H260075   5.253   3.451   4.445 -0.3861 -0.3611 -0.1743
12862TIP3   OH260076   1.580   5.692  10.340  0.7959 -0.1430  0.6316
12862TIP3    H160077   1.649   5.627  10.354  1.0890  0.0586  0.1774
12862TIP3    H260078   1.533   5.660  10.263  2.0352  1.0511 -0.6865
12863TIP3   OH260079   1.472   2.691  12.007 -0.0855 -0.3859 -0.5467
12863TIP3    H160080   1.553   2.685  12.058 -0.6236 -1.2338  0.2294
12863TIP3    H260081   1.496   2.660  11.919  0.6856  0.4310 -0.6369
12864TIP3   OH260082   0.271   6.725   3.311  0.0182  0.6783 -0.0324
12864TIP3    H160083   0.332   6.770   3.368 -0.2618  1.2357 -0.1701
12864TIP3    H260084   0.217   6.672   3.369  0.5005  0.3357  0.1066
12865TIP3   OH260085   3.451   0.727   2.174  0.2331  0.2555 -0.0006
12865TIP3    H160086   3.487   0.815   2.168  0.9884  0.0332  0.9536
12865TIP3    H260087   3.395   0.729   2.252 -1.5575  0.4900 -1.2479
12866TIP3   OH260088   3.673   4.469   2.111  0.1849 -0.0497  0.3793
12866TIP3    H160089   3.718   4.442   2.192 -1.5846 -1.7953  0.8513
12866TIP3    H260090   3.624   4.547   2.137  2.8837  1.9801 -0.1794
12867TIP3   OH260091   5.424   0.302   1.605 -0.0763 -0.5999 -0.4132
12867TIP3    H160092   5.347   0.264   1.561 -2.1533  1.7188  0.9359
12867TIP3    H260093   5.468   0.227   1.645 -2.2035 -1.9526 -0.4373
12868TIP3   OH260094   6.248   5.714  11.228 -0.2646  0.7668 -0.8513
12868TIP3    H160095   6.174   5.772  11.243 -0.2251  1.2059 -2.2237
12868TIP3    H260096   6.292   5.709  11.313 -2.5640 -0.5797  0.3770
12869TIP3   OH260097   1.071   1.708  13.563 -0.1011  0.2751  0.2965
12869TIP3    H160098   1.145   1.763  13.536  0.8465 -0.8949  0.4470
12869TIP3    H260099   1.090   1.684  13.654 -0.5935 -0.1572  0.2907
12870TIP3   OH260100   3.377   4.383   2.743 -0.9827 -0.2702  0.2477
12870TIP3    H160101   3.405   4.292   2.747 -1.0063 -0.2984 -0.1226
12870TIP3    H260102   3.424   4.420   2.668 -1.2442 -0.0781  0.1721
12871TIP3   OH260103   6.113   3.429  14.369  0.2122  0.0703 -0.2776
12871TIP3    H160104   6.111   3.498  14.302 -0.2569 -0.7076 -1.0966
12871TIP3    H260105   6.021   3.406  14.382  0.1037  1.4864  2.0533
12872TIP3   OH260106   1.189   0.923  11.232  0.0363 -0.8589  0.2306
12872TIP3    H160107   1.126   0.910  11.161 -1.2615  1.9077  0.7018
12872TIP3    H260108   1.175   0.849  11.291 -2.9754 -0.3038  0.3726
12873TIP3   OH260109   0.896   0.075   5.455  0.1202  0.1512  0.2871
12873TIP3    H160110   0.819   0.105   5.405  0.3968  2.6818  1.2157
12873TIP3    H260111   0.951   0.031   5.391 -0.9283  0.6174 -0.9725
12874TIP3   OH260112   5.307   5.415  13.852 -0.0906  0.6088 -0.7738
12874TIP3    H160113   5.271   5.458  13.774 -2.7544 -0.5156 -0.2757
12874TIP3    H260114   5.308   5.322  13.829  0.3101  0.3900  0.0981
12875TIP3   OH260115   2.561   3.571  13.344  0.1575  0.4972  0.1133
12875TIP3    H160116   2.521   3.502  13.292 -0.2111  0.1810  0.8061
12875TIP3    H260117   2.640   3.595  13.295 -0.2582  0.3195 -0.6629
12876TIP3   OH260118   5.429   3.380   6.598 -0.0625 -0.1913  0.1911
12876TIP3    H160119   5.347   3.368   6.549  0.3418  0.0725 -0.5621
12876TIP3    H260120   5.485   3.308   6.569  0.2591  0.0945  0.0950
12877TIP3   OH260121   5.867   6.574  15.681 -0.1970  0.0288 -0.0280
12877TIP3    H160122   5.869   6.629  15.603  0.9465 -2.0100 -1.5262
12877TIP3    H260123   5.958   6.574  15.712  0.0265 -1.6152 -0.5658
12878TIP3   OH260124   1.038   0.647  11.976  0.2891  0.1312  0.1181
12878TIP3    H160125   1.104   0.657  11.907 -1.2615  0.1011 -1.4342
12878TIP3    H260126   0.957   0.680  11.937 -0.5518  0.6197  2.1319
12879TIP3   OH260127   2.595   2.695  13.600  0.6000 -0.4713  0.1950
12879TIP3    H160128   2.587   2.772  13.656  2.6954 -1.1525  1.5692
12879TIP3    H260129   2.523   2.638  13.626  0.0630  0.2884  0.3904
12880TIP3   OH260130   2.274   5.010   4.924  0.1872 -0.3197  0.5562
12880TIP3    H160131   2.367   5.027   4.937  0.0344 -0.1059  1.5121
12880TIP3    H260132   2.255   4.934   4.980  0.0293 -1.1319 -0.5718
12881TIP3   OH260133   2.035   5.305  11.794  0.1853 -0.5129  0.0090
12881TIP3    H160134   2.064   5.224  11.754  2.5606  0.5321 -0.5461
12881TIP3    H260135   1.946   5.318  11.762  0.7716 -1.4862 -2.1483
12882TIP3   OH260136   5.973   5.366  15.178  0.2160 -0.3189  0.8873
12882TIP3    H160137   5.999   5.352  15.087  0.2235 -0.3896  0.9004
12882TIP3    H260138   5.957   5.460  15.184 -0.5424 -0.4238  0.6201
12883TIP3   OH260139   2.262   1.704   1.260 -0.2612  0.1160  0.0705
12883TIP3    H160140   2.232   1.614   1.253 -2.3607  0.7143  0.5065
12883TIP3    H260141   2.182   1.754   1.279  1.3294  1.5758  3.7811
12884TIP3   OH260142   0.338   0.447   5.449 -0.2914 -0.2780 -0.1236
12884TIP3    H160143   0.295   0.451   5.363 -0.3784  0.8357 -0.0345
12884TIP3    H260144   0.416   0.394   5.434 -0.0662  0.2819 -1.0024
12885TIP3   OH260145   6.439   6.781  15.100 -0.1638  0.9350  0.3959
12885TIP3    H160146   6.431   6.695  15.141  2.6066  0.0648 -0.6914
12885TIP3    H260147   6.349   6.812  15.092 -1.3198 -2.1555  0.1717
12886TIP3   OH260148   6.528   5.566   3.677  0.0329  0.2802  0.4285
12886TIP3    H160149   6.592   5.627   3.640 -0.8014  1.2133  0.4589
12886TIP3    H260150   6.487   5.615   3.749  1.7631 -1.5645  2.8244
12887TIP3   OH260151   5.096   4.462  16.770 -0.7342 -0.3975  0.3568
12887TIP3    H160152   5.006   4.492  16.777 -0.1972  1.6843 -0.5810
12887TIP3    H260153   5.131   4.511  16.695  1.1053 -1.2878  0.5846
12888TIP3   OH260154   0.905   2.362  10.268 -0.1121  0.6239 -0.2063
12888TIP3    H160155   0.870   2.279  10.236  0.3666  0.2166  0.3208
12888TIP3    H260156   0.910   2.417  10.190 -0.5324  0.1990 -0.5399
12889TIP3   OH260157   0.145   2.057   6.017  0.2777  0.5038  0.3422
12889TIP3    H160158   0.100   1.973   6.008  0.1096  0.8175 -2.4915
12889TIP3    H260159   0.211   2.042   6.084 -1.2635 -1.1735  1.6020
12890TIP3   OH260160   3.840   3.130  10.661  0.1803  0.3904 -0.5827
12890TIP3    H160161   3.756   3.176  10.657 -1.6470 -2.7242 -2.0054
12890TIP3    H260162   3.856   3.116  10.754 -0.2690  1.9880 -0.2434
12891TIP3   OH260163   4.244   3.400   3.468  0.4171 -0.1992 -0.0982
12891TIP3    H160164   4.298   3.474   3.494  0.1517  0.0234 -0.1735
12891TIP3    H260165   4.163   3.440   3.435  0.9720 -0.4478 -1.8149
12892TIP3   OH260166   2.715   0.163  12.497  0.1061 -0.4946  0.4585
12892TIP3    H160167   2.685   0.146  12.586 -0.0444  1.4186  0.8275
12892TIP3    H260168   2.638   0.197  12.452  0.8858  1.6316  0.5732
12893TIP3   OH260169   5.076   6.678   1.361 -0.1705  0.3122  0.0494
12893TIP3    H160170   5.011   6.608   1.356 -0.4355  0.6126 -0.8048
12893TIP3    H260171   5.048   6.742   1.297  0.4192  0.9207  0.3811
12894TIP3   OH260172   3.165   4.522   2.460 -0.0525 -0.0269  0.4128
12894TIP3    H160173   3.180   4.530   2.366  1.4061  0.0455  0.6293
12894TIP3    H260174   3.173   4.612   2.494  0.7172 -0.2177  0.7640
12895TIP3   OH260175   2.851   5.893  14.759 -0.0675  0.1314  0.1109
12895TIP3    H160176   2.858   5.835  14.683  0.1637  0.6308 -0.2606
12895TIP3    H260177   2.936   5.889  14.801  0.4520  1.3093 -0.7564
12896TIP3   OH260178   0.040   2.211  13.368  0.5096  0.4189  0.0276
12896TIP3    H160179   0.036   2.253  13.454 -3.3803 -1.6799  1.1268
12896TIP3    H260180   0.118   2.156  13.372  1.3016  1.5856  1.5580
12897TIP3   OH260181   5.932   4.588  11.976  0.5134  0.3579 -0.6451
12897TIP3    H160182   5.957   4.522  11.912  1.7526  0.4979 -0.3463
12897TIP3    H260183   5.917   4.539  12.057  0.4946  0.3433 -0.6576
12898TIP3   OH260184   2.294   4.373   3.306  0.2687  0.4128 -0.5727
12898TIP3    H160185   2.308   4.456   3.261 -0.3591  0.8536  0.0268
12898TIP3    H260186   2.377   4.356   3.351  0.5448  0.4905 -1.0469
12899TIP3   OH260187   4.245   5.440  14.738  0.0464 -0.2302  0.0653
12899TIP3    H160188   4.204   5.416  14.821  0.1156 -0.8347 -0.0719
12899TIP3    H260189   4.332   5.470  14.762 -0.5724  1.4321  0.4018
12900TIP3   OH260190   2.126   3.376   1.108 -0.4462 -0.0348  0.4483
12900TIP3    H160191   2.215   3.356   1.137 -0.4114  0.7209  0.9030
12900TIP3    H260192   2.071   3.352   1.182 -0.8706 -2.4573 -0.5768
12901TIP3   OH260193   3.496   4.531  12.494 -0.4721 -0.0423  0.0656
12901TIP3    H160194   3.433   4.562  12.559 -1.2890  0.0502 -0.7380
12901TIP3    H260195   3.452   4.546  12.410  0.6566  0.0710 -0.5170
12902TIP3   OH260196   2.571   4.538  13.591 -0.0009 -0.0526 -0.1376
12902TIP3    H160197   2.564   4.559  13.498  2.4440 -1.5906 -0.7521
12902TIP3    H260198   2.665   4.536  13.608 -0.3065 -2.2308  1.7650
12903TIP3   OH260199   1.177   4.039  16.284  0.2165  0.2882 -0.3941
12903TIP3    H160200   1.134   3.962  16.322  0.2624 -0.2639 -1.4344
12903TIP3    H260201   1.260   4.006  16.250 -0.2083  0.5653 -1.7700
12904TIP3   OH260202   1.767   4.760   1.950  0.6155  0.2167 -0.4078
12904TIP3    H160203   1.765   4.747   2.045  0.2385  0.7662 -0.3333
12904TIP3    H260204   1.696   4.704   1.917  0.4290  0.3951 -0.3134
12905TIP3   OH260205   5.063   0.878   3.689  0.9035  0.1447  0.2612
12905TIP3    H160206   5.087   0.802   3.635 -1.0506  0.2513 -0.8728
12905TIP3    H260207   5.032   0.840   3.771 -2.1358 -0.5700 -1.0750
12906TIP3   OH260208   5.857   3.559   6.165 -0.6840  0.4117  0.5362
12906TIP3    H160209   5.826   3.473   6.138 -0.2907  0.4284  0.0092
12906TIP3    H260210   5.785   3.595   6.217 -1.7384  0.6253 -0.9979
12907TIP3   OH260211   2.332   1.000  14.009  0.0225  0.3997 -0.3031
12907TIP3    H160212   2.373   1.059  14.072 -0.0126 -0.0461  0.1456
12907TIP3    H260213   2.340   0.913  14.048  0.1297  0.0960 -0.9845
12908TIP3   OH260214   1.771   6.356  10.894  0.0953  0.1647 -0.0557
12908TIP3    H160215   1.760   6.379  10.802  0.3845  1.4185  0.2050
12908TIP3    H260216   1.832   6.282  10.894 -1.5038 -1.2124 -0.9741
12909TIP3   OH260217   2.868   2.429   1.921 -0.2342 -0.5582 -0.7759
12909TIP3    H160218   2.797   2.472   1.874  0.6075  0.4290 -1.1788
12909TIP3    H260219   2.888   2.489   1.993 -1.9519 -2.3345  1.3489
12910TIP3   OH260220   4.861   3.199   1.192  0.4158  0.3900  0.1726
12910TIP3    H160221   4.909   3.215   1.273 -1.3207 -0.3967  1.4410
12910TIP3    H260222   4.912   3.133   1.145  0.5936 -0.4498  1.4909
12911TIP3   OH260223   4.842   6.558   1.388  0.0365 -0.6358 -0.4315
12911TIP3    H160224   4.805   6.471   1.371 -1.6408 -0.1565  0.5651
12911TIP3    H260225   4.791   6.617   1.334 -1.2576  0.1282  1.5028
12912TIP3   OH260226   6.467   0.241  16.411 -0.2006  0.3999 -0.1432
12912TIP3    H160227   6.449   0.223  16.503  0.8690  1.1126  0.2304
12912TIP3    H260228   6.420   0.322  16.392  2.2887  2.2098  0.8046
12913TIP3   OH260229   3.358   4.317   0.072 -0.1845  0.0046 -0.1441
12913TIP3    H160230   3.390   4.271   0.149  2.8622 -0.7422 -1.6872
12913TIP3    H260231   3.392   4.407   0.082  0.3103 -0.1225 -0.6193
12914TIP3   OH260232   1.656   0.544   1.474  0.2765  0.3832 -0.3131
12914TIP3    H160233   1.644   0.630   1.434  0.2264  0.5396  0.0296
12914TIP3    H260234   1.733   0.554   1.530 -0.4608  0.5705  0.6954
12915TIP3   OH260235   2.750   5.613  12.847  0.0813  0.0478 -0.1429
12915TIP3    H160236   2.708   5.597  12.763  0.9172 -0.2923 -0.5103
12915TIP3    H260237   2.750   5.708  12.856 -2.1459  0.0369  0.6052
12916TIP3   OH260238   1.961   4.046  14.381 -0.0844  0.7579  0.1632
12916TIP3    H160239   1.870   4.036  14.410  0.3885 -0.8427  1.2309
12916TIP3    H260240   1.997   4.113  14.439  0.1672 -0.6569  1.7220
12917TIP3   OH260241   3.630   4.190   0.517 -0.6961  0.5920 -0.2231
12917TIP3    H160242   3.585   4.168   0.599 -1.1539  0.3550 -0.5330
12917TIP3    H260243   3.698   4.123   0.509 -0.3324  0.9018  0.2052
12918TIP3   OH260244   1.525   1.649   3.818  0.2716 -0.0118 -0.8191
12918TIP3    H160245   1.437   1.641   3.781 -0.1929 -0.1909  0.2965
12918TIP3    H260246   1.584   1.643   3.742 -0.7684  4.1543 -2.2220
12919TIP3   OH260247   3.102   2.720  13.602  0.1757  0.4572 -0.0467
12919TIP3    H160248   3.149   2.713  13.685 -0.2488  0.7428  0.2214
12919TIP3    H260249   3.171   2.712  13.535  0.6270  0.9984  0.3395
12920TIP3   OH260250   4.299   1.406  12.594 -0.4153 -0.1221  0.6547
12920TIP3    H160251   4.393   1.387  12.588 -0.4670 -0.1573 -0.1246
12920TIP3    H260252   4.259   1.322  12.618 -0.2496 -0.0943  1.0458
12921TIP3   OH260253   3.191   1.962   0.727  1.0170 -0.2320  0.0647
12921TIP3    H160254   3.249   1.936   0.798 -0.3795  1.7709  2.0774
12921TIP3    H260255   3.113   1.907   0.737  0.9333 -0.1465 -0.0962
12922TIP3   OH260256   5.571   2.627  13.420 -0.0140 -0.0055 -0.0494
12922TIP3    H160257   5.656   2.668  13.408  1.0136 -1.9943  0.1656
12922TIP3    H260258   5.546   2.649  13.510  0.3340  0.4471 -0.0627
12923TIP3   OH260259   6.896   3.402  13.798 -0.1000  0.3995 -0.3486
12923TIP3    H160260   6.933   3.395  13.886  0.7533 -0.1071 -0.7378
12923TIP3    H260261   6.869   3.313  13.776 -0.0526  0.4728 -0.7081
12924TIP3   OH260262   5.084   3.264   3.550  0.0150  0.2174 -0.3699
12924TIP3    H160263   4.992   3.239   3.550 -0.6504  2.4608 -1.9147
12924TIP3    H260264   5.101   3.296   3.462  1.7821  1.5492  0.3962
12925TIP3   OH260265   3.040   6.607  10.812  0.4580 -0.5134 -0.2998
12925TIP3    H160266   3.115   6.549  10.797  1.5019  1.2122 -2.1587
12925TIP3    H260267   3.057   6.647  10.897 -0.3053 -2.8507  1.0479
12926TIP3   OH260268   0.042   4.004   4.403 -0.3303 -0.2750 -0.3449
12926TIP3    H160269   0.111   3.966   4.457 -0.3561  2.0916  1.5622
12926TIP3    H260270  -0.037   3.956   4.427 -0.2285  0.3341  1.3885
12927TIP3   OH260271   1.988   3.197  10.815 -0.2355  0.3761  0.0223
12927TIP3    H160272   1.910   3.241  10.850 -0.6292  0.2537 -0.6681
12927TIP3    H260273   2.011   3.249  10.737  0.3318  0.3649  0.1806
12928TIP3   OH260274   6.373   2.989  10.518 -0.5425 -0.1781 -0.5945
12928TIP3    H160275   6.313   3.053  10.478  0.4053  0.5300 -0.9042
12928TIP3    H260276   6.400   2.933  10.445 -1.8167 -1.3251 -0.2235
12929TIP3   OH260277   1.904   2.138   1.495 -0.1203 -0.0278  0.0713
12929TIP3    H160278   1.866   2.112   1.579  0.8913  0.6341  0.7639
12929TIP3    H260279   1.912   2.233   1.501 -0.8104  0.1184 -1.1244
12930TIP3   OH260280   6.239   3.988   4.462 -0.0517  0.0443 -0.3601
12930TIP3    H160281   6.308   4.006   4.525  0.2439 -1.0025 -0.3697
12930TIP3    H260282   6.254   4.052   4.391  2.0806 -1.3583 -1.2605
12931TIP3   OH260283   5.293   6.440  12.951  0.2565 -0.2273  0.1489
12931TIP3    H160284   5.206   6.436  12.992 -0.2000 -2.9078 -0.8881
12931TIP3    H260285   5.321   6.349  12.946  4.1726  0.6423  2.4389
12932TIP3   OH260286   0.483   1.158  16.031 -0.0958  0.3514 -0.4944
12932TIP3    H160287   0.452   1.248  16.025 -1.2206 -0.1301 -2.6842
12932TIP3    H260288   0.405   1.104  16.020  0.3317 -0.9732  2.1004
12933TIP3   OH260289   4.595   6.822  12.534  0.0931 -0.4700  0.1628
12933TIP3    H160290   4.585   6.862  12.620 -0.6278 -0.8078  0.2401
12933TIP3    H260291   4.586   6.896  12.473 -1.1962 -0.4868  0.3091
12934TIP3   OH260292   1.012   4.877   0.378  0.7333  0.2260  0.1957
12934TIP3    H160293   1.012   4.900   0.285 -0.1681  0.9904  0.3641
12934TIP3    H260294   0.924   4.901   0.408  0.5272 -1.3345  0.9359
12935TIP3   OH260295   2.539   2.338  13.943  0.3746  0.0404  0.3236
12935TIP3    H160296   2.444   2.329  13.935  0.4575  0.0375 -0.7117
12935TIP3    H260297   2.569   2.359  13.855  1.7191 -3.4761 -0.2346
12936TIP3   OH260298   2.459   0.735  15.818  0.2707 -0.1348 -0.1174
12936TIP3    H160299   2.457   0.801  15.749  0.7609  0.7057  0.6482
12936TIP3    H260300   2.547   0.699  15.816 -0.2539 -1.4521 -1.1295
12937TIP3   OH260301   4.678   5.940  16.415 -0.2612 -0.6088  0.2308
12937TIP3    H160302   4.719   5.941  16.329 -0.8257 -0.1262 -0.0367
12937TIP3    H260303   4.648   6.029  16.429  0.7349 -0.4138  1.3820
12938TIP3   OH260304   2.534   1.013   0.031  0.4621  0.5992  0.6381
12938TIP3    H160305   2.570   0.937  -0.015 -0.6971 -0.7566  1.8582
12938TIP3    H260306   2.610   1.054   0.072  1.2934  0.9125 -1.1339
12939TIP3   OH260307   3.705   2.716  16.181  0.3724 -0.4660 -0.7240
12939TIP3    H160308   3.638   2.782  16.162 -0.2483 -0.7206  0.5216
12939TIP3    H260309   3.787   2.766  16.183 -0.2337  0.5486  1.5488
12940TIP3   OH260310   1.156   0.915  16.612  0.5898 -0.1283 -0.0807
12940TIP3    H160311   1.120   0.964  16.539 -2.4921 -0.4776  1.0565
12940TIP3    H260312   1.185   0.832  16.573 -1.5863 -0.5768 -0.8976
12941TIP3   OH260313   4.169   0.455   2.792 -0.0408 -0.4404 -0.0401
12941TIP3    H160314   4.240   0.391   2.780  0.0816 -0.1027 -1.2480
12941TIP3    H260315   4.194   0.503   2.871 -0.8701 -2.7833  1.7697
12942TIP3   OH260316   4.142   3.244  11.789  0.0079  0.0086  0.1274
12942TIP3    H160317   4.104   3.325  11.823  0.2030  0.7507 -1.3511
12942TIP3    H260318   4.236   3.263  11.782  0.1082 -0.4774  0.1239
12943TIP3   OH260319   5.710   6.636   5.245 -0.2819 -0.3968  1.0185
12943TIP3    H160320   5.743   6.624   5.334  0.3374 -0.1373  0.8249
12943TIP3    H260321   5.752   6.716   5.214 -0.5815 -0.4265  0.5284
12944TIP3   OH260322   1.796   0.218  13.315 -0.2529 -0.4830 -0.3738
12944TIP3    H160323   1.725   0.239  13.255 -0.7110 -0.3827  0.1993
12944TIP3    H260324   1.815   0.125  13.299 -0.7209 -0.5909 -0.3049
12945TIP3   OH260325   5.929   5.435   2.289 -0.5459 -0.9117  0.2583
12945TIP3    H160326   5.903   5.459   2.378 -0.3189 -1.1696  0.3957
12945TIP3    H260327   5.890   5.503   2.234 -1.7213 -1.4165  0.4289
12946TIP3   OH260328   0.173   3.330  15.916 -0.6062  0.2711 -0.6788
12946TIP3    H160329   0.145   3.371  15.998  0.5049  3.1830 -1.6251
12946TIP3    H260330   0.092   3.314  15.868 -1.3348 -2.0506  1.1249
12947TIP3   OH260331   2.989   2.546  15.410 -0.0447  0.1093  0.4361
12947TIP3    H160332   2.962   2.464  15.368  1.8472 -0.4492  0.2296
12947TIP3    H260333   2.907   2.587  15.437 -1.0767 -1.5117 -0.0937
12948TIP3   OH260334   2.381   3.243   5.372  0.0404 -0.0029  0.6046
12948TIP3    H160335   2.286   3.231   5.365 -0.1953  0.5918  2.3184
12948TIP3    H260336   2.393   3.338   5.366  0.7678 -0.1613 -1.5078
12949TIP3   OH260337   1.600   0.451   2.167 -0.1752 -0.1147  0.3296
12949TIP3    H160338   1.545   0.528   2.157  0.5290  0.5412  1.4102
12949TIP3    H260339   1.665   0.459   2.097  0.0621  0.4244  0.6067
12950TIP3   OH260340   0.560   4.693   4.205  0.0374  0.1264  0.1306
12950TIP3    H160341   0.499   4.676   4.134 -1.2819 -0.7612  1.4268
12950TIP3    H260342   0.579   4.786   4.198  0.8860 -0.1559 -2.0791
12951TIP3   OH260343   0.059   5.540   4.711 -0.0772 -0.5883 -0.1944
12951TIP3    H160344   0.150   5.568   4.720  0.0068 -0.4074 -1.3821
12951TIP3    H260345   0.062   5.445   4.726  0.1555 -0.4470  0.6719
12952TIP3   OH260346   1.974   0.701  14.453 -0.4470  0.0497  0.3435
12952TIP3    H160347   1.941   0.698  14.363 -0.1179 -0.3136  0.2299
12952TIP3    H260348   1.935   0.625  14.495 -2.2032  1.3024  1.0932
12953TIP3   OH260349   5.228   0.989   5.303 -0.0862 -0.1570  0.1616
12953TIP3    H160350   5.270   0.989   5.389  1.9521 -0.7754 -0.7694
12953TIP3    H260351   5.147   1.037   5.316  1.0442  1.3958  2.0219
12954TIP3   OH260352   2.680   5.477   4.395  0.1951 -0.2808  0.5405
12954TIP3    H160353   2.594   5.436   4.407 -0.0362  0.6733  2.4694
12954TIP3    H260354   2.661   5.570   4.391  1.1524 -0.0590  1.0241
12955TIP3   OH260355   4.985   3.498   0.627  0.0150  0.1290 -0.1346
12955TIP3    H160356   4.912   3.448   0.663 -0.3642 -2.3829 -3.8300
12955TIP3    H260357   5.062   3.463   0.672 -0.6178 -1.2587 -0.0764
12956TIP3   OH260358   4.806   4.480  13.323  0.3836  0.1664 -0.3684
12956TIP3    H160359   4.813   4.575  13.323  2.1085  0.0830 -0.3810
12956TIP3    H260360   4.767   4.458  13.408 -1.3028  0.9099 -0.9084
12957TIP3   OH260361   4.856   3.212   2.900 -0.2393 -0.3556  0.2358
12957TIP3    H160362   4.931   3.209   2.959 -1.2520  3.2031  1.9673
12957TIP3    H260363   4.894   3.221   2.813  1.3321 -0.4230  0.8911
12958TIP3   OH260364   3.592   3.666   2.362  0.2755 -0.0267 -0.4696
12958TIP3    H160365   3.648   3.741   2.340 -0.0036  0.0555 -0.9198
12958TIP3    H260366   3.645   3.590   2.338 -0.0191  0.0607 -1.4510
12959TIP3   OH260367   3.001   1.485  15.123  0.1645  0.1166  0.2191
12959TIP3    H160368   2.931   1.449  15.068 -0.6614  0.4946  0.9945
12959TIP3    H260369   3.066   1.516  15.061 -1.9774  3.1151 -0.7545
12960TIP3   OH260370   5.582   5.316   3.453  0.1685  0.2474  0.3829
12960TIP3    H160371   5.617   5.241   3.405  1.7492  0.5947  0.9207
12960TIP3    H260372   5.560   5.379   3.385 -2.5326 -1.1824 -0.1755
12961TIP3   OH260373   2.932   0.021  14.540  0.6461  0.4202 -0.3739
12961TIP3    H160374   2.921   0.046  14.632  2.4125 -1.4295  0.4344
12961TIP3    H260375   2.858  -0.037  14.522  0.8475 -0.0611  0.2689
12962TIP3   OH260376   1.211   6.528  14.931  0.5282 -0.2028 -0.5489
12962TIP3    H160377   1.183   6.597  14.991  2.2176 -1.3571  1.7311
12962TIP3    H260378   1.300   6.552  14.907  0.2826 -0.3812 -1.6557
12963TIP3   OH260379   2.819   5.908   0.723  0.3726  0.0290  0.1412
12963TIP3    H160380   2.747   5.918   0.660 -0.6303  1.2618  1.4207
12963TIP3    H260381   2.888   5.967   0.690 -0.4935  1.3657  0.6323
12964TIP3   OH260382   1.996   2.413   1.288 -0.6166 -0.2808 -0.4565
12964TIP3    H160383   2.027   2.440   1.202  0.1044  0.8009  0.1239
12964TIP3    H260384   1.912   2.371   1.271 -0.1311 -0.7764 -1.7633
12965TIP3   OH260385   2.039   3.347  13.782 -0.1986  0.6013  0.3677
12965TIP3    H160386   2.051   3.442  13.781 -0.4218  0.6541 -1.9253
12965TIP3    H260387   1.980   3.329  13.709  0.3154 -1.3677  0.3761
12966TIP3   OH260388   3.489   5.021  13.731 -0.0611 -0.1599  0.3792
12966TIP3    H160389   3.528   5.101  13.766  0.4456 -0.5114  0.6413
12966TIP3    H260390   3.395   5.033  13.741 -0.0954  1.1163 -1.1379
12967TIP3   OH260391   5.591   0.744   1.455 -0.3884  0.1628 -0.1515
12967TIP3    H160392   5.502   0.779   1.448 -0.3948  0.3444  0.7412
12967TIP3    H260393   5.583   0.652   1.430 -0.8079  0.2100 -0.1936
12968TIP3   OH260394   5.521   5.531   4.096 -0.3235 -0.2480  0.0384
12968TIP3    H160395   5.465   5.494   4.028 -2.3961 -0.1577  1.6183
12968TIP3    H260396   5.511   5.626   4.086 -0.3989 -0.2305  0.2847
12969TIP3   OH260397   1.460   3.295  15.153  0.7349 -0.0531  0.1741
12969TIP3    H160398   1.509   3.234  15.208  0.6887  0.6088  0.9729
12969TIP3    H260399   1.461   3.255  15.066 -0.2464 -1.7330  0.8823
12970TIP3   OH260400   5.430   5.107   4.235  0.4310 -0.1854  0.2339
12970TIP3    H160401   5.334   5.101   4.240  0.3034  1.1087 -0.2472
12970TIP3    H260402   5.452   5.181   4.292  0.9273  0.8359 -1.2369
12971TIP3   OH260403   6.421   1.873   2.535 -0.8795 -0.1265 -0.0607
12971TIP3    H160404   6.491   1.828   2.583 -0.5925  0.4357  0.0522
12971TIP3    H260405   6.465   1.947   2.492 -1.4613  0.4512  0.3170
12972TIP3   OH260406   2.303   5.898   0.968 -0.6943  0.4535  0.2187
12972TIP3    H160407   2.394   5.923   0.955 -0.7239  0.0136 -0.9361
12972TIP3    H260408   2.259   5.922   0.887 -0.6028 -3.7766 -1.3265
12973TIP3   OH260409   2.311   3.643   2.052 -0.2380  0.7909  0.5605
12973TIP3    H160410   2.358   3.710   2.100 -0.1890  1.2449 -0.1087
12973TIP3    H260411   2.221   3.648   2.085 -0.6454  2.3578 -0.6609
12974TIP3   OH260412   6.868   4.571  15.721  0.0024  0.6165 -0.0393
12974TIP3    H160413   6.805   4.633  15.757  1.0720  1.7087  0.0480
12974TIP3    H260414   6.827   4.539  15.641 -1.7324 -0.6575  1.2927
12975TIP3   OH260415   5.393   1.838  15.000 -0.0420 -0.0878 -0.5316
12975TIP3    H160416   5.477   1.855  14.958 -0.0030 -1.3973 -1.0371
12975TIP3    H260417   5.376   1.745  14.983 -1.0508 -0.1237  0.5338
12976TIP3   OH260418   1.288   3.744  12.543 -0.1142  0.2296 -0.6200
12976TIP3    H160419   1.309   3.743  12.450  0.6895 -2.4211 -0.4919
12976TIP3    H260420   1.195   3.721  12.546 -0.4953  1.6798 -0.7900
12977TIP3   OH260421   0.516   0.458  10.208  0.6293 -0.0247 -0.3571
12977TIP3    H160422   0.500   0.452  10.114  0.0323  1.9817 -0.4180
12977TIP3    H260423   0.467   0.384  10.245 -1.6953  0.9017 -1.3732
12978TIP3   OH260424   4.970   6.151  13.092  0.1274 -0.1087  0.2588
12978TIP3    H160425   5.038   6.084  13.101 -0.0274 -0.7205 -2.3663
12978TIP3    H260426   5.018   6.232  13.072  0.1867  0.1088  1.2081
12979TIP3   OH260427   2.517   1.192  11.438 -0.0585  0.2442  0.9528
12979TIP3    H160428   2.424   1.176  11.421 -0.2105  1.3067  0.6911
12979TIP3    H260429   2.558   1.106  11.433 -1.2576 -0.4746  2.5446
12980TIP3   OH260430   4.040   1.222   3.281 -0.2591  0.2807  0.2861
12980TIP3    H160431   3.950   1.237   3.312 -0.6527  0.5551 -0.9289
12980TIP3    H260432   4.033   1.141   3.229  0.0451  0.6713 -0.3717
12981TIP3   OH260433   1.510   6.517  14.584  0.1236  0.3925 -0.1965
12981TIP3    H160434   1.601   6.541  14.569  1.1872 -4.0220 -2.6742
12981TIP3    H260435   1.504   6.503  14.678  1.7229  1.4905  0.1190
12982TIP3   OH260436   0.226   1.689   3.046  0.0465 -0.4317 -0.3290
12982TIP3    H160437   0.307   1.739   3.041  0.3849 -1.0691 -1.7445
12982TIP3    H260438   0.244   1.618   3.107  0.6518 -0.7405 -0.8663
12983TIP3   OH260439   6.264   5.947  16.689  0.4094 -0.3061 -0.1599
12983TIP3    H160440   6.215   5.870  16.664 -0.4517  0.4117 -0.7409
12983TIP3    H260441   6.279   5.937  16.783 -0.2810 -0.8540 -0.1052
12984TIP3   OH260442   6.482   4.388   3.306 -0.0179  0.2204 -0.7408
12984TIP3    H160443   6.575   4.400   3.286  0.7243 -2.1627  0.7588
12984TIP3    H260444   6.476   4.396   3.401 -1.8070  2.4981 -0.9584
12985TIP3   OH260445   3.609   1.861  12.285  0.9151  0.0080  0.8761
12985TIP3    H160446   3.605   1.815  12.369 -0.4776 -1.3709  0.1014
12985TIP3    H260447   3.677   1.814  12.235 -0.1962 -1.0198  0.2522
12986TIP3   OH260448   3.841   6.083   1.269  0.5318  0.3073 -0.2551
12986TIP3    H160449   3.750   6.063   1.249  0.6932 -0.1889 -0.5038
12986TIP3    H260450   3.842   6.178   1.281 -0.2577  0.1747  1.0680
12987TIP3   OH260451   5.292   1.087   4.780  0.2461  0.0177  0.5185
12987TIP3    H160452   5.250   1.144   4.716 -0.8629 -0.7486  0.5302
12987TIP3    H260453   5.236   1.092   4.857  1.5159  0.8543  1.4300
12988TIP3   OH260454   0.292   3.947   2.932 -0.1289  0.1170  0.6654
12988TIP3    H160455   0.319   4.013   2.996  2.2907 -1.1424  1.0691
12988TIP3    H260456   0.282   3.867   2.984  0.4132 -0.5939 -0.2985
12989TIP3   OH260457   6.097   2.316  11.998 -0.0964 -0.1184 -0.2057
12989TIP3    H160458   6.075   2.408  11.988 -0.9530 -0.2746  0.2262
12989TIP3    H260459   6.018   2.275  12.032  0.7523 -0.7466  1.1061
12990TIP3   OH260460   0.605   6.854  12.733  0.3285 -0.3207  0.2597
12990TIP3    H160461   0.611   6.763  12.763  0.9768  0.2166  1.8797
12990TIP3    H260462   0.696   6.885  12.734  0.1288  0.3098 -0.4215
12991TIP3   OH260463   4.774   0.888   2.367 -0.4812 -0.3244 -0.1438
12991TIP3    H160464   4.779   0.847   2.454 -0.1362 -0.0378 -0.0264
12991TIP3    H260465   4.696   0.944   2.372 -0.2200  0.0206  0.1256
12992TIP3   OH260466   4.186   1.909  15.602 -0.4311  0.0507 -0.5348
12992TIP3    H160467   4.237   1.857  15.665 -0.2102 -0.0006 -0.7506
12992TIP3    H260468   4.175   1.850  15.527 -1.6507 -0.2813 -0.1087
12993TIP3   OH260469   5.922   2.240   2.051  0.0654  0.2395  0.2130
12993TIP3    H160470   5.985   2.185   2.005 -1.4620 -0.2674 -1.3855
12993TIP3    H260471   5.868   2.178   2.100 -1.0962  0.3628 -0.8781
12994TIP3   OH260472   1.044   4.189   0.008 -0.2275  0.4508 -0.6079
12994TIP3    H160473   1.065   4.148  -0.075 -0.6792 -0.1566 -0.4221
12994TIP3    H260474   1.121   4.175   0.063  0.5414  1.8403 -1.2728
12995TIP3   OH260475   6.565   5.158  11.871 -0.0384  0.1187  0.1563
12995TIP3    H160476   6.495   5.157  11.936  0.6926  2.1080  1.0729
12995TIP3    H260477   6.641   5.192  11.919  0.8375  0.4893 -1.4417
12996TIP3   OH260478   3.661   5.426  12.555  0.0752 -0.2198  0.8459
12996TIP3    H160479   3.638   5.378  12.635  1.3309 -2.5341 -0.0847
12996TIP3    H260480   3.757   5.422  12.552  0.3297  2.8708  0.9251
12997TIP3   OH260481   5.350   1.332  16.548 -0.1899  0.1623 -0.2025
12997TIP3    H160482   5.316   1.392  16.482  1.3227 -0.7677 -1.8968
12997TIP3    H260483   5.279   1.326  16.612 -1.9765  0.6455 -2.0147
12998TIP3   OH260484   3.019   5.458  13.465 -0.0130 -0.8277  0.5155
12998TIP3    H160485   3.011   5.532  13.405 -1.0981 -1.0632  0.3399
12998TIP3    H260486   2.929   5.426  13.475  0.2303 -1.1548  1.8100
12999TIP3   OH260487   4.489   4.509   2.752  0.1809 -0.6773  0.1623
12999TIP3    H160488   4.584   4.512   2.762  0.2831 -1.0127 -0.5866
12999TIP3    H260489   4.462   4.430   2.798  0.3195 -0.8055  0.0248
13000TIP3   OH260490   0.841   2.594   1.053  0.2851  0.1347 -0.1855
13000TIP3    H160491   0.858   2.505   1.023 -0.5896 -0.3571  0.7145
13000TIP3    H260492   0.760   2.619   1.008  0.5134  0.4696 -0.4140
13001TIP3   OH260493   1.595   6.274  13.939  0.4838 -0.5052  0.3703
13001TIP3    H160494   1.679   6.302  13.902  1.7454 -0.9293  2.7120
13001TIP3    H260495   1.597   6.306  14.029 -2.4638  0.5661  0.1521
13002TIP3   OH260496   0.523   1.558   2.718 -0.5295 -0.5192 -0.1157
13002TIP3    H160497   0.491   1.589   2.633 -0.6881 -1.1520 -0.2939
13002TIP3    H260498   0.579   1.484   2.696  0.0217 -0.2281  0.2891
13003TIP3   OH260499   2.524   3.359   5.604 -0.0787  0.6772  0.3645
13003TIP3    H160500   2.515   3.274   5.560  0.6779  1.0442 -0.5289
13003TIP3    H260501   2.556   3.338   5.691  0.7087  0.0712 -0.0585
13004TIP3   OH260502   0.949   6.528   0.911 -0.0242 -0.0908  0.2368
13004TIP3    H160503   1.006   6.586   0.860 -0.9420 -0.0794 -0.8025
13004TIP3    H260504   0.860   6.552   0.885 -0.4915 -0.6647  1.2352
13005TIP3   OH260505   0.500   6.807   5.155  0.0713  0.2346 -0.8207
13005TIP3    H160506   0.518   6.724   5.198  1.7495  1.2327  0.5702
13005TIP3    H260507   0.455   6.784   5.074 -0.5954 -1.9185  0.1048
13006TIP3   OH260508   4.111   4.856  11.067 -0.0041 -0.0414  0.6719
13006TIP3    H160509   4.201   4.889  11.064 -0.1269  0.3131  0.8093
13006TIP3    H260510   4.114   4.775  11.017 -0.2456  1.5039 -2.0460
13007TIP3   OH260511   5.119   1.744  13.613  0.3442  0.6850 -0.1105
13007TIP3    H160512   5.077   1.667  13.652  0.3722  0.3986 -0.6480
13007TIP3    H260513   5.128   1.723  13.520  0.8922  1.0950 -0.1553
13008TIP3   OH260514   3.355   6.750  10.923 -0.0019  0.3005 -0.0039
13008TIP3    H160515   3.287   6.818  10.925  0.3402  0.6408  0.1727
13008TIP3    H260516   3.420   6.779  10.987  0.3307 -0.0006 -0.2008
13009TIP3   OH260517   6.025   4.149  14.669 -0.2091  0.3278 -0.1884
13009TIP3    H160518   6.068   4.228  14.701 -1.3903  0.9393 -0.0644
13009TIP3    H260519   6.069   4.131  14.585  0.4096  0.8208  0.0170
13010TIP3   OH260520   1.053   1.502  15.139  0.1223 -0.4327  0.2282
13010TIP3    H160521   1.096   1.445  15.202  1.4019 -0.4673 -0.6414
13010TIP3    H260522   1.035   1.444  15.064  0.7499  0.1260 -0.3609
13011TIP3   OH260523   1.280   5.707  10.610 -0.4031 -0.4822  0.4558
13011TIP3    H160524   1.233   5.729  10.529  0.2045  1.0386  0.4785
13011TIP3    H260525   1.220   5.652  10.659 -0.9213 -1.1486 -0.8754
13012TIP3   OH260526   5.565   3.190   6.443 -0.6959 -0.8416  0.3057
13012TIP3    H160527   5.525   3.189   6.356 -0.8545 -0.4152  0.3747
13012TIP3    H260528   5.571   3.097   6.468  0.1643 -1.0278 -0.5273
13013TIP3   OH260529   3.073   5.831  12.019 -0.1783 -0.2314  0.3000
13013TIP3    H160530   3.081   5.876  11.935 -2.7532 -0.4875 -0.1733
13013TIP3    H260531   3.048   5.900  12.081  0.5968 -0.2379  0.6330
13014TIP3   OH260532   3.598   1.991   1.409  0.2964 -0.0876 -0.7700
13014TIP3    H160533   3.648   1.932   1.465  1.0091 -0.2200 -1.5234
13014TIP3    H260534   3.600   1.950   1.323  0.1740  0.6592 -1.1406
13015TIP3   OH260535   0.477   6.714  14.089  0.1055  0.0804  0.4545
13015TIP3    H160536   0.415   6.778  14.125  0.6568  0.6331  0.4201
13015TIP3    H260537   0.504   6.751  14.006  0.5161 -0.1473  0.4863
13016TIP3   OH260538   2.529   4.515  14.374 -0.1200  0.1605  0.2470
13016TIP3    H160539   2.439   4.507  14.344  0.1509  0.0790 -0.5753
13016TIP3    H260540   2.581   4.472  14.306  0.6105  0.9405  0.2940
13017TIP3   OH260541   5.483   3.761   0.678 -0.4276 -0.5243  0.3076
13017TIP3    H160542   5.405   3.768   0.623 -0.3694  0.4787  0.3469
13017TIP3    H260543   5.462   3.812   0.757  0.6640  0.6878 -0.1504
13018TIP3   OH260544   4.373   3.430   5.953  0.1885 -0.4256 -0.8836
13018TIP3    H160545   4.318   3.483   6.011 -0.2075 -1.1712 -0.5610
13018TIP3    H260546   4.311   3.387   5.894  0.6463  1.3346 -2.7913
13019TIP3   OH260547   6.468   0.468  13.229 -0.3694 -0.1445 -0.4426
13019TIP3    H160548   6.539   0.530  13.248  0.0297 -0.5296 -0.6402
13019TIP3    H260549   6.404   0.482  13.298  0.6166 -0.8683  0.6509
13020TIP3   OH260550   3.190   5.187  14.228  0.1782 -0.1824  0.4055
13020TIP3    H160551   3.235   5.204  14.145 -2.0478 -2.0977 -1.3239
13020TIP3    H260552   3.228   5.105  14.259  0.5230  0.1807  0.9560
13021TIP3   OH260553   5.845   4.802   3.992 -0.6297  0.3472 -0.1655
13021TIP3    H160554   5.793   4.722   3.982  0.6082 -0.7256  1.3598
13021TIP3    H260555   5.785   4.865   4.033 -0.9548 -0.6492  0.9596
13022TIP3   OH260556   5.646   6.273  14.644 -0.0448  0.5877 -0.3856
13022TIP3    H160557   5.713   6.205  14.654 -0.0196  0.7039  0.2685
13022TIP3    H260558   5.623   6.297  14.733 -2.8253 -1.2897 -0.4570
13023TIP3   OH260559   3.407   0.898   0.521  0.4068 -0.0189 -0.2734
13023TIP3    H160560   3.430   0.966   0.583  0.0183 -1.4943  1.5777
13023TIP3    H260561   3.394   0.944   0.438  2.1044  1.8572  0.4336
13024TIP3   OH260562   6.534   5.432  14.380  0.5255  0.1457  0.1050
13024TIP3    H160563   6.523   5.383  14.462  0.6293 -1.9045 -1.0440
13024TIP3    H260564   6.623   5.412  14.352  0.7826  1.5141 -0.1032
13025TIP3   OH260565   3.370   3.695  15.962 -0.2570  0.6504 -0.3168
13025TIP3    H160566   3.359   3.688  16.057  1.2750 -2.0270 -0.2326
13025TIP3    H260567   3.294   3.650  15.925  1.3707 -2.5387 -0.1338
13026TIP3   OH260568   5.360   3.145   3.418  0.0654 -0.3310  0.1855
13026TIP3    H160569   5.411   3.151   3.337  2.5806 -0.4915  1.6810
13026TIP3    H260570   5.310   3.226   3.420  1.2041  0.4264 -0.7400
13027TIP3   OH260571   0.920   4.248  14.758  0.6472 -0.0607 -0.5238
13027TIP3    H160572   0.871   4.198  14.693  2.5515 -0.5598 -1.6413
13027TIP3    H260573   0.925   4.337  14.722  2.6992 -0.5952 -1.7410
13028TIP3   OH260574   1.078   1.946   1.807 -0.5038  0.2815  0.7038
13028TIP3    H160575   1.069   1.909   1.895 -1.6373  1.3538  1.0788
13028TIP3    H260576   1.051   2.038   1.817  0.2700  0.6730 -0.5819
13029TIP3   OH260577   2.288   2.231   5.206  0.1870  0.1997  0.6141
13029TIP3    H160578   2.333   2.148   5.190 -1.2149 -0.7860  1.5864
13029TIP3    H260579   2.303   2.249   5.298 -1.2833 -0.0973  0.9327
13030TIP3   OH260580   5.303   0.137   3.548  0.1282 -0.4326 -0.5673
13030TIP3    H160581   5.326   0.135   3.455  2.0943 -0.4491 -0.1372
13030TIP3    H260582   5.265   0.051   3.565  1.7238 -1.2421 -0.9316
13031TIP3   OH260583   0.425   6.732  12.419  0.5221  0.2294 -0.0465
13031TIP3    H160584   0.501   6.756  12.365  1.6302 -2.2094  0.3079
13031TIP3    H260585   0.453   6.654  12.467 -1.6105  0.3228  1.5027
13032TIP3   OH260586   2.325   3.887   4.222  0.7763 -0.3806  0.2920
13032TIP3    H160587   2.290   3.936   4.297  1.8005 -0.6137  0.9431
13032TIP3    H260588   2.321   3.795   4.250  1.2556 -0.4610  0.1060
13033TIP3   OH260589   1.756   3.224   5.421 -0.2601 -0.2787 -0.2820
13033TIP3    H160590   1.761   3.157   5.489  1.9104 -0.5235 -0.6145
13033TIP3    H260591   1.721   3.178   5.345 -0.5609 -0.5698  0.0303
13034TIP3   OH260592   1.988   2.425   1.560 -0.0620 -0.5436 -0.4672
13034TIP3    H160593   2.074   2.453   1.591  0.5225 -1.4216 -1.2303
13034TIP3    H260594   1.998   2.421   1.464 -1.4626  1.0007 -0.7401
13035TIP3   OH260595   4.162   3.237  15.991 -0.4449  0.4992 -0.3825
13035TIP3    H160596   4.090   3.177  15.971 -0.6722 -0.0016  1.6642
13035TIP3    H260597   4.118   3.317  16.020 -0.2958 -0.1638  1.9186
13036TIP3   OH260598   0.653   6.279   0.377 -0.6729 -0.1567 -0.4261
13036TIP3    H160599   0.627   6.222   0.450  1.4972 -0.6173  0.0689
13036TIP3    H260600   0.716   6.227   0.328  0.2935  1.2981 -0.7773
13037TIP3   OH260601   0.760   1.241  15.869 -0.2736 -0.6088  0.4672
13037TIP3    H160602   0.702   1.209  15.800  1.0928  0.8484 -1.4627
13037TIP3    H260603   0.701   1.284  15.931 -1.4197 -0.6156 -0.5751
13038TIP3   OH260604   5.182   0.926  15.095  0.3419 -0.3444  0.1508
13038TIP3    H160605   5.163   1.000  15.152  0.8217 -0.5665  0.6040
13038TIP3    H260606   5.126   0.855  15.128  0.0793 -0.2625 -0.1156
13039TIP3   OH260607   5.423   5.839   0.149  0.2011 -0.9871  0.2013
13039TIP3    H160608   5.344   5.876   0.109  0.2889 -2.2118 -1.1771
13039TIP3    H260609   5.494   5.862   0.088  0.6966 -1.0285  0.7532
13040TIP3   OH260610   2.800   2.509   5.064  0.2500 -0.7134  0.7903
13040TIP3    H160611   2.809   2.414   5.061 -0.4587 -0.7719  0.4421
13040TIP3    H260612   2.868   2.542   5.005  2.1606 -0.8778  2.7500
13041TIP3   OH260613   6.284   3.497   2.114  0.1866  0.0342 -0.9801
13041TIP3    H160614   6.206   3.443   2.098 -0.7791  1.0170  0.1834
13041TIP3    H260615   6.345   3.438   2.159 -0.5626 -0.2993 -0.3882
13042TIP3   OH260616   3.821   6.645   4.079  0.0045  0.0342  0.0407
13042TIP3    H160617   3.893   6.669   4.020 -0.1092  0.0197 -0.1044
13042TIP3    H260618   3.862   6.594   4.149  0.1573  0.1489  0.0345
13043TIP3   OH260619   1.065   6.625   4.677 -0.2433  0.1489 -0.3062
13043TIP3    H160620   0.983   6.605   4.631  0.0096  1.4646 -1.3901
13043TIP3    H260621   1.038   6.680   4.750 -0.5051 -0.9194  0.4291
13044TIP3   OH260622   3.231   5.014  13.850  0.6151 -0.1146 -0.0622
13044TIP3    H160623   3.258   5.078  13.915  0.8031  0.8292 -1.0478
13044TIP3    H260624   3.260   4.930  13.886  1.3622  0.4687  0.7261
13045TIP3   OH260625   1.418   2.371  16.069  0.4387 -0.8887  0.7141
13045TIP3    H160626   1.438   2.434  16.000 -1.4957 -1.4578 -0.4521
13045TIP3    H260627   1.454   2.289  16.037 -2.2394 -1.6259 -0.7640
13046TIP3   OH260628   3.763   1.320   1.093  0.2849  0.3065  0.2630
13046TIP3    H160629   3.783   1.406   1.055 -1.5673 -0.4455 -2.7439
13046TIP3    H260630   3.832   1.263   1.060 -0.1367  0.0796 -0.2448
13047TIP3   OH260631   6.666   0.915   3.219  0.0795  0.1523  0.3336
13047TIP3    H160632   6.707   1.001   3.215  0.0464  0.1725  0.4208
13047TIP3    H260633   6.576   0.929   3.188 -0.0595  0.2352  0.7602
13048TIP3   OH260634   6.489   3.107   6.027  0.2275 -0.2935  0.6463
13048TIP3    H160635   6.395   3.107   6.009 -0.1926  0.6059  2.5592
13048TIP3    H260636   6.522   3.182   5.978 -0.0116 -0.6882 -0.1381
13049TIP3   OH260637   0.006   5.390   0.480  0.7323  0.3306  0.2741
13049TIP3    H160638   0.057   5.381   0.400  0.8062  0.8571  0.2537
13049TIP3    H260639  -0.014   5.301   0.507  2.6555  0.0532  0.9329
13050TIP3   OH260640   2.083   3.052  14.762  0.3349 -0.4300 -0.0490
13050TIP3    H160641   2.071   3.134  14.715 -0.1906 -2.8425 -4.6676
13050TIP3    H260642   2.177   3.033  14.755  0.0586 -1.4208 -1.4254
13051TIP3   OH260643   5.779   3.435   0.265  0.6055  0.2181  0.4044
13051TIP3    H160644   5.719   3.418   0.192  2.0338 -1.3432 -0.4791
13051TIP3    H260645   5.735   3.400   0.342  0.1747 -0.4491 -0.1399
13052TIP3   OH260646   6.484   0.470   1.323  0.0482  0.2813  0.3660
13052TIP3    H160647   6.572   0.463   1.360  0.7196  1.4623 -0.9116
13052TIP3    H260648   6.476   0.393   1.266  0.5579  0.5670 -0.1002
13053TIP3   OH260649   0.480   4.685  13.775 -0.2273 -0.0327 -0.1144
13053TIP3    H160650   0.537   4.726  13.840  0.8001  1.1323 -1.6727
13053TIP3    H260651   0.395   4.729  13.785  0.2767  1.0243 -0.3674
13054TIP3   OH260652   1.025   2.564   2.882 -0.1423 -0.3124 -0.1596
13054TIP3    H160653   1.071   2.541   2.801  0.7574  0.5281  0.0954
13054TIP3    H260654   1.089   2.551   2.951 -0.5213  0.1447  0.2933
13055TIP3   OH260655   1.570   6.295   2.290 -0.7637  0.2501  0.0929
13055TIP3    H160656   1.610   6.360   2.232  0.6534  2.1884  2.9901
13055TIP3    H260657   1.475   6.308   2.277 -0.5053  1.5698 -0.7594
13056TIP3   OH260658   2.440   4.048   4.842 -0.1962 -0.3029  0.2397
13056TIP3    H160659   2.464   4.063   4.933 -0.1605  0.0336  0.1775
13056TIP3    H260660   2.438   4.136   4.803 -0.6236 -0.4079  0.0218
13057TIP3   OH260661   4.837   6.750   3.166 -0.2375 -0.3269  0.2835
13057TIP3    H160662   4.927   6.773   3.142 -0.1627 -0.2121  0.6807
13057TIP3    H260663   4.831   6.768   3.259 -1.4672  2.2814 -0.2065
13058TIP3   OH260664   5.163   1.511  11.497  0.2842 -0.3584 -0.0795
13058TIP3    H160665   5.069   1.509  11.513  0.1423  0.9750 -0.6833
13058TIP3    H260666   5.173   1.484  11.406  0.5485 -1.0655  0.1485
13059TIP3   OH260667   5.534   0.508   5.512 -0.3620  0.2503 -0.9381
13059TIP3    H160668   5.588   0.535   5.438 -0.3271  0.6440 -0.7736
13059TIP3    H260669   5.591   0.515   5.588 -1.2399  3.0059 -0.3957
13060TIP3   OH260670   6.729   6.599   4.901  0.0974  0.2214  0.0040
13060TIP3    H160671   6.713   6.517   4.947  1.0416 -2.1318 -3.4166
13060TIP3    H260672   6.674   6.594   4.823  2.4219  1.3054 -1.8620
13061TIP3   OH260673   4.123   5.431   2.980  0.3486  0.1956  0.0512
13061TIP3    H160674   4.163   5.488   3.047  2.3377  0.0097 -0.8935
13061TIP3    H260675   4.050   5.389   3.025  2.4694 -1.0572  2.6260
13062TIP3   OH260676   1.970   3.541  12.841  0.3122  0.1433  0.7330
13062TIP3    H160677   1.885   3.533  12.799  0.4833 -0.5394  0.4946
13062TIP3    H260678   2.013   3.457  12.823  1.3939  0.8174  0.0652
13063TIP3   OH260679   5.186   0.304  14.257 -0.3489  0.0836  0.1917
13063TIP3    H160680   5.193   0.323  14.163  1.1550 -2.2292 -0.2451
13063TIP3    H260681   5.135   0.223  14.261 -0.1499  0.0022  1.3502
13064TIP3   OH260682   4.117   0.769   3.864  0.1888  0.1341 -0.4466
13064TIP3    H160683   4.053   0.817   3.918 -0.9308  0.7240 -2.2213
13064TIP3    H260684   4.126   0.684   3.908  0.3592  1.0498  1.4027
13065TIP3   OH260685   4.430   4.180   1.211  0.2788  0.2783  0.3297
13065TIP3    H160686   4.520   4.151   1.221 -0.5761 -2.2937  1.2574
13065TIP3    H260687   4.417   4.241   1.283  1.0533  0.0794  0.6459
13066TIP3   OH260688   4.605   2.088   4.635 -0.8381  0.5862  0.2150
13066TIP3    H160689   4.697   2.085   4.663 -0.8962 -0.7695  0.3416
13066TIP3    H260690   4.598   2.168   4.584 -0.0037  1.5822  1.6167
13067TIP3   OH260691   5.059   0.272   5.587 -0.1503 -0.5257 -0.6052
13067TIP3    H160692   5.114   0.295   5.512 -0.6621 -0.9792 -1.1317
13067TIP3    H260693   5.119   0.271   5.662  0.1688  1.0087 -0.8109
13068TIP3   OH260694   6.388   1.718   1.647  0.1308 -0.4525  0.3092
13068TIP3    H160695   6.306   1.760   1.675  0.0198 -1.3369  1.4063
13068TIP3    H260696   6.429   1.782   1.589 -0.9282  0.3702  0.4222
13069TIP3   OH260697   4.289   0.297  13.062 -0.0866  0.0864 -0.2724
13069TIP3    H160698   4.371   0.305  13.013 -0.5457  1.4991 -0.8798
13069TIP3    H260699   4.306   0.343  13.145 -0.2367  0.3245 -0.3716
13070TIP3   OH260700   4.370   1.398   3.829 -0.1045  0.3104  0.5395
13070TIP3    H160701   4.316   1.381   3.752 -0.8269  1.2416  0.8295
13070TIP3    H260702   4.311   1.384   3.903 -0.0988  1.7662  0.8478
13071TIP3   OH260703   6.441   1.958  16.776 -0.4720  0.0067 -0.5208
13071TIP3    H160704   6.528   1.992  16.797 -1.5453  1.3700  2.2266
13071TIP3    H260705   6.442   1.867  16.803  0.1029 -0.0040 -0.5764
13072TIP3   OH260706   1.012   4.245  16.217 -0.0014  0.5292  0.2747
13072TIP3    H160707   1.052   4.160  16.233 -2.0999 -0.7077 -0.5899
13072TIP3    H260708   1.032   4.297  16.294  0.8342 -0.9416  1.0838
13073TIP3   OH260709   3.020   4.759  15.420  0.4736 -0.3710  0.6449
13073TIP3    H160710   2.945   4.812  15.393  1.9158  1.9440  0.8433
13073TIP3    H260711   3.064   4.736  15.338  1.2355  1.0004  0.6386
13074TIP3   OH260712   5.094   0.698   1.212  0.0498 -0.2260  0.0088
13074TIP3    H160713   5.095   0.701   1.117 -1.1987 -1.3527 -0.0702
13074TIP3    H260714   5.064   0.609   1.233 -0.7168  0.3389  1.4319
13075TIP3   OH260715   4.157   2.552   0.405 -0.4347 -0.2466 -0.1044
13075TIP3    H160716   4.197   2.466   0.415  0.0590 -0.3290 -2.2400
13075TIP3    H260717   4.105   2.545   0.324  1.1976  1.9831 -1.4765
13076TIP3   OH260718   0.401   3.385  12.070 -0.3930 -0.3406  0.0158
13076TIP3    H160719   0.379   3.448  12.000  0.1596  0.9160  0.9347
13076TIP3    H260720   0.345   3.410  12.143 -0.3039 -1.0593  0.3375
13077TIP3   OH260721   6.662   4.479  14.166  0.5916 -0.2538 -0.3930
13077TIP3    H160722   6.685   4.462  14.257 -1.2658  1.4783  0.5004
13077TIP3    H260723   6.690   4.401  14.118 -0.6308 -2.3308  2.0538
13078TIP3   OH260724   1.234   5.874  13.362  0.4234  0.6171  0.2932
13078TIP3    H160725   1.153   5.903  13.404 -0.1898 -1.9594  1.0798
13078TIP3    H260726   1.303   5.928  13.401 -0.8983  3.6062 -1.1279
13079TIP3   OH260727   6.693   4.778   0.634 -0.2305  0.4087 -0.0477
13079TIP3    H160728   6.696   4.837   0.709 -0.4983 -0.5396  0.7293
13079TIP3    H260729   6.782   4.778   0.599 -0.2934  1.4784 -0.2423
13080TIP3   OH260730   1.631   5.544  11.276  0.4076  0.1266 -0.2101
13080TIP3    H160731   1.708   5.498  11.241 -0.1354  0.7319 -2.3473
13080TIP3    H260732   1.586   5.478  11.329  1.5204 -0.7237 -0.2716
13081TIP3   OH260733   6.033   3.332   0.194 -0.2624  0.0839 -0.4848
13081TIP3    H160734   6.089   3.409   0.182  0.5558 -0.3274  0.5572
13081TIP3    H260735   5.947   3.367   0.214  0.0570  0.7370 -0.2300
13082TIP3   OH260736   2.696   5.353   4.899 -0.0315  0.5582  0.2277
13082TIP3    H160737   2.630   5.365   4.831 -0.2675  1.0450  0.5399
13082TIP3    H260738   2.689   5.431   4.953  1.4965  1.1060 -0.3126
13083TIP3   OH260739   2.754   2.698  12.045 -0.4882  0.0646 -0.0446
13083TIP3    H160740   2.752   2.787  12.079 -0.9009  0.3179 -0.7182
13083TIP3    H260741   2.753   2.708  11.950 -1.0968 -0.6700 -0.1284
13084TIP3   OH260742   0.020   0.202  16.671 -0.8150  0.1567  0.0379
13084TIP3    H160743  -0.048   0.252  16.627 -1.1117 -0.3251 -0.0599
13084TIP3    H260744   0.082   0.180  16.601  0.4616  2.2039  0.4359
13085TIP3   OH260745   0.489   2.649  15.870  0.0886 -0.3774  0.1551
13085TIP3    H160746   0.428   2.719  15.894 -0.4170 -0.3979 -0.9964
13085TIP3    H260747   0.575   2.692  15.871 -0.0960 -0.0022  0.4684
13086TIP3   OH260748   2.724   0.367  13.555 -0.4198  0.0431 -0.6883
13086TIP3    H160749   2.816   0.377  13.579 -0.9549  1.2336  1.1202
13086TIP3    H260750   2.689   0.456  13.559 -1.3438 -0.1807 -2.8544
13087TIP3   OH260751   1.503   3.653  13.241  0.4171  0.2493  0.5438
13087TIP3    H160752   1.578   3.663  13.299  1.4389 -0.4896 -0.6005
13087TIP3    H260753   1.525   3.705  13.163  0.5105 -1.2774 -0.4948
13088TIP3   OH260754   1.682   5.431   1.779  0.0084 -0.1919 -0.1892
13088TIP3    H160755   1.619   5.359   1.777  1.6190 -1.6752 -0.6373
13088TIP3    H260756   1.648   5.492   1.844 -2.6280 -0.1827 -1.4476
13089TIP3   OH260757   0.753   4.823   4.732 -0.4505 -0.0815  0.1895
13089TIP3    H160758   0.796   4.904   4.758 -1.0154 -0.3628  2.1799
13089TIP3    H260759   0.685   4.850   4.670  2.4170  0.3612 -2.9873
13090TIP3   OH260760   3.669   1.594  14.448  0.4726  0.2147  0.3381
13090TIP3    H160761   3.764   1.584  14.443  0.4615  0.5406 -0.8635
13090TIP3    H260762   3.651   1.671  14.394 -0.6894 -1.2821 -1.5341
13091TIP3   OH260763   2.287   0.261   5.506  0.5093 -0.0399 -0.1983
13091TIP3    H160764   2.243   0.277   5.590  2.4920  1.8775  0.5708
13091TIP3    H260765   2.245   0.321   5.445  0.3215 -0.0876 -0.1180
13092TIP3   OH260766   5.093   5.422   3.900 -0.5357 -0.0600  0.0849
13092TIP3    H160767   5.060   5.449   3.986 -1.3574  1.5188 -0.6823
13092TIP3    H260768   5.187   5.435   3.905 -0.4123 -1.2076  1.1432
13093TIP3   OH260769   0.017   3.845  16.225 -0.3035  0.0056  0.2339
13093TIP3    H160770  -0.070   3.842  16.186 -0.5178  0.3058  0.6753
13093TIP3    H260771   0.005   3.894  16.307  0.7074  2.2074 -0.8334
13094TIP3   OH260772   3.774   1.226  10.287 -0.0302 -0.2679 -0.2722
13094TIP3    H160773   3.830   1.149  10.278  0.5083  0.0585  0.1665
13094TIP3    H260774   3.715   1.222  10.213  0.5739 -0.6268 -0.7439
13095TIP3   OH260775   3.427   1.423  14.830  0.7653 -0.2623  0.5335
13095TIP3    H160776   3.518   1.395  14.842  0.1379 -2.1670  1.2708
13095TIP3    H260777   3.433   1.503  14.778  2.8022 -1.3272 -1.0420
13096TIP3   OH260778   1.712   2.340  14.004 -0.5464 -0.3388  0.4071
13096TIP3    H160779   1.691   2.247  13.990 -1.9185 -0.2109  1.2918
13096TIP3    H260780   1.807   2.343  14.012 -0.2188 -1.2710 -2.1789
13097TIP3   OH260781   2.463   6.359  16.313  0.0422  0.3522 -0.6928
13097TIP3    H160782   2.411   6.438  16.299 -0.9921 -0.0322  0.7892
13097TIP3    H260783   2.478   6.324  16.225 -2.2312  0.4832 -1.1938
13098TIP3   OH260784   5.247   2.192  11.346 -0.4039  0.5433  0.5008
13098TIP3    H160785   5.159   2.192  11.309 -1.4898  1.2449  2.9287
13098TIP3    H260786   5.299   2.242  11.283 -1.2382 -1.3742 -1.8976
13099TIP3   OH260787   4.450   2.178  10.750  0.2523  0.0902 -0.3209
13099TIP3    H160788   4.488   2.130  10.676  1.3595  0.8897 -0.2749
13099TIP3    H260789   4.512   2.247  10.769  0.0501 -0.1760  1.4603
13100TIP3   OH260790   0.414   1.560   1.914 -0.1623 -0.1313 -0.1725
13100TIP3    H160791   0.504   1.590   1.904  1.1005 -2.9484  1.6838
13100TIP3    H260792   0.391   1.579   2.005 -0.3222 -2.0667  0.2317
13101TIP3   OH260793   0.560   6.391   2.631 -0.0309 -0.3767  0.1825
13101TIP3    H160794   0.598   6.323   2.687  0.4000 -1.2591 -1.1326
13101TIP3    H260795   0.571   6.358   2.542  1.7894  2.1735 -0.6625
13102TIP3   OH260796   5.938   6.594   2.362 -0.2446 -0.3497 -0.0568
13102TIP3    H160797   5.961   6.621   2.451  1.0248 -1.3373 -0.0441
13102TIP3    H260798   5.909   6.504   2.371 -0.4911 -0.3268 -0.5919
13103TIP3   OH260799   3.554   5.180   1.428  0.5126  0.2159 -0.1483
13103TIP3    H160800   3.620   5.154   1.364 -1.2454 -0.4495 -1.7824
13103TIP3    H260801   3.500   5.244   1.383  0.6439  1.6085  1.5395
13104TIP3   OH260802   0.365   4.125  14.211 -0.2394 -0.2708  0.4929
13104TIP3    H160803   0.277   4.164  14.212 -0.2108 -0.1790  0.0106
13104TIP3    H260804   0.424   4.200  14.208 -0.1990 -0.3297 -0.9962
13105TIP3   OH260805   6.064   6.196  11.051  0.1667 -0.1004  0.3612
13105TIP3    H160806   6.143   6.192  10.997 -0.8814  0.5296 -1.3365
13105TIP3    H260807   6.016   6.116  11.029  0.2674 -0.4210  1.2862
13106TIP3   OH260808   0.275   6.259  16.668  0.0761  0.1763 -0.2451
13106TIP3    H160809   0.231   6.175  16.653 -1.2367  0.8612 -0.3785
13106TIP3    H260810   0.340   6.265  16.598  0.9190 -1.1856  0.3720
13107TIP3   OH260811   3.734   2.986   4.497 -0.6520  0.6936  0.4491
13107TIP3    H160812   3.798   3.041   4.452 -0.2343  0.7182  1.0783
13107TIP3    H260813   3.657   3.043   4.508 -0.8593  0.6127 -0.4486
13108TIP3   OH260814   3.839   3.828   0.007 -0.3092  0.5406  0.1710
13108TIP3    H160815   3.747   3.850  -0.012 -0.1416 -0.4908 -2.2627
13108TIP3    H260816   3.878   3.814  -0.079  1.0336 -3.3853  1.2090
13109TIP3   OH260817   1.062   2.323   4.282 -0.5619 -0.5730 -0.1240
13109TIP3    H160818   1.021   2.354   4.362 -1.5514  0.3358 -0.9568
13109TIP3    H260819   1.019   2.240   4.263 -2.5804  0.6746 -1.3397
13110TIP3   OH260820   3.101   5.713  16.779 -0.1788  0.2142 -0.1702
13110TIP3    H160821   3.061   5.643  16.727 -2.2433  1.5905 -0.5233
13110TIP3    H260822   3.121   5.671  16.863 -0.4873 -1.0311 -0.6969
13111TIP3   OH260823   4.822   4.370   5.695  0.2352 -0.4633  0.2607
13111TIP3    H160824   4.776   4.418   5.626  2.4909  1.0292 -0.3126
13111TIP3    H260825   4.824   4.279   5.664  0.1762 -0.0270 -1.0595
13112TIP3   OH260826   2.933   6.684   5.632 -0.5764 -0.2097  0.6318
13112TIP3    H160827   2.940   6.775   5.601 -0.3143 -0.1192  0.9583
13112TIP3    H260828   2.850   6.682   5.679 -0.0610  0.1500  1.5799
13113TIP3   OH260829   3.013   0.464   2.459  0.3758 -0.3976  0.3271
13113TIP3    H160830   3.105   0.450   2.438  0.4987 -0.0731  0.6310
13113TIP3    H260831   2.981   0.522   2.391  1.1498  1.8638  1.7773
13114TIP3   OH260832   3.877   0.311   2.382  0.3711  0.2150 -0.1034
13114TIP3    H160833   3.789   0.284   2.356 -0.4652  2.2113  0.4329
13114TIP3    H260834   3.910   0.362   2.308  0.1556  1.3613  0.5728
13115TIP3   OH260835   1.325   4.760  11.601 -0.3215  0.0961  0.1422
13115TIP3    H160836   1.306   4.806  11.519  0.7349 -0.2686 -0.3188
13115TIP3    H260837   1.311   4.825  11.669 -0.7818  0.5299 -0.3542
13116TIP3   OH260838   3.221   6.724   2.065 -0.2254 -0.0821  0.3537
13116TIP3    H160839   3.316   6.735   2.072 -0.1694 -0.2834 -0.0462
13116TIP3    H260840   3.207   6.629   2.074 -0.6545  0.1601  3.2897
13117TIP3   OH260841   4.440   3.426   4.103  0.1870  0.1344  0.1868
13117TIP3    H160842   4.464   3.422   4.196  2.3698  2.0517 -0.2124
13117TIP3    H260843   4.431   3.334   4.077  0.4785 -0.4740  2.0448
13118TIP3   OH260844   6.630   4.209  16.264 -0.2213 -0.0516 -0.1062
13118TIP3    H160845   6.576   4.284  16.291  2.4892  1.3300  2.0498
13118TIP3    H260846   6.604   4.139  16.324 -0.8196  0.0322 -0.2602
13119TIP3   OH260847   0.274   2.675  15.057  0.7252 -0.0924  0.4027
13119TIP3    H160848   0.300   2.679  14.965 -1.2858 -1.2897 -0.2700
13119TIP3    H260849   0.341   2.620  15.099  2.1278  1.1430 -0.1093
13120TIP3   OH260850   2.682   6.323  12.140 -0.2217  0.0036  0.4230
13120TIP3    H160851   2.643   6.342  12.225 -0.2456 -0.0653  0.4281
13120TIP3    H260852   2.768   6.365  12.142 -0.9946  1.7104 -0.2588
13121TIP3   OH260853   2.034   2.872  13.913  0.0902  0.4124 -0.5148
13121TIP3    H160854   2.047   2.936  13.982 -1.6645  0.5190 -0.2260
13121TIP3    H260855   2.008   2.923  13.836 -1.5010  0.0886 -0.2327
13122TIP3   OH260856   4.362   4.308  11.412  0.7378 -0.3702  0.0646
13122TIP3    H160857   4.427   4.375  11.392 -0.8627  0.4100 -3.0590
13122TIP3    H260858   4.292   4.355  11.457  0.2624 -0.1940 -0.8335
13123TIP3   OH260859   2.802   1.144   0.006  0.3539 -0.1810  0.0702
13123TIP3    H160860   2.879   1.150   0.063  0.2048 -3.3004  0.7307
13123TIP3    H260861   2.763   1.232   0.010  3.1737  1.1781  0.6076
13124TIP3   OH260862   4.219   5.681  13.357  1.2094 -0.1694 -0.2867
13124TIP3    H160863   4.235   5.671  13.451 -0.4938 -1.8837 -0.1177
13124TIP3    H260864   4.133   5.640  13.343  1.1414  0.6128 -2.4939
13125TIP3   OH260865   6.248   3.557   5.743 -0.4604  0.2937  0.1001
13125TIP3    H160866   6.339   3.571   5.769 -0.6419  1.3289  0.2162
13125TIP3    H260867   6.213   3.645   5.730 -1.2964 -0.1072 -0.4690
13126TIP3   OH260868   6.441   1.632   3.097  0.8058 -0.3368  0.0654
13126TIP3    H160869   6.460   1.601   3.009  0.2041 -1.5103  0.3291
13126TIP3    H260870   6.440   1.728   3.089 -1.7463 -0.4013 -1.7743
13127TIP3   OH260871   2.123   5.140   2.911  0.1450 -1.0337 -0.3682
13127TIP3    H160872   2.112   5.235   2.915 -0.6264 -1.1590  0.7968
13127TIP3    H260873   2.101   5.118   2.820 -1.3769 -0.2886 -0.2187
13128TIP3   OH260874   3.634   3.408   0.074  0.2948  0.8766  0.4274
13128TIP3    H160875   3.671   3.493   0.052  0.1057  1.0492  0.7592
13128TIP3    H260876   3.701   3.366   0.128  1.2987 -0.0638 -1.4852
13129TIP3   OH260877   2.200   1.420   1.211  0.0772  0.4273 -0.1056
13129TIP3    H160878   2.291   1.388   1.216 -0.5272 -1.2151  2.8514
13129TIP3    H260879   2.147   1.341   1.217 -1.5428  1.5296  0.6130
13130TIP3   OH260880   1.745   2.946  11.218  0.1050 -0.1930 -0.1166
13130TIP3    H160881   1.782   2.863  11.188  1.0853 -0.1748  0.9563
13130TIP3    H260882   1.763   2.947  11.312 -0.6941  0.8326  0.0370
13131TIP3   OH260883   6.548   0.183   1.215  0.3793 -0.7800 -0.1453
13131TIP3    H160884   6.604   0.244   1.262  0.3832 -0.8327 -0.0814
13131TIP3    H260885   6.590   0.098   1.228 -1.0814 -1.2251  2.0396
13132TIP3   OH260886   4.822   6.109  16.731 -0.0592 -0.0616  0.0069
13132TIP3    H160887   4.755   6.177  16.732  0.2301  0.2263 -0.1796
13132TIP3    H260888   4.857   6.109  16.820 -1.0794 -0.9863  0.4268
13133TIP3   OH260889   3.516   4.279  11.941 -0.3685 -0.6984 -0.3209
13133TIP3    H160890   3.588   4.322  11.988 -1.8595  2.3802 -0.5730
13133TIP3    H260891   3.507   4.329  11.860 -1.0646 -2.7553 -1.5703
13134TIP3   OH260892   5.461   5.972  13.835  0.2992 -0.3871 -0.0797
13134TIP3    H160893   5.508   5.970  13.918 -0.7254 -0.1612  0.5255
13134TIP3    H260894   5.483   6.056  13.796  2.4213 -1.3232 -1.0502
13135TIP3   OH260895   3.355   1.511   0.022  0.1923  0.5346  0.1466
13135TIP3    H160896   3.335   1.583  -0.039 -0.2287 -0.3743 -0.8330
13135TIP3    H260897   3.443   1.483  -0.004 -0.4219 -0.5842 -0.8373
13136TIP3   OH260898   0.582   1.652   1.683 -0.4637 -0.4037 -0.1859
13136TIP3    H160899   0.666   1.640   1.639 -0.2558  0.3086 -0.0012
13136TIP3    H260900   0.541   1.726   1.637 -0.9738 -0.7163 -0.2457
13137TIP3   OH260901   1.730   0.234   3.637  0.6501 -0.5446  0.1470
13137TIP3    H160902   1.798   0.255   3.573 -0.3129 -0.2491 -0.8172
13137TIP3    H260903   1.675   0.312   3.640  0.1541 -0.9092  0.6492
13138TIP3   OH260904   4.453   6.377   3.711  0.3236  1.0648  0.3396
13138TIP3    H160905   4.408   6.442   3.764 -0.1345 -0.2805  1.6826
13138TIP3    H260906   4.512   6.333   3.772  0.2174 -0.1324 -0.3823
13139TIP3   OH260907   1.753   2.833   3.589 -0.7415 -0.0068  0.0709
13139TIP3    H160908   1.672   2.842   3.538 -1.3543  1.6612  1.2061
13139TIP3    H260909   1.746   2.903   3.655 -0.0436 -2.0811  2.4828
13140TIP3   OH260910   3.470   1.790   6.291 -0.0551 -0.3389 -0.7889
13140TIP3    H160911   3.503   1.708   6.329 -0.8052  0.1420  1.0262
13140TIP3    H260912   3.386   1.804   6.335 -0.6999  0.6062 -2.2469
13141TIP3   OH260913   3.803   6.351  11.108  0.0174 -0.1613 -0.6050
13141TIP3    H160914   3.874   6.351  11.172  0.9864 -0.5442 -1.6448
13141TIP3    H260915   3.725   6.329  11.159 -0.1372  3.9236  1.3033
13142TIP3   OH260916   1.890   5.184  14.521  0.7558 -0.3832  0.0052
13142TIP3    H160917   1.922   5.244  14.588  0.1641 -0.7987  0.6652
13142TIP3    H260918   1.797   5.205  14.512  0.5899 -1.0690  0.0980
13143TIP3   OH260919   0.955   0.144   3.689  0.3868  0.4961 -0.0412
13143TIP3    H160920   0.928   0.173   3.776  0.2226 -0.5563  0.2719
13143TIP3    H260921   1.034   0.091   3.705  0.7847  0.9039 -0.6135
13144TIP3   OH260922   2.286   2.798   3.382  0.6196 -0.6209 -0.0961
13144TIP3    H160923   2.238   2.716   3.393  1.1011 -0.8910  0.0320
13144TIP3    H260924   2.225   2.856   3.337  0.2842 -1.0575 -0.2071
13145TIP3   OH260925   0.104   5.255   1.695  0.4386  0.6946  0.4330
13145TIP3    H160926   0.104   5.349   1.677  0.4998  1.1561  2.5925
13145TIP3    H260927   0.036   5.244   1.760 -0.8806 -1.1020 -1.1577
13146TIP3   OH260928   2.124   1.215   4.173 -0.6133  0.0308  0.2527
13146TIP3    H160929   2.217   1.202   4.193 -0.4127  1.4346  0.3415
13146TIP3    H260930   2.106   1.305   4.200 -1.5735  0.3541 -1.3231
13147TIP3   OH260931   2.941   3.512  10.573 -0.3501  0.2389  0.5122
13147TIP3    H160932   2.852   3.539  10.548 -0.0644  0.8850  0.1573
13147TIP3    H260933   2.987   3.503  10.489 -0.1983 -0.5082  0.6759
13148TIP3   OH260934   3.520   3.496   5.663 -0.2445  0.4885 -0.2420
13148TIP3    H160935   3.435   3.466   5.630 -0.8477  2.9942 -1.2189
13148TIP3    H260936   3.498   3.552   5.738  0.6243  0.5787 -0.0441
13149TIP3   OH260937   3.804   3.667   1.276  0.2521 -0.0751  0.3379
13149TIP3    H160938   3.893   3.658   1.311  0.7098 -1.7732 -1.0859
13149TIP3    H260939   3.750   3.612   1.332  0.2052  0.4545  0.8201
13150TIP3   OH260940   6.015   5.187   3.036 -0.3125 -0.2865  0.2741
13150TIP3    H160941   6.015   5.178   3.131 -1.4464 -0.0582  0.3006
13150TIP3    H260942   6.047   5.103   3.004 -0.9471 -0.7436  0.8283
13151TIP3   OH260943   1.652   4.821  11.794 -0.4272 -0.6828 -0.1018
13151TIP3    H160944   1.613   4.844  11.709  1.0092 -0.3390 -0.6873
13151TIP3    H260945   1.603   4.873  11.858 -0.9102 -0.2412 -0.8155
13152TIP3   OH260946   6.449   2.991   2.189 -0.2023  0.1062  0.2105
13152TIP3    H160947   6.426   3.038   2.109  0.4751  0.9139  0.4678
13152TIP3    H260948   6.372   3.000   2.245  0.2030  1.6940  0.5864
13153TIP3   OH260949   6.855   1.204  10.565 -0.8584  0.1872  0.3918
13153TIP3    H160950   6.809   1.244  10.491 -0.0217 -0.3861 -0.4712
13153TIP3    H260951   6.787   1.185  10.629 -1.7449 -0.1425 -0.6179
13154TIP3   OH260952   2.928   0.426   4.654 -0.1250  0.0047 -0.2205
13154TIP3    H160953   2.909   0.513   4.689 -1.4066 -1.0009  1.7915
13154TIP3    H260954   3.004   0.397   4.705 -0.6532 -0.6186  0.2322
13155TIP3   OH260955   3.218   0.471   0.264  0.1305 -0.4789  0.0780
13155TIP3    H160956   3.267   0.396   0.232  0.9563  0.3433 -0.6545
13155TIP3    H260957   3.283   0.540   0.277 -0.7579  0.5149 -0.5100
13156TIP3   OH260958   0.270   6.177   0.455 -0.3319  0.0240  0.1415
13156TIP3    H160959   0.188   6.128   0.450 -0.7625  0.7816 -0.4101
13156TIP3    H260960   0.326   6.136   0.389 -0.0671 -0.8213  0.8637
13157TIP3   OH260961   2.959   5.687   5.412  0.3263  0.5842 -0.1724
13157TIP3    H160962   2.947   5.619   5.346 -0.4855  0.4167  0.1280
13157TIP3    H260963   2.930   5.768   5.369  1.1057  0.7113 -0.4659
13158TIP3   OH260964   1.858   1.088  16.304 -0.2244 -0.4666  0.3374
13158TIP3    H160965   1.791   1.153  16.323 -0.5768 -0.8706  0.4968
13158TIP3    H260966   1.836   1.055  16.217 -0.9263 -1.4395  0.8736
13159TIP3   OH260967   1.620   5.015   5.412  0.7875 -0.2410 -0.4227
13159TIP3    H160968   1.597   5.055   5.329  2.5264 -1.1364 -1.4037
13159TIP3    H260969   1.594   5.079   5.478 -1.2411  0.2025 -1.5708
13160TIP3   OH260970   5.665   1.463  13.729  0.6050  0.3231 -0.0468
13160TIP3    H160971   5.579   1.459  13.687  1.8178 -0.3805 -2.6718
13160TIP3    H260972   5.647   1.448  13.822 -2.2946  2.4632 -0.1479
13161TIP3   OH260973   2.147   1.773  11.502 -0.4908 -0.3540 -0.2591
13161TIP3    H160974   2.169   1.750  11.412 -2.0041  0.3883 -0.8391
13161TIP3    H260975   2.136   1.868  11.501  0.4870 -0.1881  0.9626
13162TIP3   OH260976   3.701   4.433   4.213  0.2436 -0.2195 -0.2941
13162TIP3    H160977   3.661   4.347   4.201 -2.4705  0.9394 -0.3616
13162TIP3    H260978   3.679   4.458   4.302  0.6775  0.5567 -0.3963
13163TIP3   OH260979   1.579   4.155  16.480 -0.4994 -0.1836 -0.0502
13163TIP3    H160980   1.566   4.217  16.551 -2.6665  0.2415 -0.7177
13163TIP3    H260981   1.668   4.122  16.491 -0.6732  0.0864  2.6557
13164TIP3   OH260982   5.663   3.272  13.683  0.5735 -0.2440 -0.7535
13164TIP3    H160983   5.637   3.355  13.723  2.7441  0.9730 -1.6601
13164TIP3    H260984   5.622   3.205  13.737 -1.0386  1.3981  0.1761
13165TIP3   OH260985   4.660   3.755   3.819  0.2334 -0.1290  0.1678
13165TIP3    H160986   4.733   3.724   3.872  2.1118  0.5536 -1.8318
13165TIP3    H260987   4.658   3.695   3.744  0.7379  1.5903 -1.2899
13166TIP3   OH260988   1.793   0.794   3.409 -0.0947 -0.5899 -0.5731
13166TIP3    H160989   1.764   0.774   3.498  2.2606 -2.6177 -0.1202
13166TIP3    H260990   1.722   0.763   3.353 -1.4954  0.4542  0.5499
13167TIP3   OH260991   1.422   3.410  12.280 -0.0760  1.0681 -0.1092
13167TIP3    H160992   1.475   3.469  12.227 -0.1353  1.5610  0.3692
13167TIP3    H260993   1.483   3.341  12.306 -0.4422 -0.1150 -2.1960
13168TIP3   OH260994   3.489   6.234  14.518  0.0726 -0.2705  0.4386
13168TIP3    H160995   3.507   6.236  14.424  0.7056 -1.8998  0.4841
13168TIP3    H260996   3.423   6.166  14.528  0.9495 -1.0310  1.2836
13169TIP3   OH260997   5.779   4.439   2.044  0.2901  0.0297  0.6341
13169TIP3    H160998   5.875   4.439   2.040  0.3318 -2.0846  0.5132
13169TIP3    H260999   5.759   4.431   2.137  0.3133 -1.8022  0.5159
13170TIP3   OH261000   0.300   1.433  12.975 -0.7010 -0.4504  0.2357
13170TIP3    H161001   0.353   1.385  12.911  0.0161 -1.9850  1.9027
13170TIP3    H261002   0.338   1.521  12.975  0.4781 -0.9396 -0.1238
13171TIP3   OH261003   0.448   4.191   0.042 -0.2976  0.3674  0.1395
13171TIP3    H161004   0.534   4.173   0.004 -0.0859  0.0475  0.7680
13171TIP3    H261005   0.387   4.145  -0.016  0.1088 -1.0290  0.7841
13172TIP3   OH261006   5.215   3.890   2.618  0.2222  1.0875 -0.2563
13172TIP3    H161007   5.260   3.973   2.636  0.1027  0.9734  0.6369
13172TIP3    H261008   5.123   3.907   2.640  0.5813  0.0214  2.5773
13173TIP3   OH261009   6.731   3.547   5.038  0.4523 -0.4081 -0.0808
13173TIP3    H161010   6.758   3.471   4.986 -1.1972 -0.7137 -0.5670
13173TIP3    H261011   6.773   3.535   5.122  1.3590 -1.1085 -0.6167
13174TIP3   OH261012   0.612   3.941  15.129 -0.4974 -0.2200  0.5761
13174TIP3    H161013   0.533   3.890  15.110  0.5747 -1.6911 -0.1453
13174TIP3    H261014   0.684   3.886  15.098  0.8056  1.2050  0.9473
13175TIP3   OH261015   1.137   4.266   2.221 -0.4795 -0.1937  0.1326
13175TIP3    H161016   1.059   4.245   2.272 -1.9674 -1.1975 -2.3492
13175TIP3    H261017   1.193   4.189   2.230 -1.2233 -0.8422 -0.5570
13176TIP3   OH261018   0.758   6.783   3.598  0.4684  0.1651 -0.1362
13176TIP3    H161019   0.837   6.816   3.641  1.0803 -1.3672 -0.0092
13176TIP3    H261020   0.786   6.702   3.555 -0.9521 -0.2360 -0.3614
13177TIP3   OH261021   4.182   1.378   4.029  0.2781  0.3327  0.2388
13177TIP3    H161022   4.126   1.413   4.099 -1.6996  2.0907 -2.0462
13177TIP3    H261023   4.188   1.284   4.047 -1.2154  0.5220  2.0292
13178TIP3   OH261024   5.485   0.166  14.782 -0.3812 -0.4240 -0.6033
13178TIP3    H161025   5.531   0.086  14.756 -3.3485 -2.0534 -1.3321
13178TIP3    H261026   5.485   0.221  14.703 -1.1288 -1.1927 -1.1638
13179TIP3   OH261027   4.634   6.396  14.480 -0.3384 -0.4575 -0.5347
13179TIP3    H161028   4.615   6.471  14.425 -0.4428  0.1970  0.3646
13179TIP3    H261029   4.549   6.368  14.514 -0.0652  0.8050  1.3621
13180TIP3   OH261030   3.088   2.247   4.588  0.6751 -0.1196 -0.5885
13180TIP3    H161031   3.115   2.157   4.570  2.0286  0.0574  0.3749
13180TIP3    H261032   3.004   2.238   4.634  1.3872 -0.9844  0.6096
13181TIP3   OH261033   1.554   5.744   0.907 -0.3085  0.1129 -0.3503
13181TIP3    H161034   1.494   5.819   0.906 -4.0746 -2.6020 -1.5756
13181TIP3    H261035   1.559   5.719   0.999  1.3743  2.0192  0.1389
13182TIP3   OH261036   1.480   6.456  12.925 -0.5002 -0.3324 -0.1303
13182TIP3    H161037   1.414   6.512  12.965  1.2857  0.7448  1.5225
13182TIP3    H261038   1.481   6.378  12.980  1.6562  0.9685  1.8689
13183TIP3   OH261039   0.477   1.256  13.612 -0.1414  0.6283 -0.2919
13183TIP3    H161040   0.447   1.165  13.605  0.6292  0.5027 -3.7654
13183TIP3    H261041   0.572   1.250  13.614 -0.1011  1.3471  0.1927
13184TIP3   OH261042   4.476   4.111   5.694 -0.7608  0.1211  0.5411
13184TIP3    H161043   4.498   4.187   5.748 -1.6061  0.9790 -0.2653
13184TIP3    H261044   4.482   4.144   5.604 -1.2475 -0.7415  0.1811
13185TIP3   OH261045   2.058   5.520  16.757  0.1158 -0.1207 -0.1434
13185TIP3    H161046   1.965   5.502  16.741  0.6736 -0.9702 -3.0004
13185TIP3    H261047   2.080   5.590  16.695  1.7029 -0.9580 -0.5688
13186TIP3   OH261048   3.325   2.867  15.808 -0.1202  0.1946  0.1475
13186TIP3    H161049   3.238   2.884  15.844 -0.8592  0.1573 -1.4893
13186TIP3    H261050   3.311   2.796  15.745  1.5154 -1.2627  1.3542
13187TIP3   OH261051   3.035   3.371  11.501  0.1154 -0.6835  0.1116
13187TIP3    H161052   3.072   3.360  11.413 -0.7956 -0.0078 -0.3717
13187TIP3    H261053   2.943   3.392  11.486  0.0654 -0.0533  1.2068
13188TIP3   OH261054   0.403   1.834   5.320 -0.3810  0.6216 -0.1992
13188TIP3    H161055   0.327   1.880   5.282 -1.3646  0.0150  0.9476
13188TIP3    H261056   0.364   1.768   5.377  1.0261 -1.0114 -1.0745
13189TIP3   OH261057   0.299   5.543   0.352 -0.0371 -0.1524 -0.4284
13189TIP3    H161058   0.374   5.551   0.293 -0.2913  2.1880 -0.5447
13189TIP3    H261059   0.247   5.621   0.334 -1.8932 -1.1157  0.5184
13190TIP3   OH261060   0.661   4.471  10.797  0.1535 -0.0379  0.2874
13190TIP3    H161061   0.575   4.429  10.796  0.3691 -0.4860  0.2389
13190TIP3    H261062   0.673   4.504  10.708  0.1169 -0.1514  0.2400
13191TIP3   OH261063   3.798   3.227  15.628  0.2658 -0.4620 -0.2644
13191TIP3    H161064   3.886   3.191  15.626 -0.7035 -3.0867 -0.7274
13191TIP3    H261065   3.785   3.265  15.541  0.3812 -1.6052 -0.7924
13192TIP3   OH261066   4.443   0.726   1.937  0.0503  0.5487  0.4496
13192TIP3    H161067   4.506   0.655   1.928  1.1604  1.3324  1.7418
13192TIP3    H261068   4.457   0.780   1.859  0.4801  0.3385  0.3789
13193TIP3   OH261069   5.948   6.362   1.323  0.4926  0.6059 -0.2050
13193TIP3    H161070   5.920   6.332   1.237 -0.7859 -0.1054  0.4270
13193TIP3    H261071   5.964   6.455   1.312 -0.6361  0.7285 -0.9939
13194TIP3   OH261072   3.817   4.886   1.847  0.2134 -0.8819  0.2773
13194TIP3    H161073   3.752   4.923   1.788  1.0579  1.2180  0.5778
13194TIP3    H261074   3.890   4.861   1.790 -0.4631 -2.4125  0.0433
13195TIP3   OH261075   3.048   3.465   0.995 -0.1133 -0.4303  0.0960
13195TIP3    H161076   2.987   3.476   1.068 -0.6696  1.0494 -0.5555
13195TIP3    H261077   3.036   3.543   0.941  1.6890 -0.5588 -0.5680
13196TIP3   OH261078   1.678   4.564   5.414 -0.3711 -0.2047 -0.2246
13196TIP3    H161079   1.702   4.471   5.408  0.3639  0.0533 -1.8920
13196TIP3    H261080   1.652   4.576   5.505  0.4372 -1.8351  0.2649
13197TIP3   OH261081   4.770   3.163  13.753 -0.3820  0.0947 -0.2953
13197TIP3    H161082   4.841   3.227  13.762  0.5112 -0.7546 -1.0370
13197TIP3    H261083   4.796   3.109  13.678 -0.7126 -1.6445  0.7788
13198TIP3   OH261084   2.761   6.853  14.124 -0.2405 -0.4330 -0.1206
13198TIP3    H161085   2.845   6.846  14.080 -0.5634 -1.4240 -0.5904
13198TIP3    H261086   2.717   6.927  14.081  0.3483  0.0473  0.0875
13199TIP3   OH261087   6.144   6.698  16.088 -0.3822  0.5428  0.3345
13199TIP3    H161088   6.049   6.704  16.097 -0.5477  1.1348 -1.4844
13199TIP3    H261089   6.177   6.708  16.177 -2.0175  0.0990  1.0312
13200TIP3   OH261090   6.211   2.180  11.145 -0.4309 -0.5494  0.1509
13200TIP3    H161091   6.275   2.135  11.199  1.4454 -0.1219 -1.5927
13200TIP3    H261092   6.214   2.271  11.174 -1.3307 -0.7814  1.0202
13201TIP3   OH261093   3.129   5.113   0.606 -0.4925 -0.5478  0.0022
13201TIP3    H161094   3.208   5.142   0.561 -1.2895  2.4585  0.2989
13201TIP3    H261095   3.146   5.022   0.629  1.9383 -0.6818 -1.9067
13202TIP3   OH261096   6.079   5.641   0.780  0.1653  0.1990  0.0388
13202TIP3    H161097   6.000   5.618   0.731 -0.3007  0.8422  0.4675
13202TIP3    H261098   6.150   5.599   0.732 -0.4619 -0.5892 -0.2186
13203TIP3   OH261099   5.880   6.350  16.689 -0.0278 -0.6518 -0.5043
13203TIP3    H161100   5.850   6.368  16.778 -1.0510 -0.9785 -0.7751
13203TIP3    H261101   5.962   6.400  16.681  0.3175 -0.9840  0.7651
13204TIP3   OH261102   0.939   6.038   2.348  0.0816  0.0110  0.3587
13204TIP3    H161103   0.880   6.065   2.419 -0.0942 -0.5402  0.4244
13204TIP3    H261104   0.883   6.035   2.271 -0.1647 -1.3113  0.5770
13205TIP3   OH261105   3.901   2.834  11.061  0.6423  0.0906  0.1510
13205TIP3    H161106   3.965   2.764  11.075 -0.7542 -1.3870 -0.5104
13205TIP3    H261107   3.832   2.792  11.009 -1.7841  1.0869  2.3816
13206TIP3   OH261108   3.944   6.764  12.903  0.3192  0.2656  0.5059
13206TIP3    H161109   4.008   6.720  12.957  0.3299  1.6824  1.7150
13206TIP3    H261110   3.993   6.835  12.860  0.1592 -0.3990 -0.8483
13207TIP3   OH261111   5.346   2.655   1.485  0.0842  0.0204 -0.1095
13207TIP3    H161112   5.260   2.643   1.524  0.3112  0.6753  0.6286
13207TIP3    H261113   5.367   2.747   1.502  0.6867  0.0126 -0.7754
13208TIP3   OH261114   1.238   5.124  13.471 -0.0484  0.0513 -0.4846
13208TIP3    H161115   1.274   5.209  13.446  0.1901  0.1665  0.2275
13208TIP3    H261116   1.219   5.132  13.564 -0.0775 -0.6612 -0.4212
13209TIP3   OH261117   5.157   1.704  13.337  0.3014  0.1507 -0.4174
13209TIP3    H161118   5.082   1.645  13.330  0.0966  0.3969 -0.3113
13209TIP3    H261119   5.223   1.665  13.281 -0.2265  0.4112 -1.2484
13210TIP3   OH261120   5.300   3.655   2.855 -0.5329 -0.3566  0.4848
13210TIP3    H161121   5.347   3.646   2.772 -0.9616 -1.5051  0.3511
13210TIP3    H261122   5.344   3.727   2.900  0.8732 -0.8872  0.0274
13211TIP3   OH261123   2.671   0.264   0.560  0.1169 -0.2463 -0.3576
13211TIP3    H161124   2.648   0.334   0.498  3.7517 -0.9516 -2.8267
13211TIP3    H261125   2.611   0.192   0.538 -1.4228  0.8980 -0.0941
13212TIP3   OH261126   1.704   2.090   3.499  0.0557 -0.2907 -0.9177
13212TIP3    H161127   1.634   2.124   3.554  1.1161 -0.0611  0.3404
13212TIP3    H261128   1.722   2.160   3.437 -1.5779 -0.7909 -2.0302
13213TIP3   OH261129   5.031   2.002  12.478 -0.3590 -1.2232 -0.4070
13213TIP3    H161130   5.010   1.984  12.569 -0.7796 -3.3039 -0.8619
13213TIP3    H261131   5.005   1.922  12.431 -0.5693 -0.0544 -2.4105
13214TIP3   OH261132   5.832   6.448   0.094  0.3013 -0.2590  0.3459
13214TIP3    H161133   5.805   6.432   0.184  0.6844  1.0120  0.7101
13214TIP3    H261134   5.888   6.525   0.099  2.7131 -1.8346 -0.5914
13215TIP3   OH261135   5.140   3.851  12.759 -0.2950  0.0757 -0.4497
13215TIP3    H161136   5.112   3.793  12.830  1.2293 -0.3358 -0.1268
13215TIP3    H261137   5.228   3.819  12.737 -0.0426  1.3183 -1.3189
13216TIP3   OH261138   5.149   5.348  13.448  0.4812  0.0610 -0.5250
13216TIP3    H161139   5.067   5.301  13.432 -1.1963  2.2489  1.0332
13216TIP3    H261140   5.135   5.435  13.410  0.6163  1.6592  2.6796
13217TIP3   OH261141   1.923   4.688   5.546  0.3058 -0.3497  0.0797
13217TIP3    H161142   1.838   4.651   5.521 -0.0193 -0.3560  1.1644
13217TIP3    H261143   1.936   4.660   5.636 -0.4155  2.8898  1.3562
13218TIP3   OH261144   5.760   1.859   1.911 -0.2572 -0.7158  0.3662
13218TIP3    H161145   5.705   1.810   1.850 -2.8804  1.0437  1.1419
13218TIP3    H261146   5.773   1.944   1.869  0.8029 -0.6370  0.8108
13219TIP3   OH261147   6.757   1.362  16.255 -0.0561  0.5403 -0.0410
13219TIP3    H161148   6.811   1.442  16.253  0.2260  0.3436 -0.3933
13219TIP3    H261149   6.809   1.300  16.308  0.2620  0.2137 -0.7273
13220TIP3   OH261150   0.483   0.633  12.173  0.2671 -0.2518 -0.4839
13220TIP3    H161151   0.502   0.547  12.136 -0.9897 -1.0580  0.6396
13220TIP3    H261152   0.442   0.614  12.258  2.0494  1.4758  0.8687
13221TIP3   OH261153   2.480   0.678  12.483  0.5285  0.8515  0.2163
13221TIP3    H161154   2.568   0.716  12.479  1.6816 -1.5006 -3.8687
13221TIP3    H261155   2.426   0.737  12.431  0.4354  0.8143  0.2714
13222TIP3   OH261156   0.924   0.815   5.959  0.2107  0.0794 -0.5481
13222TIP3    H161157   0.883   0.802   5.874  1.4120  0.1290 -1.1512
13222TIP3    H261158   1.018   0.808   5.942  0.5733  1.9623  0.4417
13223TIP3   OH261159   3.371   0.422  15.066  0.5941  0.0634  0.0177
13223TIP3    H161160   3.405   0.356  15.126  0.9708 -0.0724 -0.3335
13223TIP3    H261161   3.420   0.501  15.087  0.8261 -0.0200 -0.1961
13224TIP3   OH261162   4.525   2.527  12.917  0.3413 -0.2873 -0.7335
13224TIP3    H161163   4.617   2.504  12.905  0.5000  0.2550 -0.6103
13224TIP3    H261164   4.482   2.445  12.940  0.5834 -0.7699 -1.9346
13225TIP3   OH261165   0.248   4.587  15.485 -0.2627  0.2251  0.1865
13225TIP3    H161166   0.273   4.630  15.567 -0.6705 -0.4113  0.6504
13225TIP3    H261167   0.331   4.559  15.446 -0.1328 -0.4854  0.9492
13226TIP3   OH261168   1.621   2.172  16.198  0.2767 -0.7570 -0.2677
13226TIP3    H161169   1.547   2.161  16.138 -0.0947 -0.0791  0.0544
13226TIP3    H261170   1.690   2.210  16.145 -0.2529  0.4102 -0.1433
13227TIP3   OH261171   0.590   3.777  13.521  0.3628  0.0512  0.3419
13227TIP3    H161172   0.663   3.715  13.519 -0.1438 -0.5584  0.3993
13227TIP3    H261173   0.557   3.779  13.432  0.9149  0.9170  0.1343
13228TIP3   OH261174   2.488   4.033   5.115  0.2184 -0.2630 -0.1045
13228TIP3    H161175   2.474   4.112   5.167  1.1036  0.0884 -0.3808
13228TIP3    H261176   2.408   3.982   5.128 -1.5503  1.7959 -1.8987
13229TIP3   OH261177   6.825   0.405   2.207 -0.6333  0.5644  0.5361
13229TIP3    H161178   6.890   0.380   2.273  1.6469  1.6892 -1.1472
13229TIP3    H261179   6.789   0.488   2.238 -1.3653 -0.1068  1.5229
13230TIP3   OH261180   4.374   3.974  12.623 -0.2491 -0.0120 -0.4290
13230TIP3    H161181   4.462   3.943  12.644  0.2017 -0.1490 -2.3192
13230TIP3    H261182   4.382   4.069  12.621 -0.3296  0.0091  0.1093
13231TIP3   OH261183   6.764   2.230   0.675  0.1014 -0.0838  0.9124
13231TIP3    H161184   6.777   2.300   0.611 -0.4950 -0.7288  0.0715
13231TIP3    H261185   6.727   2.275   0.752  0.1807  0.5958  0.5626
13232TIP3   OH261186   0.544   2.719  16.466 -0.2291 -0.4993  0.1100
13232TIP3    H161187   0.585   2.647  16.418  1.1191  0.8463 -0.8678
13232TIP3    H261188   0.491   2.764  16.401 -2.2544 -1.3930  1.0532
13233TIP3   OH261189   2.239   6.266  16.438 -0.5502  0.4063  0.0143
13233TIP3    H161190   2.302   6.336  16.421 -0.3294 -0.3469 -2.6867
13233TIP3    H261191   2.285   6.205  16.496  0.1367  1.2556  0.3871
13234TIP3   OH261192   5.566   6.736  14.210  0.1345  0.9040  0.2082
13234TIP3    H161193   5.583   6.642  14.210  0.2367  0.8670  2.2513
13234TIP3    H261194   5.636   6.774  14.157  0.7082 -0.0823  0.2448
13235TIP3   OH261195   6.014   2.798   5.577 -0.0566 -0.0068 -0.3407
13235TIP3    H161196   5.950   2.808   5.507 -0.5086  0.9254  0.1828
13235TIP3    H261197   5.970   2.744   5.642  0.0083 -0.0897 -0.3664
13236TIP3   OH261198   1.263   3.443   2.306 -0.1576 -0.1180 -0.3841
13236TIP3    H161199   1.253   3.432   2.212 -0.7457  0.2933 -0.3706
13236TIP3    H261200   1.177   3.422   2.342 -0.4356  1.4331 -0.0944
13237TIP3   OH261201   1.987   5.655   1.160 -0.0028 -0.3104  0.1502
13237TIP3    H161202   2.027   5.739   1.181 -0.6979  0.4833 -1.5559
13237TIP3    H261203   1.971   5.658   1.066 -2.8559 -1.0989  0.5159
13238TIP3   OH261204   4.846   6.258  11.691 -0.1546  0.2904  0.1709
13238TIP3    H161205   4.920   6.247  11.750  0.2804 -0.9759 -0.5695
13238TIP3    H261206   4.846   6.178  11.638 -1.3302  0.8091 -0.6448
13239TIP3   OH261207   5.097   2.519  15.536 -0.4728 -0.9968  0.5000
13239TIP3    H161208   5.125   2.468  15.460  0.5864 -0.1149  0.2693
13239TIP3    H261209   5.177   2.531  15.587  0.3419  3.5934 -1.3229
13240TIP3   OH261210   4.452   0.254   1.201 -0.1587  0.2952 -0.0392
13240TIP3    H161211   4.361   0.240   1.175  0.1259 -0.5913 -0.5979
13240TIP3    H261212   4.504   0.214   1.131  0.6903  1.7624 -0.2980
13241TIP3   OH261213   0.755   6.698  10.638 -0.3637  0.2731 -0.0578
13241TIP3    H161214   0.665   6.682  10.611 -0.2357  0.5611 -0.6555
13241TIP3    H261215   0.784   6.771  10.585 -0.4423  1.5600  1.5829
13242TIP3   OH261216   1.352   0.793  11.608 -0.3811 -0.6892  0.2323
13242TIP3    H161217   1.424   0.830  11.659 -0.8350  4.8999 -2.4042
13242TIP3    H261218   1.391   0.774  11.523 -1.3859 -0.5428 -0.2734
13243TIP3   OH261219   6.848   0.186  15.569 -0.1563 -0.1349 -0.3084
13243TIP3    H161220   6.795   0.240  15.627  0.5489  0.8249 -0.5274
13243TIP3    H261221   6.925   0.163  15.621  0.4008  0.5917 -0.7909
13244TIP3   OH261222   3.763   6.265  10.501  0.1140  0.1064 -0.1673
13244TIP3    H161223   3.759   6.255  10.596  0.4600 -1.2682 -0.2712
13244TIP3    H261224   3.803   6.351  10.488  0.5665  0.0816  0.9332
13245TIP3   OH261225   1.014   6.646  10.077  0.1204  0.1039 -0.2419
13245TIP3    H161226   0.974   6.678   9.996  0.3290  2.5406  0.5384
13245TIP3    H261227   1.103   6.622  10.052 -0.0343  0.1697 -0.8732
13246TIP3   OH261228   6.538   3.940   3.456 -0.1671  0.2940  0.2567
13246TIP3    H161229   6.521   3.845   3.453  2.3999 -0.1901 -0.9250
13246TIP3    H261230   6.582   3.960   3.374  2.0735  1.9256  1.7254
13247TIP3   OH261231   0.376   5.787  15.402  0.5365  0.1427  0.5402
13247TIP3    H161232   0.437   5.837  15.348 -0.2482  0.2291 -0.2833
13247TIP3    H261233   0.402   5.808  15.492 -0.8719  3.5333  0.3138
13248TIP3   OH261234   3.636   4.603  14.235 -0.6498 -0.8324 -0.2239
13248TIP3    H161235   3.643   4.617  14.329  0.6175 -1.6552 -0.1771
13248TIP3    H261236   3.593   4.518  14.226 -0.4156 -0.9355 -0.3832
13249TIP3   OH261237   2.659   2.338  11.341  0.0860  0.0817 -0.5397
13249TIP3    H161238   2.724   2.404  11.366  1.7920 -1.7146  0.0976
13249TIP3    H261239   2.610   2.378  11.270  1.7846  1.6269 -0.9283
13250TIP3   OH261240   5.853   6.342  15.528 -0.0744 -0.3246 -0.2003
13250TIP3    H161241   5.847   6.411  15.593  2.2695  0.7458 -0.9876
13250TIP3    H261242   5.826   6.383  15.446 -0.7394 -0.9797 -0.3209
13251TIP3   OH261243   1.679   1.525  10.738 -0.6491 -0.2982 -0.2730
13251TIP3    H161244   1.682   1.446  10.684 -1.5076 -0.2242 -0.4378
13251TIP3    H261245   1.771   1.549  10.750 -0.4350 -0.5715 -1.3083
13252TIP3   OH261246   4.580   1.390  11.745 -1.0807  0.1097 -0.3719
13252TIP3    H161247   4.499   1.428  11.781 -0.5537  0.2428  0.7284
13252TIP3    H261248   4.648   1.454  11.766 -0.9121  0.7929 -2.7616
13253TIP3   OH261249   4.466   6.768   6.084 -0.3891 -0.0377 -0.3373
13253TIP3    H161250   4.375   6.762   6.114 -1.0479  1.2011 -1.9394
13253TIP3    H261251   4.478   6.692   6.028 -0.2125 -0.5391  0.3612
13254TIP3   OH261252   3.990   1.847   0.919 -0.0354 -0.2521 -0.4569
13254TIP3    H161253   4.027   1.764   0.887 -0.7651 -0.5058 -0.6776
13254TIP3    H261254   4.066   1.900   0.941  0.4589 -1.5741  1.2593
13255TIP3   OH261255   6.843   2.171  13.682 -0.0381 -0.4008  0.1994
13255TIP3    H161256   6.830   2.077  13.683 -1.8521 -0.2025  1.9553
13255TIP3    H261257   6.937   2.183  13.696  0.2754 -1.9134 -0.4110
13256TIP3   OH261258   3.889   4.122   2.923  0.2144 -0.1733 -0.3030
13256TIP3    H161259   3.803   4.157   2.947  0.2848  0.0545 -0.3861
13256TIP3    H261260   3.875   4.027   2.918  0.3116 -0.2787  1.1074
13257TIP3   OH261261   0.724   3.694   1.691  0.5629 -0.4857 -0.2869
13257TIP3    H161262   0.661   3.729   1.754  2.2051  0.9386  0.6419
13257TIP3    H261263   0.673   3.683   1.610 -0.9456  0.2964  0.5092
13258TIP3   OH261264   5.973   3.130   5.851 -0.0618  0.6468  0.4802
13258TIP3    H161265   5.916   3.206   5.862 -0.3634  0.2130  2.1788
13258TIP3    H261266   5.939   3.065   5.913  1.4176 -0.1383  0.5217
13259TIP3   OH261267   3.251   1.831  14.478 -0.0767 -0.5353 -0.0848
13259TIP3    H161268   3.162   1.860  14.499 -0.8637 -1.7825 -1.4712
13259TIP3    H261269   3.263   1.856  14.386  0.6501 -1.1720 -0.1683
13260TIP3   OH261270   2.883   1.616  13.354 -0.4380  0.2321 -0.1551
13260TIP3    H161271   2.863   1.706  13.330  3.8644  1.6272  0.6674
13260TIP3    H261272   2.874   1.613  13.449  0.0107 -0.0115 -0.1154
13261TIP3   OH261273   2.593   5.543   0.606  0.1423  0.4732 -0.7113
13261TIP3    H161274   2.668   5.494   0.572  0.0652  0.5163 -0.9452
13261TIP3    H261275   2.526   5.476   0.621 -0.0423  0.5327 -1.2487
13262TIP3   OH261276   1.912   3.268  12.562  0.4180 -0.4932  0.1516
13262TIP3    H161277   1.855   3.217  12.619  0.3330 -0.3719  0.1757
13262TIP3    H261278   1.997   3.267  12.606 -0.1490  1.4272  1.4295
13263TIP3   OH261279   2.271   5.802   3.241  0.7400  0.5739  0.0831
13263TIP3    H161280   2.231   5.754   3.168 -0.8967 -0.4932  1.5949
13263TIP3    H261281   2.252   5.894   3.223  0.3569  0.3253 -0.8406
13264TIP3   OH261282   4.034   4.676  10.879  0.2063  0.0766  0.3447
13264TIP3    H161283   3.977   4.650  10.806  0.8830 -0.4694 -0.0093
13264TIP3    H261284   4.021   4.608  10.945 -2.1106  1.7475  1.7290
13265TIP3   OH261285   4.960   2.336  16.700  0.0878 -0.2210 -0.7455
13265TIP3    H161286   5.004   2.421  16.705  1.9564 -0.9048 -3.4694
13265TIP3    H261287   5.005   2.282  16.765 -0.3773  0.5170  0.2214
13266TIP3   OH261288   3.263   1.430  11.784  0.1805 -0.3684  0.5318
13266TIP3    H161289   3.235   1.458  11.697 -2.5210 -0.0163  1.4434
13266TIP3    H261290   3.266   1.334  11.778 -1.2424 -0.4195  0.3734
13267TIP3   OH261291   0.150   0.097  15.158 -0.3084 -0.0989  0.1207
13267TIP3    H161292   0.076   0.088  15.218 -0.3405  2.1192  0.4823
13267TIP3    H261293   0.227   0.088  15.214 -0.3253  0.3148  0.2106
13268TIP3   OH261294   3.372   4.622   5.598 -0.5106 -0.0642 -0.1678
13268TIP3    H161295   3.418   4.679   5.658  2.6772 -1.5011 -1.0236
13268TIP3    H261296   3.351   4.544   5.650  1.0963 -0.7730 -0.5218
13269TIP3   OH261297   3.272   5.313   0.800  0.0389 -0.0596  0.0267
13269TIP3    H161298   3.241   5.404   0.799  0.6790  0.1803  0.9167
13269TIP3    H261299   3.207   5.266   0.748 -0.5401  0.8306 -0.0931
13270TIP3   OH261300   4.168   1.058  13.010 -0.1450  0.1901 -0.5127
13270TIP3    H161301   4.251   1.101  13.033 -0.9226  1.1324  0.6863
13270TIP3    H261302   4.193   0.968  12.990  1.1315  0.3507  0.2030
13271TIP3   OH261303   4.460   3.018   1.766 -0.1640  0.1125  0.0845
13271TIP3    H161304   4.489   2.985   1.850  2.5526  2.2763  0.1518
13271TIP3    H261305   4.525   3.085   1.743 -1.6432  0.6670 -3.0186
13272TIP3   OH261306   2.213   3.669  11.312  0.4826 -0.4813 -0.2654
13272TIP3    H161307   2.128   3.635  11.340  1.2872 -1.0477  1.6452
13272TIP3    H261308   2.213   3.760  11.341  0.8196 -0.7114  0.4897
13273TIP3   OH261309   3.334   0.695   0.960  0.3714  0.2024 -0.0634
13273TIP3    H161310   3.409   0.635   0.969 -1.5880 -2.5045 -0.4978
13273TIP3    H261311   3.320   0.701   0.866 -1.2806 -1.1765  0.0569
13274TIP3   OH261312   5.068   1.350  13.888  0.2477  0.0352  0.5625
13274TIP3    H161313   5.043   1.420  13.827  1.2578 -1.7559 -2.0770
13274TIP3    H261314   4.984   1.316  13.921 -0.7265 -1.8067 -3.3265
13275TIP3   OH261315   1.913   3.301   2.642 -0.1289 -0.0862  0.1732
13275TIP3    H161316   1.844   3.309   2.708 -2.0577  1.8731 -1.8977
13275TIP3    H261317   1.893   3.369   2.578  2.6014 -0.7910 -1.6043
13276TIP3   OH261318   4.203   6.693   6.114 -0.5221 -0.2873  0.1779
13276TIP3    H161319   4.156   6.680   6.032 -1.3904  1.3771  0.3845
13276TIP3    H261320   4.214   6.605   6.149  1.7388 -1.3046 -2.6959
13277TIP3   OH261321   3.678   6.553  11.622  0.2272 -0.0589 -0.2639
13277TIP3    H161322   3.606   6.506  11.580 -1.2993  1.1473  0.8721
13277TIP3    H261323   3.734   6.581  11.549 -0.3266 -1.1676 -1.1588
13278TIP3   OH261324   0.529   5.149   0.694  0.1472 -0.1825  0.3338
13278TIP3    H161325   0.572   5.065   0.711  0.6430 -0.1001 -0.4845
13278TIP3    H261326   0.543   5.164   0.601 -0.1213  0.7089  0.4371
13279TIP3   OH261327   1.334   4.890   4.379 -0.2207  0.5277  0.2785
13279TIP3    H161328   1.337   4.914   4.286  0.2866  2.2631  0.7079
13279TIP3    H261329   1.368   4.800   4.381 -0.3516  0.4148 -1.2206
13280TIP3   OH261330   5.305   5.977   3.699  0.0630  0.0781 -0.8459
13280TIP3    H161331   5.381   5.955   3.753 -1.0213 -0.0978  0.6776
13280TIP3    H261332   5.265   5.893   3.678 -0.3298  0.2256 -0.6949
13281TIP3   OH261333   1.103   6.289  10.036 -0.3066  0.1456  0.4414
13281TIP3    H161334   1.080   6.363   9.979  0.7058 -0.7270 -1.1731
13281TIP3    H261335   1.019   6.251  10.062 -0.7852  0.3214 -0.7993
13282TIP3   OH261336   2.649   3.813   4.773 -0.0742  0.1868 -0.2197
13282TIP3    H161337   2.578   3.756   4.745  0.2032  0.4527 -1.5347
13282TIP3    H261338   2.721   3.753   4.794  0.0368  0.0134 -1.0635
13283TIP3   OH261339   1.931   2.899   2.611 -0.1539 -0.5362  0.1533
13283TIP3    H161340   1.865   2.968   2.612 -0.6858 -1.0287  1.1166
13283TIP3    H261341   1.883   2.819   2.632  0.9203 -0.6917  2.3570
13284TIP3   OH261342   2.624   3.041   4.229  0.3980  0.2463 -0.3267
13284TIP3    H161343   2.586   3.058   4.315 -0.1279 -0.0258 -0.4976
13284TIP3    H261344   2.621   3.126   4.184 -0.9434  0.0434 -0.6880
13285TIP3   OH261345   3.237   5.009  11.360 -0.2684  0.0952 -0.1423
13285TIP3    H161346   3.240   4.971  11.273  0.0319  0.5027 -0.3175
13285TIP3    H261347   3.328   5.007  11.390 -0.4347 -0.4413  0.3376
13286TIP3   OH261348   6.867   1.817  12.729 -0.0154  0.2017 -0.0799
13286TIP3    H161349   6.885   1.739  12.781 -1.3978  0.4591  0.8464
13286TIP3    H261350   6.951   1.841  12.690  0.4262 -1.7437 -0.3892
13287TIP3   OH261351   5.243   4.284   0.619  0.4822 -0.4814 -0.4112
13287TIP3    H161352   5.208   4.303   0.706  1.2233  0.7691 -0.3672
13287TIP3    H261353   5.331   4.251   0.634  1.4609  1.8225 -0.7372
13288TIP3   OH261354   6.689   5.872   5.955  0.0930 -0.0251 -1.2998
13288TIP3    H161355   6.706   5.941   6.018  0.7053 -0.1421 -1.3317
13288TIP3    H261356   6.635   5.914   5.887  0.8288  0.5427 -1.5444
13289TIP3   OH261357   4.698   4.822  13.490  0.4635 -0.0432  0.2149
13289TIP3    H161358   4.648   4.742  13.471  0.0544 -0.0175  1.1435
13289TIP3    H261359   4.789   4.793  13.490  0.3090 -0.5545  0.7096
13290TIP3   OH261360   5.283   3.768  15.455 -0.0103 -0.2220 -0.5839
13290TIP3    H161361   5.228   3.690  15.443 -2.9823  1.3108  1.7710
13290TIP3    H261362   5.240   3.835  15.403  1.0069  0.5147 -0.5026
13291TIP3   OH261363   1.965   6.298  15.247  0.3886 -0.4236 -0.0522
13291TIP3    H161364   1.918   6.265  15.323  1.4790  0.1675  0.9120
13291TIP3    H261365   2.057   6.279  15.265  0.6408 -0.6510 -1.4199
13292TIP3   OH261366   6.100   6.235  14.310 -0.5944 -0.0904  0.0534
13292TIP3    H161367   6.072   6.316  14.354 -0.3864  0.0903 -0.1445
13292TIP3    H261368   6.195   6.233  14.320 -0.7581 -1.2820  1.6950
13293TIP3   OH261369   5.650   2.838   2.252  0.1683 -0.0519  0.5653
13293TIP3    H161370   5.614   2.764   2.302 -0.2560  0.6081  1.2708
13293TIP3    H261371   5.677   2.800   2.169  1.1304 -1.2473  1.3762
13294TIP3   OH261372   5.328   3.769  14.598 -0.0266 -0.6531  0.6851
13294TIP3    H161373   5.364   3.697  14.546  1.0891 -1.4874  2.5262
13294TIP3    H261374   5.388   3.842  14.583 -0.0750 -0.6873  0.3143
13295TIP3   OH261375   2.006   3.878  11.622  0.4960  0.0892 -0.1799
13295TIP3    H161376   2.087   3.904  11.579  1.5989 -0.8983  1.1905
13295TIP3    H261377   1.995   3.786  11.600  0.7554 -0.2709  1.1025
13296TIP3   OH261378   0.667   0.154  15.511  0.3203  0.3772  0.2490
13296TIP3    H161379   0.709   0.085  15.459 -0.0526  0.2545  0.1079
13296TIP3    H261380   0.740   0.200  15.552  0.5890  0.0914  0.1004
13297TIP3   OH261381   4.936   5.785   1.628  0.2083  0.4301  0.1558
13297TIP3    H161382   5.021   5.808   1.666  0.1367 -0.6526  1.0273
13297TIP3    H261383   4.873   5.839   1.674  0.3446  0.7004  0.0283
13298TIP3   OH261384   3.136   5.935  10.488 -0.5858  0.1584  0.6615
13298TIP3    H161385   3.127   5.898  10.400 -0.8125  0.6186  0.4854
13298TIP3    H261386   3.178   6.020  10.474 -1.1494  0.4871  0.9349
13299TIP3   OH261387   4.038   0.680   3.249  0.4639 -1.3644  0.5599
13299TIP3    H161388   3.967   0.676   3.185 -0.5102 -0.6996  1.5599
13299TIP3    H261389   4.008   0.626   3.322 -0.0765  0.6765  1.9518
13300TIP3   OH261390   5.933   3.048   0.287  0.0051  0.2086 -0.4118
13300TIP3    H161391   5.888   3.017   0.208  0.2442  1.2463 -0.9766
13300TIP3    H261392   5.948   3.141   0.271  2.2222 -0.0612 -0.1930
13301TIP3   OH261393   6.461   4.591  16.628  0.8860  0.2286  0.1400
13301TIP3    H161394   6.382   4.641  16.650  0.7354  0.0266  0.0596
13301TIP3    H261395   6.532   4.656  16.632  0.9428  0.0942  1.6932
13302TIP3   OH261396   3.916   4.271   5.267  0.1425 -0.1379 -0.1898
13302TIP3    H161397   3.990   4.216   5.244  0.2944  0.5913 -1.4899
13302TIP3    H261398   3.843   4.238   5.215 -0.3411 -0.5303  0.7043
13303TIP3   OH261399   1.485   1.980   2.640  0.3034  0.1666 -0.5885
13303TIP3    H161400   1.496   2.023   2.725 -0.8383 -1.3173  0.3684
13303TIP3    H261401   1.525   2.040   2.577 -1.8198  2.9647  0.5489
13304TIP3   OH261402   6.713   4.699   2.157 -0.5295 -0.3025  0.2632
13304TIP3    H161403   6.691   4.703   2.250  0.5063  1.6528  0.4949
13304TIP3    H261404   6.802   4.662   2.155 -0.0244  0.8685  0.1985
13305TIP3   OH261405   3.894   5.206  15.838  0.1973 -0.4966 -0.2494
13305TIP3    H161406   3.858   5.289  15.870 -2.3286 -1.3304 -0.7351
13305TIP3    H261407   3.899   5.218  15.743  2.1298 -0.0978 -0.1329
13306TIP3   OH261408   5.207   0.116   2.820  0.3705  0.4176 -0.0448
13306TIP3    H161409   5.113   0.127   2.811 -0.1576 -1.5769  1.8688
13306TIP3    H261410   5.238   0.096   2.732 -1.5520 -1.8961 -0.3046
13307TIP3   OH261411   3.619   6.379   2.312 -0.3877 -0.3480  0.0289
13307TIP3    H161412   3.694   6.391   2.255  0.3385 -1.3027  0.7665
13307TIP3    H261413   3.544   6.373   2.253 -0.3803  3.4637 -0.6629
13308TIP3   OH261414   5.779   5.201   4.781 -0.2922 -0.0714  0.0145
13308TIP3    H161415   5.729   5.123   4.806  0.1228 -0.4603 -0.3573
13308TIP3    H261416   5.762   5.211   4.688 -0.3008  0.2555  0.0500
13309TIP3   OH261417   0.801   2.508   1.604 -0.3047  0.4677  0.5371
13309TIP3    H161418   0.800   2.497   1.509  1.7239 -0.4704  0.5641
13309TIP3    H261419   0.860   2.583   1.619  3.6102 -2.3999  1.1074
13310TIP3   OH261420   3.820   6.760   4.354 -0.1415 -0.2963 -0.0114
13310TIP3    H161421   3.803   6.668   4.337 -0.2130 -1.0136  3.2245
13310TIP3    H261422   3.913   6.772   4.334  0.1485 -1.4012  0.5864
13311TIP3   OH261423   2.624   0.297   1.330  0.2962 -0.3437  0.1338
13311TIP3    H161424   2.586   0.211   1.312  1.4560 -0.6725 -0.8975
13311TIP3    H261425   2.609   0.347   1.250 -0.5798  0.5168  0.8136
13312TIP3   OH261426   0.096   5.239  11.873 -0.2461  0.0986  0.4633
13312TIP3    H161427   0.189   5.262  11.879 -0.8476  2.5535  1.8242
13312TIP3    H261428   0.078   5.238  11.779  0.3679  3.5977  0.1756
13313TIP3   OH261429   1.685   2.079   2.327 -0.5813  0.5956  0.2887
13313TIP3    H161430   1.717   2.005   2.379 -0.9900  0.2240  0.0219
13313TIP3    H261431   1.737   2.153   2.357 -2.2121  0.8617  2.7138
13314TIP3   OH261432   0.926   0.331   4.654 -0.1033  0.6735  0.0971
13314TIP3    H161433   0.906   0.366   4.567 -1.3670  0.3687  0.2484
13314TIP3    H261434   0.887   0.394   4.715 -0.2374  0.2900  0.4143
13315TIP3   OH261435   2.893   5.646  11.221 -0.2676 -0.8565 -0.1011
13315TIP3    H161436   2.809   5.690  11.236  0.2301  0.8340 -1.7872
13315TIP3    H261437   2.956   5.694  11.275  0.2808  0.6411 -1.9594
13316TIP3   OH261438   2.314   3.406  11.364  0.3950  0.0266 -0.3181
13316TIP3    H161439   2.275   3.492  11.348 -0.5960 -0.0092  1.6077
13316TIP3    H261440   2.407   3.417  11.343  0.3713  1.6993  0.3006
13317TIP3   OH261441   2.159   6.623   0.646 -0.0077 -0.7298  0.1688
13317TIP3    H161442   2.247   6.601   0.616  1.7589  2.6682  2.2341
13317TIP3    H261443   2.112   6.540   0.645  2.7904 -2.4778 -2.2486
13318TIP3   OH261444   0.957   4.346  15.818  0.3501 -0.9136 -0.0569
13318TIP3    H161445   0.902   4.268  15.824  0.0024 -0.7495 -1.0340
13318TIP3    H261446   1.043   4.313  15.794  0.3027 -1.0273 -0.0728
13319TIP3   OH261447   4.931   5.339   0.013 -0.0137 -0.1655  0.4779
13319TIP3    H161448   4.863   5.363   0.076 -0.5708 -2.5837  0.8886
13319TIP3    H261449   4.934   5.244   0.016  3.8329 -0.1841  0.9481
13320TIP3   OH261450   2.754   5.526   2.846  0.2451  0.0163 -0.0340
13320TIP3    H161451   2.755   5.558   2.756 -0.4616 -2.7392 -1.1121
13320TIP3    H261452   2.837   5.480   2.857 -0.0602 -0.4414  0.4050
13321TIP3   OH261453   3.195   2.552   1.758 -0.2039 -0.3534  0.0088
13321TIP3    H161454   3.187   2.608   1.836 -1.1361 -1.7813  0.9874
13321TIP3    H261455   3.128   2.584   1.699  0.1861  0.4370 -0.0174
13322TIP3   OH261456   2.472   2.458  16.179 -0.5026  0.6814  0.0203
13322TIP3    H161457   2.505   2.388  16.123  0.7847  0.9992  0.3541
13322TIP3    H261458   2.523   2.451  16.260 -1.6380  0.8571  0.7852
13323TIP3   OH261459   2.619   5.662   1.475  0.6248  0.0240 -0.1537
13323TIP3    H161460   2.647   5.571   1.487  0.3337 -0.2631 -1.5352
13323TIP3    H261461   2.536   5.667   1.523  0.3420 -0.6082 -0.5689
13324TIP3   OH261462   3.214   1.964  11.359  0.0741  0.3084 -0.2767
13324TIP3    H161463   3.154   1.938  11.429  1.3190  0.3928  0.8471
13324TIP3    H261464   3.173   2.041  11.320 -0.4136  0.5313  0.6500
13325TIP3   OH261465   3.037   1.845   4.689  0.1835  0.3453 -0.4452
13325TIP3    H161466   3.056   1.914   4.626  0.2639  0.2104 -0.5692
13325TIP3    H261467   3.121   1.825   4.730  0.1480  0.3698 -0.3609
13326TIP3   OH261468   1.079   6.397  13.145  0.7326  0.2511 -0.0972
13326TIP3    H161469   1.069   6.480  13.192  3.4414  0.4105  0.3608
13326TIP3    H261470   1.058   6.331  13.211  2.5425  0.5209  0.7972
13327TIP3   OH261471   5.874   2.069  10.903  0.1652 -0.8135  0.0254
13327TIP3    H161472   5.789   2.026  10.892 -0.9670  1.0814  0.8397
13327TIP3    H261473   5.868   2.148  10.849  0.5775  0.4224  1.7170
13328TIP3   OH261474   4.782   1.151  14.662 -0.0605  0.0506 -0.0157
13328TIP3    H161475   4.850   1.203  14.618 -0.7260  0.5041 -0.5410
13328TIP3    H261476   4.828   1.105  14.732  0.6515  0.9302  0.1177
13329TIP3   OH261477   6.260   0.163  10.561 -0.2845  0.1427  0.3022
13329TIP3    H161478   6.281   0.174  10.654 -0.7335 -1.1514  0.5857
13329TIP3    H261479   6.339   0.125  10.523 -0.5587 -0.5996  0.4523
13330TIP3   OH261480   5.745   0.290   2.381 -0.2403 -0.3094 -0.5781
13330TIP3    H161481   5.698   0.338   2.313  0.7191 -1.4489 -2.1044
13330TIP3    H261482   5.834   0.326   2.379  0.6944 -2.4874 -2.2314
13331TIP3   OH261483   3.805   5.818  11.475  0.2021 -0.1167 -0.2102
13331TIP3    H161484   3.891   5.782  11.497  0.9695  1.3391 -0.7085
13331TIP3    H261485   3.786   5.878  11.548 -0.0840  0.0590 -0.4303
13332TIP3   OH261486   4.558   3.560  12.876 -0.3933 -0.3277  0.4510
13332TIP3    H161487   4.525   3.482  12.919 -2.3458 -0.3176 -0.8905
13332TIP3    H261488   4.526   3.554  12.786  2.2766  0.3675 -0.6585
13333TIP3   OH261489   2.894   0.880   2.051 -0.3513  0.1423 -0.1430
13333TIP3    H161490   2.870   0.788   2.056  1.1152 -0.2156  1.2239
13333TIP3    H261491   2.935   0.890   1.965  1.3200 -1.0130  0.4661
13334TIP3   OH261492   6.253   6.359   3.967  0.2019  0.2514 -0.2963
13334TIP3    H161493   6.233   6.453   3.975  0.2984  0.1139  2.6262
13334TIP3    H261494   6.214   6.333   3.884  3.3132  3.6147 -3.1628
13335TIP3   OH261495   1.778   3.364   9.948  0.3678  0.3507 -0.4016
13335TIP3    H161496   1.740   3.427   9.888  0.8386  0.9586 -0.0681
13335TIP3    H261497   1.761   3.400  10.035  0.2275 -0.2136 -0.1900
13336TIP3   OH261498   4.028   5.739  11.578 -0.6655  0.3589 -0.0857
13336TIP3    H161499   3.979   5.710  11.655 -1.7152 -0.2508 -0.9617
13336TIP3    H261500   4.076   5.816  11.608 -2.1138  0.9496  0.8340
13337TIP3   OH261501   6.721   0.797   1.317 -0.1131  0.1472  1.0091
13337TIP3    H161502   6.762   0.719   1.355 -0.7134 -1.0490 -0.6578
13337TIP3    H261503   6.794   0.849   1.284  0.2237 -1.3698 -0.8400
13338TIP3   OH261504   6.717   0.165  15.308  0.0130  0.4605  0.0546
13338TIP3    H161505   6.745   0.237  15.252  0.2056  1.6453  1.6050
13338TIP3    H261506   6.760   0.181  15.392 -0.6862 -0.9476  0.7310
13339TIP3   OH261507   0.137   6.294  13.948 -0.1400  0.1025 -0.1357
13339TIP3    H161508   0.201   6.245  14.000  1.6035  0.6584 -1.6367
13339TIP3    H261509   0.084   6.340  14.013 -0.9832 -2.6462  1.2892
13340TIP3   OH261510   0.916   5.184  11.120  0.2341  0.1728  0.0795
13340TIP3    H161511   0.883   5.253  11.177 -0.2069 -0.2557  0.3506
13340TIP3    H261512   0.940   5.113  11.180 -1.0450 -0.6173 -0.3223
13341TIP3   OH261513   1.696   2.765  15.515 -0.2171  0.2161  0.4553
13341TIP3    H161514   1.667   2.848  15.477  0.5809 -0.0877 -0.9080
13341TIP3    H261515   1.615   2.718  15.535 -0.6663  0.9854  0.4644
13342TIP3   OH261516   6.103   4.578  14.012  1.0524  0.6398  0.0129
13342TIP3    H161517   6.032   4.596  13.951  0.2815  0.2535  0.7559
13342TIP3    H261518   6.149   4.503  13.974  0.9444  0.7711 -0.3798
13343TIP3   OH261519   4.095   6.567   4.607  0.0574 -0.2379  0.6134
13343TIP3    H161520   4.089   6.643   4.550 -0.5915  0.3206  1.3940
13343TIP3    H261521   4.177   6.579   4.655  0.2741 -0.3639  0.2717
13344TIP3   OH261522   0.227   3.990   4.821  0.0842  0.2397  0.1521
13344TIP3    H161523   0.225   3.904   4.863 -0.7657  0.3763  0.3936
13344TIP3    H261524   0.284   3.977   4.745 -1.7488 -1.1137 -1.0581
13345TIP3   OH261525   1.773   4.798  12.716 -0.3485 -0.0354 -0.1181
13345TIP3    H161526   1.808   4.880  12.752 -0.4370 -0.5523  1.2021
13345TIP3    H261527   1.736   4.823  12.631 -2.1590  1.7344  1.0811
13346TIP3   OH261528   6.116   0.865  16.661  0.0586 -0.0853 -0.0321
13346TIP3    H161529   6.099   0.771  16.660 -1.7814  0.1188 -3.4998
13346TIP3    H261530   6.205   0.873  16.696 -0.0686 -2.9847  1.2166
13347TIP3   OH261531   5.654   1.853  16.581 -0.1433 -0.1560  0.7551
13347TIP3    H161532   5.612   1.896  16.655 -1.3391 -1.8658  1.1213
13347TIP3    H261533   5.728   1.806  16.618 -0.0766 -0.1044  0.6881
13348TIP3   OH261534   1.077   0.021  14.169  1.0760  0.1852 -0.4965
13348TIP3    H161535   1.082  -0.009  14.078  2.8512 -0.8665 -0.1030
13348TIP3    H261536   1.056   0.114  14.162  0.5050 -0.0190 -1.9483
13349TIP3   OH261537   5.289   4.848  14.568  0.3294  0.4077 -0.1035
13349TIP3    H161538   5.298   4.910  14.640  2.1515 -1.5914  1.5079
13349TIP3    H261539   5.225   4.784  14.600  0.7719 -0.2176 -0.4603
13350TIP3   OH261540   0.633   4.757   0.260 -0.7020  0.2888  0.2618
13350TIP3    H161541   0.678   4.829   0.217 -0.3246 -0.0119  0.1473
13350TIP3    H261542   0.665   4.678   0.216 -0.1414 -0.0440  1.2266
13351TIP3   OH261543   5.276   1.984  13.648 -0.0821  0.0932  0.1348
13351TIP3    H161544   5.357   1.953  13.688  0.4341  1.2206  0.0050
13351TIP3    H261545   5.239   1.907  13.605  0.2096 -0.7474  1.3477
13352TIP3   OH261546   4.304   3.621   5.392 -0.6940  0.3428 -0.3799
13352TIP3    H161547   4.240   3.557   5.359  0.0606 -0.2899 -0.6612
13352TIP3    H261548   4.388   3.590   5.358 -0.1462  0.7710  0.5382
13353TIP3   OH261549   4.700   1.892  11.979 -0.4609  0.5832  0.7361
13353TIP3    H161550   4.629   1.880  11.917  0.5675  2.1613 -0.8427
13353TIP3    H261551   4.773   1.842  11.942  0.2788  1.8589  0.3974
13354TIP3   OH261552   2.462   5.737  12.853 -0.2518  0.0001 -0.4911
13354TIP3    H161553   2.519   5.702  12.785  0.2726  0.8166 -0.4806
13354TIP3    H261554   2.403   5.797  12.808  0.9751  1.5914 -0.0757
13355TIP3   OH261555   0.784   0.319  12.422  0.3496  0.1969 -0.3411
13355TIP3    H161556   0.787   0.228  12.449 -0.1422  0.4315  0.5705
13355TIP3    H261557   0.706   0.324  12.366 -0.6332  0.3732  0.9765
13356TIP3   OH261558   0.844   5.503  14.677 -0.3257 -0.5428 -0.3159
13356TIP3    H161559   0.819   5.478  14.588 -0.4186 -2.4239  0.1847
13356TIP3    H261560   0.770   5.473  14.731  0.8898 -1.9077  0.6612
13357TIP3   OH261561   4.699   3.545  10.790  0.1507 -0.7984 -0.4425
13357TIP3    H161562   4.634   3.614  10.805  0.2148 -0.7430 -0.4238
13357TIP3    H261563   4.778   3.592  10.764 -0.3113 -0.9288 -2.2608
13358TIP3   OH261564   2.418   3.454   0.747 -0.3785  0.1240  0.1328
13358TIP3    H161565   2.397   3.364   0.723  0.5287 -0.0670 -0.0057
13358TIP3    H261566   2.483   3.446   0.817 -0.5101  0.6683  0.3272
13359TIP3   OH261567   2.099   5.943  15.816  0.1138  0.0418  0.0653
13359TIP3    H161568   2.057   5.921  15.899  1.5015  0.1096  0.8114
13359TIP3    H261569   2.052   5.890  15.751  1.1339 -2.6081  1.3270
13360TIP3   OH261570   3.933   2.628   1.030 -0.0538 -0.4155 -0.5704
13360TIP3    H161571   3.864   2.562   1.023 -0.0412 -0.4626 -0.2966
13360TIP3    H261572   3.928   2.678   0.949 -0.0427 -0.7743 -0.7887
13361TIP3   OH261573   2.193   4.341   2.987  0.4975 -0.4957 -0.1973
13361TIP3    H161574   2.165   4.427   3.019 -1.1044 -1.5446  1.4218
13361TIP3    H261575   2.287   4.351   2.971  0.4187  1.4579  0.2663
13362TIP3   OH261576   1.565   2.291  14.912 -0.2694 -0.9059 -0.0999
13362TIP3    H161577   1.582   2.197  14.901 -0.3671 -0.8214 -1.1455
13362TIP3    H261578   1.547   2.322  14.823  0.3100  0.2123  0.1533
13363TIP3   OH261579   4.407   0.210  16.564 -0.4184 -0.3349 -0.7305
13363TIP3    H161580   4.435   0.257  16.485 -1.3749  0.4607 -0.6123
13363TIP3    H261581   4.318   0.183  16.544 -0.1345 -1.4804 -0.5034
13364TIP3   OH261582   4.277   5.313   5.150 -0.6659  0.6687 -0.4881
13364TIP3    H161583   4.238   5.379   5.093  0.1330  2.0003  0.4342
13364TIP3    H261584   4.235   5.326   5.235 -0.3979  0.0792 -0.2562
13365TIP3   OH261585   6.434   2.408   1.979 -0.4974  0.7110  0.0113
13365TIP3    H161586   6.357   2.435   2.029 -0.3072  2.4653 -0.5570
13365TIP3    H261587   6.504   2.465   2.011  0.0128  0.7143 -1.0713
13366TIP3   OH261588   6.544   6.223  14.100  0.0935 -0.3886 -0.1037
13366TIP3    H161589   6.615   6.167  14.131  0.9132  1.0545  0.7459
13366TIP3    H261590   6.473   6.208  14.163  0.8027  0.5170  0.9539
13367TIP3   OH261591   6.170   2.153  15.259 -0.0739  0.2152 -0.3937
13367TIP3    H161592   6.229   2.180  15.188  0.7363 -0.0313  0.1749
13367TIP3    H261593   6.082   2.163  15.222  0.1987  2.7076 -0.5429
13368TIP3   OH261594   5.731   0.261   1.840  0.5816  0.4095 -0.5646
13368TIP3    H161595   5.699   0.345   1.874  3.0433  1.4137 -0.5292
13368TIP3    H261596   5.769   0.283   1.755  0.3235 -0.8891 -1.0304
13369TIP3   OH261597   4.129   2.424  14.861  0.8870  0.5164  0.4255
13369TIP3    H161598   4.137   2.515  14.833  0.4821  0.9228  1.6031
13369TIP3    H261599   4.043   2.418  14.903  1.2999 -0.1622  1.2210
13370TIP3   OH261600   2.424   3.465   4.341  0.5189 -0.0647  0.0213
13370TIP3    H161601   2.422   3.426   4.428  1.6720  0.5955  0.3697
13370TIP3    H261602   2.511   3.503   4.334  0.8291 -1.0133 -1.8439
13371TIP3   OH261603   1.053   6.602  12.604 -0.5181 -0.6919 -0.1610
13371TIP3    H161604   1.106   6.602  12.683 -0.5756 -2.4544 -0.0666
13371TIP3    H261605   1.061   6.690  12.568 -0.1454  0.0134  1.5672
13372TIP3   OH261606   0.897   3.426  14.637  0.2285  0.2735  0.0836
13372TIP3    H161607   0.880   3.469  14.721 -0.8758  0.7903 -0.3903
13372TIP3    H261608   0.819   3.375  14.620 -1.0502  2.7506 -2.1729
13373TIP3   OH261609   5.203   1.544   3.566  0.6051  1.0113 -0.4004
13373TIP3    H161610   5.231   1.617   3.511  1.4742  0.4327 -0.7461
13373TIP3    H261611   5.274   1.534   3.630  0.1716  0.8969  0.0764
13374TIP3   OH261612   2.961   4.053  16.756 -0.1281 -0.6280 -0.0689
13374TIP3    H161613   2.940   4.013  16.671 -1.2699  1.5391 -0.8823
13374TIP3    H261614   3.051   4.026  16.774 -0.3556 -2.3311 -1.2251
13375TIP3   OH261615   3.707   1.756  11.694 -0.1494 -0.5573 -0.2887
13375TIP3    H161616   3.728   1.762  11.787 -1.2456 -0.9329 -0.0056
13375TIP3    H261617   3.693   1.847  11.666 -0.8435 -0.5140  0.1697
13376TIP3   OH261618   5.374   0.712   3.450  0.4453 -0.6120  0.0273
13376TIP3    H161619   5.414   0.625   3.454 -1.9031 -1.7639  0.1736
13376TIP3    H261620   5.425   0.759   3.384  2.4782 -1.6888  0.7663
13377TIP3   OH261621   4.576   0.806  10.568 -0.5883  0.5511  0.3028
13377TIP3    H161622   4.594   0.714  10.547 -0.0193  1.2542 -2.7376
13377TIP3    H261623   4.484   0.807  10.597 -1.6680 -0.6411 -2.7133
13378TIP3   OH261624   4.793   6.733   4.926 -0.1147  0.5445  0.0934
13378TIP3    H161625   4.830   6.768   5.006  1.7127 -0.1345 -0.4039
13378TIP3    H261626   4.844   6.654   4.907 -1.9631 -0.5879 -0.5589
13379TIP3   OH261627   5.189   1.782   2.272 -0.1036 -0.3626 -0.7816
13379TIP3    H161628   5.118   1.796   2.209  0.5950  2.1687 -1.0963
13379TIP3    H261629   5.265   1.761   2.217  1.0962  4.0833 -1.2367
13380TIP3   OH261630   2.432   0.700  12.761  0.6733  0.3087  0.2590
13380TIP3    H161631   2.338   0.694  12.741  0.6126  2.8254 -0.6441
13380TIP3    H261632   2.475   0.655  12.689  0.1797 -0.7940  0.6378
13381TIP3   OH261633   3.781   1.694  16.705 -0.7588 -0.0840 -0.6357
13381TIP3    H161634   3.692   1.660  16.703 -0.2849 -1.3750 -2.1487
13381TIP3    H261635   3.778   1.773  16.652 -0.6504 -1.2219 -2.4337
13382TIP3   OH261636   6.765   3.681  13.919 -0.0254  0.3403 -0.3416
13382TIP3    H161637   6.716   3.643  13.991  0.2974 -1.0130 -0.8081
13382TIP3    H261638   6.735   3.772  13.914 -0.2696  0.3612  1.2783
13383TIP3   OH261639   3.004   1.720   3.006  0.0166  0.5912 -0.6187
13383TIP3    H161640   3.055   1.795   3.035 -0.9742  0.4155  1.8415
13383TIP3    H261641   3.053   1.644   3.039 -0.0501  0.2542 -1.2879
13384TIP3   OH261642   5.568   1.422  12.270  0.5607 -0.7690  0.8047
13384TIP3    H161643   5.549   1.469  12.351  2.0079  0.5489  0.4301
13384TIP3    H261644   5.485   1.379  12.247 -0.9352  1.7890  1.0701
13385TIP3   OH261645   4.003   1.411   4.750 -0.2771  0.3264 -0.2609
13385TIP3    H161646   3.968   1.346   4.689  1.2136 -0.2229 -0.5870
13385TIP3    H261647   3.995   1.369   4.836 -1.6576  0.7817 -0.1434
13386TIP3   OH261648   6.568   5.635   4.878  0.0745  0.1415  0.1636
13386TIP3    H161649   6.604   5.566   4.934  0.1667  0.2529  0.2440
13386TIP3    H261650   6.552   5.708   4.938  2.2879  1.0820 -0.2703
13387TIP3   OH261651   6.109   6.255  13.860 -0.0737  0.2216 -0.1474
13387TIP3    H161652   6.155   6.338  13.875  0.3929 -0.1197  0.3363
13387TIP3    H261653   6.040   6.253  13.926 -0.1325  0.2631 -0.2082
13388TIP3   OH261654   1.348   4.702   1.554  0.1751  0.1623  0.0845
13388TIP3    H161655   1.271   4.751   1.583  0.5260 -0.0683  1.4791
13388TIP3    H261656   1.351   4.625   1.611  0.8445 -0.3813 -0.6623
13389TIP3   OH261657   2.132   1.660   1.566  0.2126 -0.2454  0.0730
13389TIP3    H161658   2.218   1.683   1.531 -0.6873  2.9207 -0.3214
13389TIP3    H261659   2.072   1.723   1.527 -1.9923 -1.1118  1.8349
13390TIP3   OH261660   4.490   4.101   5.410 -0.0232 -0.3263  0.0138
13390TIP3    H161661   4.447   4.017   5.424  0.3123 -0.3308  1.1574
13390TIP3    H261662   4.419   4.165   5.403 -0.2624 -0.6332 -0.3577
13391TIP3   OH261663   5.485   0.441   1.866 -0.1006 -0.1786  0.1173
13391TIP3    H161664   5.400   0.427   1.907  0.3006 -0.5552  0.8359
13391TIP3    H261665   5.478   0.399   1.780 -0.4343 -0.7369  0.4171
13392TIP3   OH261666   4.596   0.579   2.770 -0.2603  0.2656  0.0960
13392TIP3    H161667   4.541   0.503   2.750  1.7996 -1.1571 -0.5044
13392TIP3    H261668   4.675   0.566   2.717 -0.2264  3.3567 -0.7585
13393TIP3   OH261669   1.801   6.109  15.922  0.3547 -0.5762 -0.5843
13393TIP3    H161670   1.775   6.064  15.841 -1.4385  0.2467 -0.5009
13393TIP3    H261671   1.796   6.202  15.901  0.5092 -0.3582  0.2985
13394TIP3   OH261672   4.960   1.819  12.682 -0.3264  0.9052  0.3099
13394TIP3    H161673   4.986   1.867  12.761  1.1478  1.6871 -0.5945
13394TIP3    H261674   4.868   1.800  12.695 -0.7372  3.1166  1.1998
13395TIP3   OH261675   0.475   3.547  16.237 -0.1093  0.4348  0.2554
13395TIP3    H161676   0.568   3.567  16.241 -0.5033  2.6634 -0.3066
13395TIP3    H261677   0.432   3.633  16.230 -2.1211 -0.5757 -0.7262
13396TIP3   OH261678   2.320   1.461  15.467  0.0500  0.2927 -0.1539
13396TIP3    H161679   2.288   1.373  15.445 -1.5309  0.6308  0.6160
13396TIP3    H261680   2.323   1.461  15.563  1.9227  0.4752 -0.1747
13397TIP3   OH261681   1.651   6.802  14.590  0.5347 -0.2680 -0.1947
13397TIP3    H161682   1.604   6.802  14.507  0.3509 -1.7912 -0.1136
13397TIP3    H261683   1.739   6.772  14.567  0.7530  0.1815  0.0378
13398TIP3   OH261684   0.013   2.462  16.190 -0.3794 -0.4429  0.1104
13398TIP3    H161685  -0.075   2.448  16.227 -0.1138  2.1618  2.0821
13398TIP3    H261686   0.072   2.445  16.263  0.3908  1.8228  0.1052
13399TIP3   OH261687   4.782   1.593   1.316 -0.5136  0.3685  0.2865
13399TIP3    H161688   4.824   1.525   1.369 -1.7526 -0.4151  0.2887
13399TIP3    H261689   4.701   1.554   1.286 -1.7376  2.1683  1.0662
13400TIP3   OH261690   4.636   1.457   3.024  0.0630  0.0232 -0.0416
13400TIP3    H161691   4.587   1.510   2.960  0.5287  1.0148  0.3996
13400TIP3    H261692   4.708   1.419   2.974  0.0532  0.2738 -0.2486
13401TIP3   OH261693   2.136   2.447   5.139 -0.1900  0.2943  0.0456
13401TIP3    H161694   2.201   2.377   5.141 -1.8125 -1.5773 -3.5090
13401TIP3    H261695   2.181   2.521   5.097  0.2563 -0.2462 -0.4409
13402TIP3   OH261696   4.529   2.655  13.241 -0.5890 -0.3327  0.0039
13402TIP3    H161697   4.621   2.669  13.217 -0.8701  1.0614 -0.3724
13402TIP3    H261698   4.531   2.638  13.335 -0.1255  2.4772  0.5898
13403TIP3   OH261699   4.926   5.616   0.232  0.2402  0.3214 -0.2397
13403TIP3    H161700   4.952   5.613   0.140  1.8363  0.3015  0.1740
13403TIP3    H261701   4.853   5.555   0.239 -0.5941  1.1135 -1.6900
13404TIP3   OH261702   4.404   2.142   6.081 -0.4738 -0.3350  0.1659
13404TIP3    H161703   4.418   2.155   5.987 -1.0453 -0.2675  0.0833
13404TIP3    H261704   4.483   2.098   6.111  1.4337  2.8818  0.3603
13405TIP3   OH261705   3.736   1.111   3.439 -0.0366  0.7486  0.0071
13405TIP3    H161706   3.799   1.097   3.509 -1.2901  1.8941  1.4220
13405TIP3    H261707   3.756   1.198   3.405  1.4417 -0.3074 -2.0783
13406TIP3   OH261708   3.117   0.183   1.760 -0.0213  0.6749 -0.6445
13406TIP3    H161709   3.102   0.272   1.791 -0.1484  0.2543  0.5299
13406TIP3    H261710   3.074   0.180   1.674  0.9398  2.0659 -1.2328
13407TIP3   OH261711   6.604   3.636  16.846 -0.4348 -0.1359  0.4835
13407TIP3    H161712   6.656   3.712  16.871 -0.2384 -0.3483  0.7287
13407TIP3    H261713   6.513   3.667  16.847 -0.2713  0.4028 -0.5699
13408TIP3   OH261714   2.385   3.790   5.478  0.0101  0.1442  0.2554
13408TIP3    H161715   2.342   3.718   5.430  0.5304  0.6563 -1.0402
13408TIP3    H261716   2.324   3.863   5.472 -0.1253  0.0806  0.7991
13409TIP3   OH261717   2.418   6.873   1.864  0.1379 -0.1321  0.1609
13409TIP3    H161718   2.401   6.932   1.791 -0.8150  0.5827  0.9355
13409TIP3    H261719   2.334   6.831   1.881  0.8033 -1.7757 -0.4008
13410TIP3   OH261720   6.230   6.766  12.034 -0.0703 -0.1767  0.6632
13410TIP3    H161721   6.302   6.827  12.053 -1.9565  1.6537  2.4351
13410TIP3    H261722   6.181   6.808  11.964  0.7407 -1.6407 -0.8585
13411TIP3   OH261723   1.453   1.668  14.149  0.4926  0.0337  0.1457
13411TIP3    H161724   1.367   1.626  14.139 -0.3293  2.0039 -1.6710
13411TIP3    H261725   1.455   1.697  14.240 -0.2263 -1.0928  0.5464
13412TIP3   OH261726   4.484   4.396  16.110  0.7313  0.0733 -0.2523
13412TIP3    H161727   4.390   4.376  16.117  0.6542  0.5338  0.1028
13412TIP3    H261728   4.527   4.311  16.117  0.2501 -0.4238 -2.6584
13413TIP3   OH261729   6.759   4.688  10.576 -0.3806 -0.5163 -0.1089
13413TIP3    H161730   6.682   4.718  10.528  0.1264  0.2369 -0.4607
13413TIP3    H261731   6.826   4.753  10.558  0.4698 -1.3750 -0.1462
13414TIP3   OH261732   5.575   0.453   4.357 -0.3044  0.4581 -0.0199
13414TIP3    H161733   5.580   0.385   4.423  0.8114  0.2484 -0.2958
13414TIP3    H261734   5.666   0.465   4.328 -0.5594  1.6481 -0.3840
13415TIP3   OH261735   0.923   2.932  15.027 -0.1329  1.1033 -0.2348
13415TIP3    H161736   0.840   2.886  15.027  1.3844 -1.9047 -0.6403
13415TIP3    H261737   0.938   2.955  15.119 -0.8100  0.4710  0.0393
13416TIP3   OH261738   0.380   1.785  11.805  0.0094  0.5332  0.1199
13416TIP3    H161739   0.311   1.821  11.750 -1.6188 -1.0129  1.0611
13416TIP3    H261740   0.372   1.690  11.795  3.3639  0.2314 -1.3534
13417TIP3   OH261741   2.527   5.661  11.119 -0.0526 -0.0315  0.6584
13417TIP3    H161742   2.454   5.690  11.064  0.9760 -0.1686 -0.8417
13417TIP3    H261743   2.490   5.658  11.208 -2.0360 -0.7003 -0.1272
13418TIP3   OH261744   6.126   4.025   3.601  0.0734  0.0838  0.2062
13418TIP3    H161745   6.062   3.974   3.650 -1.3414  0.9016 -0.7201
13418TIP3    H261746   6.075   4.096   3.561  1.3134  0.0297 -1.6085
13419TIP3   OH261747   5.188   1.300  16.783  0.1827 -0.2786 -0.4658
13419TIP3    H161748   5.229   1.350  16.854 -1.3402  0.1483  0.1630
13419TIP3    H261749   5.208   1.209  16.804 -0.1730 -0.1510  0.4909
13420TIP3   OH261750   2.544   6.535   3.919  0.1992 -0.3288 -0.7190
13420TIP3    H161751   2.459   6.498   3.942 -0.6432  0.4721 -2.4647
13420TIP3    H261752   2.537   6.628   3.940  0.9818 -0.4183 -0.0004
13421TIP3   OH261753   0.907   0.444   3.451 -0.7879 -0.5746 -0.0046
13421TIP3    H161754   0.980   0.442   3.513  0.6554  0.4445 -1.6031
13421TIP3    H261755   0.865   0.358   3.462  0.6439 -1.1929  0.9447
13422TIP3   OH261756   3.017   1.002   4.713  0.2791 -0.1813  0.4341
13422TIP3    H161757   3.045   0.931   4.771 -0.8657  0.8776  2.3891
13422TIP3    H261758   3.098   1.047   4.688  0.7250  0.3650  2.6595
13423TIP3   OH261759   6.892   4.003   3.483  0.1042 -0.4226 -0.2625
13423TIP3    H161760   6.807   4.014   3.526  0.4380  1.0005  0.0713
13423TIP3    H261761   6.924   4.092   3.468  0.0307 -0.8234 -3.4668
13424TIP3   OH261762   6.509   5.941   1.031  0.2386  0.6608  0.3606
13424TIP3    H161763   6.526   6.025   0.989 -0.6534  1.6896  1.9283
13424TIP3    H261764   6.584   5.886   1.008 -0.1921  1.1297 -2.4784
13425TIP3   OH261765   5.572   2.710   1.904 -0.0216  0.6361  0.1957
13425TIP3    H161766   5.634   2.755   1.962  0.6041 -1.0477  0.8804
13425TIP3    H261767   5.628   2.667   1.839 -0.4321 -1.1580  1.0009
13426TIP3   OH261768   5.244   4.798   1.578  0.5049  0.0117  0.5246
13426TIP3    H161769   5.244   4.889   1.608 -0.3728  0.5490 -0.9802
13426TIP3    H261770   5.336   4.780   1.559  0.4833  1.3121 -1.1090
13427TIP3   OH261771   6.285   1.851  15.370 -0.0064  0.0635  0.7530
13427TIP3    H161772   6.321   1.933  15.337  1.7124 -1.2139 -0.7742
13427TIP3    H261773   6.222   1.877  15.437  0.3147  2.6071  0.1591
13428TIP3   OH261774   0.706   2.162  13.240 -0.2405 -0.2299 -0.0041
13428TIP3    H161775   0.621   2.134  13.208 -0.4838  0.5078 -0.0249
13428TIP3    H261776   0.748   2.082  13.270 -1.2891 -0.4995  0.8282
13429TIP3   OH261777   4.343   2.534  14.344 -0.5669  0.0451  0.0270
13429TIP3    H161778   4.437   2.524  14.359 -0.5832 -2.1863 -1.0348
13429TIP3    H261779   4.336   2.620  14.302  0.9423  0.4133  0.4408
13430TIP3   OH261780   1.793   4.286  14.834  0.7000 -0.1938 -0.3180
13430TIP3    H161781   1.879   4.275  14.875  0.8293 -0.7046 -0.7155
13430TIP3    H261782   1.764   4.197  14.814 -0.2681 -0.0684  0.5068
13431TIP3   OH261783   2.962   1.118  15.953  0.0795 -0.2333  0.4391
13431TIP3    H161784   2.978   1.028  15.981  0.4601 -0.9332 -1.8362
13431TIP3    H261785   2.873   1.137  15.983 -0.3321 -1.6903  0.1932
13432TIP3   OH261786   3.673   3.454   4.714  0.9035  0.2637 -0.7381
13432TIP3    H161787   3.758   3.497   4.707  0.2823  1.3776 -1.9975
13432TIP3    H261788   3.613   3.524   4.740  0.2489 -0.3431 -0.5951
13433TIP3   OH261789   1.821   1.030  15.515  0.3857  0.4338 -0.3810
13433TIP3    H161790   1.834   0.943  15.476 -0.4819  0.0104  0.2370
13433TIP3    H261791   1.736   1.058  15.480 -0.0885  0.3358  0.6574
13434TIP3   OH261792   2.836   0.606   2.056  0.9171 -0.4743 -0.1191
13434TIP3    H161793   2.885   0.610   2.138  0.7762  0.7825 -0.0694
13434TIP3    H261794   2.748   0.577   2.081  1.4182 -2.0925 -0.1217
13435TIP3   OH261795   0.233   1.125  16.249 -0.0396 -0.3716  0.1961
13435TIP3    H161796   0.150   1.105  16.292 -0.4412  0.2327 -0.2931
13435TIP3    H261797   0.234   1.068  16.171 -0.6231  0.5840 -0.5293
13436TIP3   OH261798   5.415   5.316  13.028 -0.1407  0.3579 -0.3790
13436TIP3    H161799   5.493   5.289  12.981 -0.2679 -0.4365 -0.1601
13436TIP3    H261800   5.410   5.256  13.102 -1.4544 -0.2194 -0.9010
13437TIP3   OH261801   3.887   6.520  13.048  0.2032 -0.2530 -0.1824
13437TIP3    H161802   3.885   6.614  13.067  0.2638  0.0143 -1.4233
13437TIP3    H261803   3.974   6.505  13.010 -0.1377 -0.6260 -0.8331
13438TIP3   OH261804   3.137   4.257   5.119  0.3350 -0.9628 -0.3751
13438TIP3    H161805   3.088   4.175   5.118 -0.7008 -0.3615 -0.8435
13438TIP3    H261806   3.084   4.317   5.066  0.4797  0.3329  0.8882
13439TIP3   OH261807   3.720   0.264   5.108  0.4094 -0.0989 -0.2014
13439TIP3    H161808   3.795   0.222   5.067 -0.3003 -1.3424 -0.2493
13439TIP3    H261809   3.705   0.343   5.056 -0.1996 -1.3956 -2.0993
13440TIP3   OH261810   3.333   6.739  16.279  0.2068 -0.4612  0.2413
13440TIP3    H161811   3.408   6.684  16.259 -0.2683 -1.6966  1.6966
13440TIP3    H261812   3.365   6.800  16.347 -0.0175 -0.8240  0.6808
13441TIP3   OH261813   5.768   2.627   1.123  0.4215 -0.2355 -0.1662
13441TIP3    H161814   5.699   2.636   1.189  0.7790 -0.7684  0.2940
13441TIP3    H261815   5.747   2.693   1.057  1.9186  2.8125  2.0935
13442TIP3   OH261816   4.727   4.857  14.855  0.1458  0.7551 -0.2247
13442TIP3    H161817   4.654   4.892  14.803 -0.3953  1.0062  0.6707
13442TIP3    H261818   4.805   4.873  14.802 -0.5759 -0.7769 -1.8340
13443TIP3   OH261819   3.261   3.709   1.449 -0.2313  0.0053  0.0001
13443TIP3    H161820   3.342   3.758   1.431  0.5362 -0.8293  1.0269
13443TIP3    H261821   3.291   3.627   1.487 -1.5145 -1.1649 -1.4023
13444TIP3   OH261822   5.012   2.887  13.212  0.4095 -0.2376 -0.1570
13444TIP3    H161823   5.067   2.966  13.216  0.0961 -0.0512  0.9218
13444TIP3    H261824   4.974   2.888  13.124 -0.7575  1.6300  0.3112
13445TIP3   OH261825   6.388   0.313  16.695  0.3988  0.1787  0.4417
13445TIP3    H161826   6.402   0.228  16.736  1.3711  0.5690  0.9494
13445TIP3    H261827   6.315   0.352  16.744 -1.2693 -1.0538 -0.9356
13446TIP3   OH261828   4.333   1.238   1.277 -0.3406 -0.0835  0.5517
13446TIP3    H161829   4.240   1.258   1.265 -0.5994  0.3456  2.7978
13446TIP3    H261830   4.372   1.254   1.192 -2.1173  0.9268 -0.1345
13447TIP3   OH261831   2.156   1.984   4.227  0.4646  0.1151 -0.3842
13447TIP3    H161832   2.122   2.070   4.251  0.3099  0.1308 -0.6483
13447TIP3    H261833   2.212   2.001   4.151  1.2507  0.1202  0.1880
13448TIP3   OH261834   1.408   0.996   1.751 -0.2396  0.1752  0.1265
13448TIP3    H161835   1.321   1.021   1.781  0.2260  1.4327  0.4797
13448TIP3    H261836   1.467   1.025   1.822  0.4842 -0.5120 -0.1763
13449TIP3   OH261837   3.827   6.492   4.913  0.1802 -0.5860  0.3682
13449TIP3    H161838   3.842   6.565   4.973  0.4650 -1.2908  1.1690
13449TIP3    H261839   3.740   6.460   4.935 -0.7599  0.7018 -1.2874
13450TIP3   OH261840   6.064   4.378  11.396 -0.3822  0.4181  0.2158
13450TIP3    H161841   6.097   4.314  11.333 -0.1496 -0.5038  1.2436
13450TIP3    H261842   6.006   4.434  11.345  1.5676  1.1704 -1.3406
13451TIP3   OH261843   4.280   3.164  14.959  0.1965  0.1175 -0.1086
13451TIP3    H161844   4.355   3.125  14.915  0.5235  1.5807 -0.9211
13451TIP3    H261845   4.314   3.192  15.044  0.3582  0.0267 -0.1428
13452TIP3   OH261846   1.092   6.416   1.160 -0.4799  0.1013  0.3305
13452TIP3    H161847   1.102   6.499   1.113  0.2508 -0.3720 -0.3673
13452TIP3    H261848   1.171   6.366   1.139  0.3528  0.2341  2.8518
13453TIP3   OH261849   6.204   5.970  16.243 -0.0947  0.5808 -0.1705
13453TIP3    H161850   6.296   5.997  16.247 -0.0601  0.3051  1.2976
13453TIP3    H261851   6.155   6.048  16.271 -0.2505  0.4634 -0.1115
13454TIP3   OH261852   1.119   2.157   2.802  0.0845  0.5545  0.2314
13454TIP3    H161853   1.043   2.179   2.856 -1.1659 -1.7546 -0.4605
13454TIP3    H261854   1.142   2.240   2.758 -1.7368  1.4174  0.8131
13455TIP3   OH261855   4.089   5.630  15.809 -0.5158  0.2586 -0.2605
13455TIP3    H161856   4.110   5.573  15.736 -0.7479  1.0192 -0.9351
13455TIP3    H261857   4.161   5.694  15.811 -1.1059  0.9517 -0.5820
13456TIP3   OH261858   4.881   0.465  15.956  0.1495  0.2299  0.5065
13456TIP3    H161859   4.840   0.384  15.926  0.4032  0.0444  0.6554
13456TIP3    H261860   4.810   0.529  15.958 -0.3009 -0.2740  1.4650
13457TIP3   OH261861   3.832   6.790   2.004 -0.0904 -0.3148  0.2288
13457TIP3    H161862   3.926   6.779   1.989  0.0595 -0.9743  1.5117
13457TIP3    H261863   3.809   6.869   1.956  1.0907 -0.2265 -0.2186
13458TIP3   OH261864   4.501   1.152  10.832  0.5686 -0.2966 -0.5165
13458TIP3    H161865   4.513   1.247  10.825 -0.9350 -0.2002 -2.5535
13458TIP3    H261866   4.535   1.117  10.750 -0.3490 -1.3622 -0.4607
13459TIP3   OH261867   5.386   4.246   5.387 -0.0544 -0.1606 -0.2447
13459TIP3    H161868   5.295   4.220   5.370  0.6155 -1.3920 -2.4218
13459TIP3    H261869   5.395   4.330   5.342  0.2068 -0.7008 -1.2431
13460TIP3   OH261870   5.881   5.724  14.300  0.1553 -0.3303 -0.0908
13460TIP3    H161871   5.923   5.787  14.242  0.9057  0.0781  0.8627
13460TIP3    H261872   5.877   5.768  14.385  0.9233 -1.6337  0.6701
13461TIP3   OH261873   5.246   4.898  13.289 -0.1794  0.2849 -0.0530
13461TIP3    H161874   5.162   4.944  13.283 -0.4373 -0.0475  0.8551
13461TIP3    H261875   5.309   4.959  13.250 -0.6191  1.1257  0.5209
13462TIP3   OH261876   0.738   5.229  10.916  0.1675  0.3402 -0.6124
13462TIP3    H161877   0.685   5.163  10.961  1.8732 -1.5184 -1.2187
13462TIP3    H261878   0.820   5.233  10.966  0.1472  1.9822 -0.6379
13463TIP3   OH261879   1.430   5.154   5.888 -0.1564 -0.3437 -0.2149
13463TIP3    H161880   1.399   5.190   5.971 -1.4843  0.5394 -1.0604
13463TIP3    H261881   1.517   5.119   5.908 -0.1982  0.3951  1.3946
13464TIP3   OH261882   5.069   6.063  15.847 -0.0234 -0.1905  1.0330
13464TIP3    H161883   5.046   6.142  15.799  0.7403  0.7016  2.0567
13464TIP3    H261884   5.155   6.038  15.813 -0.8760 -1.4561 -0.3021
13465TIP3   OH261885   0.754   1.138  16.675 -0.7006 -0.4369  0.2540
13465TIP3    H161886   0.817   1.082  16.631 -1.4228  0.1519 -1.6375
13465TIP3    H261887   0.697   1.078  16.724  0.4333 -1.0696  0.8196
13466TIP3   OH261888   2.716   3.370   1.623  0.0229  0.6240 -0.0601
13466TIP3    H161889   2.732   3.345   1.714  1.8406  0.5502 -0.3535
13466TIP3    H261890   2.652   3.306   1.591  2.7343 -2.3858 -0.0953
13467TIP3   OH261891   4.000   5.845  14.288  0.3101 -0.0434 -0.3002
13467TIP3    H161892   4.012   5.885  14.202 -0.5437 -0.2753 -0.5317
13467TIP3    H261893   4.004   5.751  14.271  0.6702 -0.0828 -0.0047
13468TIP3   OH261894   6.884   1.800  13.794  0.1016 -0.0046 -0.2974
13468TIP3    H161895   6.872   1.893  13.814 -0.2182 -0.1451  0.1757
13468TIP3    H261896   6.804   1.758  13.825  0.4120 -0.4987 -0.1493
13469TIP3   OH261897   2.759   0.466  16.585 -0.0963  0.0281  0.4543
13469TIP3    H161898   2.755   0.415  16.504  1.4697  0.4749  0.0620
13469TIP3    H261899   2.852   0.481  16.599 -0.3244 -0.2102  2.4704
13470TIP3   OH261900   1.889   0.163  14.216 -0.5271 -0.4195 -0.5587
13470TIP3    H161901   1.976   0.127  14.200 -0.6923 -0.1783 -2.1641
13470TIP3    H261902   1.851   0.105  14.282 -0.1747 -2.2538 -1.8704
13471TIP3   OH261903   0.569   2.758  11.845 -0.2793  0.2508 -0.3716
13471TIP3    H161904   0.523   2.708  11.778 -1.0877  0.3884  0.0580
13471TIP3    H261905   0.656   2.773  11.809 -0.2491 -0.8594 -0.8008
13472TIP3   OH261906   2.482   3.844   6.114  0.1208  0.2013 -0.1196
13472TIP3    H161907   2.575   3.862   6.098 -0.1753  1.4295 -0.6271
13472TIP3    H261908   2.444   3.930   6.130 -1.2829 -0.0070 -1.9444
13473TIP3   OH261909   3.779   1.166   0.328 -0.0550  0.0340  0.7647
13473TIP3    H161910   3.752   1.096   0.269  2.1808  1.0232 -1.6109
13473TIP3    H261911   3.715   1.235   0.314  0.5452  0.3248 -0.6970
13474TIP3   OH261912   6.806   6.182  14.836  0.5272  0.7364 -0.4722
13474TIP3    H161913   6.787   6.155  14.926  1.3065  0.0658 -0.4931
13474TIP3    H261914   6.897   6.156  14.823  0.2321  0.2450 -1.6569
13475TIP3   OH261915   3.739   0.778   3.091  0.2122 -0.0720 -0.6179
13475TIP3    H161916   3.748   0.701   3.036 -1.6495  0.3249 -1.5772
13475TIP3    H261917   3.657   0.819   3.062  0.4712  1.5487  0.7430
13476TIP3   OH261918   6.766   5.187   2.682  0.5162 -0.0274 -0.1855
13476TIP3    H161919   6.717   5.263   2.651 -0.3502 -1.1220 -1.6280
13476TIP3    H261920   6.745   5.117   2.619  1.6972 -1.3201  0.7838
13477TIP3   OH261921   1.460   1.300  12.777  1.0469  0.0364 -0.4313
13477TIP3    H161922   1.496   1.235  12.837 -0.3077  1.0812  1.6529
13477TIP3    H261923   1.490   1.384  12.812  0.7079  0.6555 -1.5871
13478TIP3   OH261924   0.368   2.301   4.882 -0.6413 -0.2650 -0.0826
13478TIP3    H161925   0.348   2.391   4.855  3.3336  0.9598  0.3096
13478TIP3    H261926   0.365   2.304   4.977 -0.8828 -0.6413 -0.0810
13479TIP3   OH261927   5.639   6.184   1.277 -0.0026 -0.2347 -0.1739
13479TIP3    H161928   5.666   6.256   1.220  0.4140 -0.8106 -0.7296
13479TIP3    H261929   5.687   6.108   1.243 -0.1040 -0.6829  0.6682
13480TIP3   OH261930   0.915   1.669   2.493  0.0694  0.5841  0.2752
13480TIP3    H161931   0.918   1.747   2.437 -1.4667  0.0835 -0.5444
13480TIP3    H261932   0.834   1.680   2.544  0.1952 -0.1537  0.6350
13481TIP3   OH261933   5.742   2.326  15.742 -0.0240  0.0222 -0.0434
13481TIP3    H161934   5.679   2.362  15.803  0.8940  1.7732 -0.0659
13481TIP3    H261935   5.749   2.392  15.673  3.5891  1.1526  1.1692
13482TIP3   OH261936   3.086   0.127   6.362 -0.2257  0.0785  0.0785
13482TIP3    H161937   3.083   0.185   6.286  0.7057 -0.0003 -0.0322
13482TIP3    H261938   3.105   0.040   6.326 -1.3135 -0.2556  0.2713
13483TIP3   OH261939   0.134   1.808  14.884  0.4687  0.3511 -0.0981
13483TIP3    H161940   0.105   1.725  14.924 -0.5725  0.0767 -1.3630
13483TIP3    H261941   0.173   1.857  14.957  0.9581 -1.1753  0.7068
13484TIP3   OH261942   0.180   4.754   1.551  0.4146 -0.3541 -0.5487
13484TIP3    H161943   0.174   4.787   1.461  0.7261 -2.5925 -1.4565
13484TIP3    H261944   0.128   4.816   1.602  1.1324  1.6090 -2.0526
13485TIP3   OH261945   3.934   0.211   1.372  0.1926 -0.3582 -0.2661
13485TIP3    H161946   3.911   0.213   1.465  0.2166 -1.8173 -0.1972
13485TIP3    H261947   3.852   0.231   1.327  0.0046 -0.3658  0.0671
13486TIP3   OH261948   3.196   6.836   1.676  0.5064  0.6403 -0.3623
13486TIP3    H161949   3.120   6.835   1.618  0.1296 -1.7864  0.0712
13486TIP3    H261950   3.189   6.919   1.724 -0.5764  1.5041 -1.9200
13487TIP3   OH261951   1.569   6.039   1.742 -0.1812  0.1469  0.5054
13487TIP3    H161952   1.527   6.124   1.729  0.0164  0.1356 -0.2136
13487TIP3    H261953   1.631   6.055   1.813 -0.5838  0.4461  0.7998
13488TIP3   OH261954   3.013   0.124  14.301 -0.3036  0.5633  0.5803
13488TIP3    H161955   3.070   0.048  14.287 -0.4685  0.6033 -0.4500
13488TIP3    H261956   2.981   0.114  14.390  1.6346  0.7575  1.3463
13489TIP3   OH261957   1.736   3.527   5.707  0.2416  0.2668  0.1356
13489TIP3    H161958   1.736   3.578   5.788 -0.6633 -1.2968  1.1657
13489TIP3    H261959   1.799   3.456   5.723 -0.4483 -0.4433 -0.2619
13490TIP3   OH261960   4.538   6.698   1.537 -0.4629 -0.0565 -0.3951
13490TIP3    H161961   4.616   6.716   1.485  1.5941 -0.7838  2.2243
13490TIP3    H261962   4.561   6.621   1.589 -3.2366 -0.7478 -0.0446
13491TIP3   OH261963   6.142   0.073   1.843 -0.1477  0.2431 -0.0783
13491TIP3    H161964   6.075   0.110   1.787  0.0978  0.7268 -0.0555
13491TIP3    H261965   6.225   0.096   1.800  0.0372  0.5321  0.4300
13492TIP3   OH261966   6.869   1.266  13.918 -0.0325 -0.3052  0.1106
13492TIP3    H161967   6.863   1.333  13.850 -1.2450  1.4408  1.8271
13492TIP3    H261968   6.926   1.304  13.985 -0.1705 -1.2835  0.8160
13493TIP3   OH261969   1.328   5.321  14.160  0.4547 -0.1372 -0.5451
13493TIP3    H161970   1.341   5.394  14.220  1.8141  1.2753 -2.4354
13493TIP3    H261971   1.270   5.355  14.092 -0.5481 -1.4934 -0.4224
13494TIP3   OH261972   3.372   5.498   2.963  0.0987 -0.3408  0.0539
13494TIP3    H161973   3.425   5.428   3.001  0.4109  0.1808  0.5996
13494TIP3    H261974   3.430   5.574   2.962  0.1928 -0.4033 -1.7653
13495TIP3   OH261975   4.789   5.578  11.745  0.4900 -0.7886 -0.3056
13495TIP3    H161976   4.721   5.606  11.683 -0.6244 -1.6737  0.4961
13495TIP3    H261977   4.788   5.646  11.813  0.1261 -0.9956 -0.0982
13496TIP3   OH261978   3.846   6.575  11.384 -0.2192  0.1069 -0.5377
13496TIP3    H161979   3.934   6.561  11.349 -0.5715 -0.1894 -1.3435
13496TIP3    H261980   3.806   6.487  11.383 -0.4555  0.2033  0.0110
13497TIP3   OH261981   1.353   3.035   4.710  0.2317  0.9380  0.2575
13497TIP3    H161982   1.291   3.031   4.637  1.3749  1.5337 -0.7714
13497TIP3    H261983   1.393   2.948   4.713  0.2773  0.9542  0.0975
13498TIP3   OH261984   5.388   1.838   5.347  0.1269  0.4542  0.0672
13498TIP3    H161985   5.391   1.812   5.255  1.0955 -1.8615  0.6958
13498TIP3    H261986   5.328   1.913   5.349 -1.5258 -0.7092 -2.1456
13499TIP3   OH261987   5.342   3.141  15.340  0.6591  0.1055 -0.2323
13499TIP3    H161988   5.320   3.123  15.431  0.4801  1.0199 -0.0821
13499TIP3    H261989   5.321   3.060  15.293  0.1061 -0.1420  0.4365
13500TIP3   OH261990   6.368   3.374  14.855 -0.0448  0.3661 -0.4793
13500TIP3    H161991   6.369   3.464  14.823 -2.2148  0.8241  0.5244
13500TIP3    H261992   6.376   3.321  14.776  0.4794  1.4320 -1.1739
13501TIP3   OH261993   0.115   0.391  10.682 -0.3161  0.4834  0.3885
13501TIP3    H161994   0.136   0.379  10.589  0.5488  1.1216  0.4974
13501TIP3    H261995   0.023   0.418  10.681 -0.1468  1.0761 -0.3242
13502TIP3   OH261996   2.203   3.505   3.874  0.4906  0.8462 -0.0866
13502TIP3    H161997   2.267   3.512   3.802 -1.6319  3.1647 -1.9097
13502TIP3    H261998   2.255   3.518   3.953  3.1355 -2.8772 -0.9064
13503TIP3   OH261999   1.654   5.039   1.923 -0.0121 -0.1127 -0.3844
13503TIP3    H162000   1.664   4.949   1.953  2.9396  0.4552  0.6852
13503TIP3    H262001   1.671   5.035   1.829  0.7052 -0.5967 -0.2391
13504TIP3   OH262002   6.762   1.140   5.186  0.3258 -0.1537  0.8143
13504TIP3    H162003   6.795   1.183   5.107  1.7390  0.0270  1.4757
13504TIP3    H262004   6.804   1.187   5.259  0.7822 -1.7095  1.5967
13505TIP3   OH262005   5.786   2.232   2.808  0.2678 -0.2316 -0.8132
13505TIP3    H162006   5.768   2.278   2.727 -2.5961 -1.3513 -0.9233
13505TIP3    H262007   5.849   2.164   2.784  3.1641  2.2752 -0.9919
13506TIP3   OH262008   4.354   1.823   1.150  0.3103 -0.3467 -0.1863
13506TIP3    H162009   4.442   1.854   1.130  0.8669 -2.0910 -0.6704
13506TIP3    H262010   4.355   1.807   1.245  0.3392  0.1256 -0.1061
13507TIP3   OH262011   3.459   2.341   5.250  0.1879  0.0255 -0.7803
13507TIP3    H162012   3.502   2.396   5.315 -2.3402  0.4751  0.6564
13507TIP3    H262013   3.422   2.403   5.187 -2.5987  0.1651  0.7973
13508TIP3   OH262014   0.342   5.166   1.493  0.3417  0.3494  0.4699
13508TIP3    H162015   0.393   5.086   1.507  0.0401 -0.2021 -1.3798
13508TIP3    H262016   0.257   5.135   1.464 -0.0778  1.3429  0.5991
13509TIP3   OH262017   1.987   1.007  10.943  0.0433  0.3247 -0.4942
13509TIP3    H162018   1.901   1.018  10.903 -0.3359 -0.9857 -0.1097
13509TIP3    H262019   1.976   0.933  11.003  1.4937 -0.0340 -0.6332
13510TIP3   OH262020   5.583   1.808   3.103  0.5455  0.1116 -0.8022
13510TIP3    H162021   5.491   1.794   3.125  0.9576 -0.1510  0.9030
13510TIP3    H262022   5.608   1.731   3.052 -0.1329  0.1058 -1.1335
13511TIP3   OH262023   3.241   3.750   3.695 -0.3013 -0.3941 -0.3667
13511TIP3    H162024   3.275   3.773   3.782  0.9156 -1.1322 -0.6199
13511TIP3    H262025   3.262   3.826   3.641 -2.2468  0.6300  0.2488
13512TIP3   OH262026   1.803   2.753  14.169 -0.0323 -0.2974 -0.0266
13512TIP3    H162027   1.724   2.807  14.171 -0.1490 -0.4725  0.1325
13512TIP3    H262028   1.821   2.740  14.076 -0.5443 -0.7672 -0.0640
13513TIP3   OH262029   5.433   6.209   0.222 -0.0755 -0.1215 -0.0174
13513TIP3    H162030   5.398   6.245   0.140  0.4759 -1.6503 -0.9840
13513TIP3    H262031   5.383   6.128   0.235 -1.7030  1.1548  2.3927
13514TIP3   OH262032   4.045   4.172   3.967 -0.4643  0.0074 -0.2122
13514TIP3    H162033   4.133   4.176   4.004 -0.7222  0.0786  0.4204
13514TIP3    H262034   4.010   4.088   3.997 -0.8836  0.3216  0.2017
13515TIP3   OH262035   4.572   4.054   3.857 -0.2639  0.1710 -0.0562
13515TIP3    H162036   4.661   4.034   3.887 -0.7061 -0.4361  0.9189
13515TIP3    H262037   4.530   3.968   3.849 -0.8304  0.4676 -0.2651
13516TIP3   OH262038   5.896   5.949  10.509  0.2475  0.0826 -0.0190
13516TIP3    H162039   5.880   6.043  10.516 -0.7482  0.1854 -2.6229
13516TIP3    H262040   5.858   5.924  10.425  1.6485 -2.4260 -0.0170
13517TIP3   OH262041   2.797   0.836  13.801  0.0668  0.1855 -0.1943
13517TIP3    H162042   2.703   0.857  13.804  0.4287  1.8671  1.9729
13517TIP3    H262043   2.830   0.885  13.726 -0.8097 -0.6910 -1.1883
13518TIP3   OH262044   1.330   6.493  11.927 -0.5405  0.2372  0.1418
13518TIP3    H162045   1.258   6.472  11.987  0.4057 -1.0495  0.8683
13518TIP3    H262046   1.331   6.589  11.924 -1.3213  0.3091  1.3186
13519TIP3   OH262047   1.980   0.499   5.123  0.4835  0.7327 -0.1562
13519TIP3    H162048   2.049   0.460   5.176 -0.9248  0.8084  1.8456
13519TIP3    H262049   2.003   0.592   5.119  1.9206  0.3381 -1.8625
13520TIP3   OH262050   6.342   5.080  12.070 -0.1317 -0.2793  0.0509
13520TIP3    H162051   6.360   4.989  12.046  1.6411 -0.0122  0.2449
13520TIP3    H262052   6.250   5.094  12.045 -0.4553 -2.1291  0.1004
13521TIP3   OH262053   4.451   5.575   2.838  0.4131  0.4752 -0.2497
13521TIP3    H162054   4.425   5.644   2.899 -1.3204 -1.7009  1.6284
13521TIP3    H262055   4.540   5.554   2.863  0.7246  1.5272 -0.4020
13522TIP3   OH262056   5.264   5.794  11.809 -0.3989 -0.1473  0.1374
13522TIP3    H162057   5.303   5.791  11.721 -2.3473  1.4222 -0.8678
13522TIP3    H262058   5.338   5.816  11.867  0.6736  0.2544 -1.3066
13523TIP3   OH262059   0.330   0.374   1.987 -0.3237  0.1144 -0.4380
13523TIP3    H162060   0.279   0.298   2.014 -0.5490  0.7399  1.0243
13523TIP3    H262061   0.311   0.440   2.054  0.2762  1.2776 -1.3795
13524TIP3   OH262062   2.880   2.586  10.687 -0.5111 -0.0922  0.3550
13524TIP3    H162063   2.942   2.599  10.615 -0.8995  0.7657  0.1726
13524TIP3    H262064   2.866   2.491  10.688  0.0016 -0.1882 -0.2733
13525TIP3   OH262065   4.063   4.588  14.082  0.2591 -0.6151 -0.3731
13525TIP3    H162066   4.022   4.548  14.006 -1.7640  0.2871  0.1717
13525TIP3    H262067   4.046   4.682  14.071 -0.2646 -0.4884  1.2595
13526TIP3   OH262068   0.695   3.212   3.681  0.0029  0.4807  0.1335
13526TIP3    H162069   0.715   3.127   3.642  2.5184  0.0119  2.1550
13526TIP3    H262070   0.719   3.276   3.613  0.3053 -0.3738 -0.5788
13527TIP3   OH262071   6.332   0.460   4.131 -0.1843 -0.0759 -0.1524
13527TIP3    H162072   6.415   0.443   4.175 -1.1301 -0.1726  1.7108
13527TIP3    H262073   6.322   0.388   4.070  1.0059 -0.1645 -0.2624
13528TIP3   OH262074   4.156   6.671  11.103 -0.4455 -0.3059  0.4372
13528TIP3    H162075   4.069   6.663  11.063 -1.0971  1.9107  1.2880
13528TIP3    H262076   4.138   6.689  11.195  0.9772 -0.9779  0.8745
13529TIP3   OH262077   3.664   2.141  11.089  0.3643  0.6728  0.4395
13529TIP3    H162078   3.596   2.170  11.149 -0.5079  1.6563 -0.9618
13529TIP3    H262079   3.676   2.215  11.029  2.6297  0.5201  0.5831
13530TIP3   OH262080   1.881   3.610  11.653  0.1000  0.1011 -0.0740
13530TIP3    H162081   1.821   3.539  11.674  2.4668 -1.7827  0.7161
13530TIP3    H262082   1.890   3.659  11.735 -0.0177  0.1394 -0.0836
13531TIP3   OH262083   0.274   5.388   2.356 -0.1614 -0.2956  0.4996
13531TIP3    H162084   0.228   5.314   2.316  1.3797 -0.6096 -0.7984
13531TIP3    H262085   0.244   5.465   2.307 -0.0052 -0.3758  0.2786
13532TIP3   OH262086   5.407   6.154  10.827 -0.3172 -0.0132 -0.4067
13532TIP3    H162087   5.390   6.119  10.915 -0.7578 -1.6143 -1.1009
13532TIP3    H262088   5.320   6.175  10.793 -0.5316 -2.5682 -1.6836
13533TIP3   OH262089   6.483   1.958   3.954  0.4404  0.0936 -0.2977
13533TIP3    H162090   6.423   1.885   3.942 -0.3819  0.6746  0.1878
13533TIP3    H262091   6.487   2.001   3.869 -0.2925  0.3956 -0.1799
13534TIP3   OH262092   6.686   6.119  14.590  0.0022 -0.0099 -0.3978
13534TIP3    H162093   6.702   6.116  14.685 -0.8605 -0.3791 -0.2503
13534TIP3    H262094   6.763   6.078  14.552  1.1728  1.7262  0.0228
13535TIP3   OH262095   4.698   4.523   3.041 -0.0616 -0.8031 -0.0636
13535TIP3    H162096   4.610   4.529   3.077  0.4711 -0.5766  1.3002
13535TIP3    H262097   4.742   4.458   3.096  1.1464  0.4290  0.5143
13536TIP3   OH262098   4.360   4.327   5.337 -0.6869  0.3435 -0.0860
13536TIP3    H162099   4.312   4.408   5.355  2.7862  2.1552  2.1662
13536TIP3    H262100   4.419   4.350   5.265 -0.7157 -0.7346 -0.4768
13537TIP3   OH262101   2.200   4.011  14.581  0.2631  0.4757 -0.2569
13537TIP3    H162102   2.268   3.995  14.516  1.5047  1.6508  0.7046
13537TIP3    H262103   2.206   4.104  14.600  1.8625 -0.2093  3.5279
13538TIP3   OH262104   4.500   0.426   3.942  0.7522 -0.0327 -0.4790
13538TIP3    H162105   4.500   0.330   3.941 -0.5226 -0.1600  2.0677
13538TIP3    H262106   4.583   0.451   3.901  2.0251 -2.2943  0.5537
13539TIP3   OH262107   3.960   1.644  12.786 -0.3546 -0.5813  0.2235
13539TIP3    H162108   4.056   1.637  12.786 -0.4516 -2.4879 -0.2340
13539TIP3    H262109   3.942   1.717  12.726  0.7949 -0.7193 -0.3328
13540TIP3   OH262110   3.297   6.087   9.765  0.1182 -0.0941  0.2880
13540TIP3    H162111   3.211   6.054   9.793 -0.0346 -0.0155 -0.0815
13540TIP3    H262112   3.355   6.011   9.770 -0.1961 -0.3908 -0.4031
13541TIP3   OH262113   2.495   5.315   2.531 -0.3877 -0.0381 -0.3255
13541TIP3    H162114   2.580   5.274   2.549 -0.7029 -1.2477 -1.4320
13541TIP3    H262115   2.450   5.314   2.615 -0.1835 -1.5655 -0.1904
13542TIP3   OH262116   5.876   6.433  10.440  0.0303  0.9087  0.4652
13542TIP3    H162117   5.804   6.374  10.459  0.5807  0.6776  1.9487
13542TIP3    H262118   5.937   6.381  10.389 -0.3489  0.7870  0.1285
13543TIP3   OH262119   4.948   5.395  16.163 -0.2093  0.0180 -0.2010
13543TIP3    H162120   5.036   5.357  16.163  0.1271  0.5686 -3.0380
13543TIP3    H262121   4.956   5.474  16.217  1.6209  1.1399 -1.9631
13544TIP3   OH262122   2.800   4.776  14.098 -0.0917 -0.1006  0.0474
13544TIP3    H162123   2.812   4.764  14.192 -0.1417  1.1626  0.2327
13544TIP3    H262124   2.820   4.869  14.083  0.2154 -0.3521 -1.2366
13545TIP3   OH262125   4.209   0.301  14.905 -0.6440 -0.1812  0.6426
13545TIP3    H162126   4.276   0.363  14.936 -0.2329 -0.8616  1.1569
13545TIP3    H262127   4.253   0.216  14.909 -1.9633 -0.8401  2.3556
13546TIP3   OH262128   4.707   6.111  11.130 -0.0365 -0.0862 -0.2174
13546TIP3    H162129   4.731   6.204  11.138  0.3378 -0.0490 -1.5395
13546TIP3    H262130   4.782   6.070  11.088  0.8912 -1.5404  2.6000
13547TIP3   OH262131   1.822   2.726  13.873 -0.0162  0.1969  0.2273
13547TIP3    H162132   1.911   2.762  13.880 -0.7103  2.1332 -0.3499
13547TIP3    H262133   1.834   2.644  13.825  1.5653 -0.0180  0.9265
13548TIP3   OH262134   3.962   0.106  13.203 -0.5796  0.1308  0.1223
13548TIP3    H162135   3.997   0.116  13.291  1.6328 -0.3068 -0.6477
13548TIP3    H262136   3.968   0.194  13.165 -0.1404  0.0317 -0.0490
13549TIP3   OH262137   0.916   4.779   3.689  0.4979 -0.2928 -0.2483
13549TIP3    H162138   1.006   4.780   3.721 -0.4164  0.5357  2.6061
13549TIP3    H262139   0.879   4.698   3.724 -0.4032  0.3715  0.3898
13550TIP3   OH262140   1.601   4.009   5.681  0.0725  0.3711  0.3383
13550TIP3    H162141   1.548   4.075   5.727  0.2968  0.6567  0.1959
13550TIP3    H262142   1.641   3.958   5.751 -0.7860 -0.1773  0.4465
13551TIP3   OH262143   3.551   5.310   3.046 -0.1743 -0.2764  0.3317
13551TIP3    H162144   3.607   5.336   3.118  0.8515 -1.9401  0.1835
13551TIP3    H262145   3.610   5.268   2.983 -1.3279 -0.5254 -0.6263
13552TIP3   OH262146   6.766   4.139  11.186 -0.3163  0.0831 -0.2913
13552TIP3    H162147   6.678   4.104  11.170  0.2180 -1.1592 -0.6658
13552TIP3    H262148   6.802   4.156  11.099  0.4344 -1.0817 -0.2334
13553TIP3   OH262149   5.144   4.993  12.214  0.1294  0.3446  0.0916
13553TIP3    H162150   5.062   5.019  12.172  0.9485  0.7878 -1.2872
13553TIP3    H262151   5.116   4.950  12.295 -1.4640  0.4181 -0.3752
13554TIP3   OH262152   6.077   6.046   2.874  0.0892 -0.2619  0.4267
13554TIP3    H162153   6.022   6.039   2.953  0.3248  0.5013  0.6602
13554TIP3    H262154   6.121   6.130   2.882  0.0418 -0.1299 -0.5773
13555TIP3   OH262155   6.669   3.083  16.100 -0.2233 -0.1595 -0.5230
13555TIP3    H162156   6.754   3.062  16.141 -0.1983  0.0182 -0.4826
13555TIP3    H262157   6.650   3.172  16.130 -1.3817 -0.9037  1.0914
13556TIP3   OH262158   1.609   5.142  12.353 -0.2910  0.4472 -0.2637
13556TIP3    H162159   1.580   5.184  12.434 -1.3471 -0.1773 -0.2904
13556TIP3    H262160   1.656   5.210  12.306  1.2070  0.5611  1.2914
13557TIP3   OH262161   3.678   0.804  11.479  0.4871  0.3026  0.6232
13557TIP3    H162162   3.604   0.744  11.474  0.8543 -0.2527  1.5200
13557TIP3    H262163   3.742   0.759  11.534  1.1153  1.1633  0.6250
13558TIP3   OH262164   0.971   4.951   1.888 -0.1422 -0.6970  0.0680
13558TIP3    H162165   1.062   4.945   1.858  0.8375  2.7729  1.8849
13558TIP3    H262166   0.936   5.028   1.845 -1.2850 -0.3358  1.5521
13559TIP3   OH262167   6.324   0.448   0.058 -0.3277  0.2596  0.2874
13559TIP3    H162168   6.361   0.535   0.075 -1.3044  0.3372  2.2639
13559TIP3    H262169   6.392   0.387   0.085  0.0235  0.3955 -0.2725
13560TIP3   OH262170   0.654   2.995  12.285  0.0806 -0.2253  0.3578
13560TIP3    H162171   0.561   2.978  12.295 -0.1258 -0.2691 -1.2558
13560TIP3    H262172   0.691   2.911  12.258  0.7890 -0.4667  1.9756
13561TIP3   OH262173   5.087   1.455   0.474  0.4511  0.0209  0.0991
13561TIP3    H162174   5.159   1.394   0.485  0.9987  0.5892 -0.2412
13561TIP3    H262175   5.060   1.478   0.563 -0.9234 -2.0162  0.2829
13562TIP3   OH262176   2.376   1.699  14.106  0.3475  0.1741 -0.8045
13562TIP3    H162177   2.339   1.782  14.076 -1.3982 -0.3375 -0.1807
13562TIP3    H262178   2.301   1.641  14.117  1.4676 -1.3238 -0.6544
13563TIP3   OH262179   0.731   3.641   5.415  0.1027 -0.2959 -0.1092
13563TIP3    H162180   0.807   3.587   5.395 -0.9657 -1.3984 -1.3735
13563TIP3    H262181   0.762   3.702   5.482  3.2959  2.1084 -3.3650
13564TIP3   OH262182   6.388   1.552   0.190 -0.2086  0.0991  0.3470
13564TIP3    H162183   6.382   1.567   0.285 -1.5172  1.5307  0.0765
13564TIP3    H262184   6.369   1.458   0.180 -0.8865  0.0894  1.4512
13565TIP3   OH262185   4.451   6.105  16.554 -0.5053  0.4179  0.3544
13565TIP3    H162186   4.508   6.177  16.583 -0.9774  0.9516 -0.0258
13565TIP3    H262187   4.467   6.099  16.459 -3.0242  2.3547 -0.2770
13566TIP3   OH262188   2.454   4.170   5.774  0.4214  0.2139 -0.0151
13566TIP3    H162189   2.428   4.172   5.867  1.3722  2.8496  0.3043
13566TIP3    H262190   2.517   4.099   5.768  0.8124  0.3918  1.5226
13567TIP3   OH262191   3.230   3.289   1.122 -0.1605 -0.0125  0.0209
13567TIP3    H162192   3.179   3.352   1.072  0.9502 -0.1247 -1.2844
13567TIP3    H262193   3.284   3.342   1.180 -0.6417  0.1511  0.3302
13568TIP3   OH262194   2.887   4.367   3.764  0.1877 -0.1513  0.0042
13568TIP3    H162195   2.880   4.279   3.801  0.9939 -0.4072 -0.4413
13568TIP3    H262196   2.938   4.416   3.829  1.5917 -0.5971 -0.7374
13569TIP3   OH262197   1.962   5.683   2.712 -0.1807 -0.3291 -0.0389
13569TIP3    H162198   1.871   5.707   2.692  0.3938  0.5139 -1.8312
13569TIP3    H262199   1.970   5.594   2.678 -0.0985 -0.0585 -0.7580
13570TIP3   OH262200   4.734   4.463  15.413  0.0800 -0.2966 -0.2563
13570TIP3    H162201   4.822   4.445  15.446  0.2102  0.4755 -0.1471
13570TIP3    H262202   4.733   4.558  15.398 -1.4042  0.1152  1.8297
13571TIP3   OH262203   2.202   2.424   1.100  0.6606  0.5418 -0.1631
13571TIP3    H162204   2.224   2.334   1.122 -0.5485  0.0638 -0.7958
13571TIP3    H262205   2.285   2.472   1.106  1.4242 -0.7210 -0.4151
13572TIP3   OH262206   2.832   3.174  10.462  0.2470  0.0760  0.4290
13572TIP3    H162207   2.756   3.117  10.475  1.1918 -1.3152  0.0972
13572TIP3    H262208   2.839   3.183  10.367 -0.5092  1.6523  0.4930
13573TIP3   OH262209   2.680   4.381   2.461  0.0826 -0.2864  0.1866
13573TIP3    H162210   2.615   4.381   2.531  1.8891  0.6759  1.9338
13573TIP3    H262211   2.647   4.446   2.398 -1.1563 -0.5945  0.4803
13574TIP3   OH262212   0.573   2.391   2.277 -0.7150 -0.0603  0.3815
13574TIP3    H162213   0.499   2.420   2.331  0.2903  0.0103  1.7824
13574TIP3    H262214   0.632   2.349   2.339  0.0733 -0.7984 -0.8409
13575TIP3   OH262215   1.943   1.919   3.837  0.4087  0.2505 -0.0562
13575TIP3    H162216   1.865   1.931   3.783  0.7361  0.4368 -0.4898
13575TIP3    H262217   2.001   1.991   3.812  0.2918  0.7357  1.0309
13576TIP3   OH262218   1.548   5.299  13.982 -0.1129 -0.1263  0.0342
13576TIP3    H162219   1.468   5.318  14.031  0.3621  0.2570  0.6758
13576TIP3    H262220   1.563   5.206  13.995  0.0522 -0.0119  0.6919
13577TIP3   OH262221   0.018   1.586  13.221 -0.0543  1.1269 -0.3816
13577TIP3    H162222  -0.033   1.647  13.276 -1.4300 -0.1011 -0.2528
13577TIP3    H262223   0.027   1.508  13.275  1.6570  1.1511 -0.5738
13578TIP3   OH262224   4.665   3.590   4.122  0.0403  0.1957 -0.0825
13578TIP3    H162225   4.612   3.669   4.126 -0.2915  0.0697 -1.5001
13578TIP3    H262226   4.602   3.520   4.105  0.4921 -0.1607 -0.3264
13579TIP3   OH262227   4.182   2.784   5.211 -0.2752 -0.1139 -0.7417
13579TIP3    H162228   4.111   2.719   5.216  0.1282 -0.6157 -1.4343
13579TIP3    H262229   4.169   2.827   5.127  0.7296 -0.7902 -1.2597
13580TIP3   OH262230   0.667   0.949  15.987  0.4691  0.5121  0.0030
13580TIP3    H162231   0.611   1.025  16.006  0.5490  0.1998  1.5815
13580TIP3    H262232   0.612   0.893  15.931 -0.8597  0.1767  1.5680
13581TIP3   OH262233   2.506   3.299  12.226  0.2943 -0.0665  0.1425
13581TIP3    H162234   2.565   3.317  12.153 -0.6748 -0.5457 -0.7874
13581TIP3    H262235   2.508   3.203  12.236  1.0912  0.0576  1.3315
13582TIP3   OH262236   4.104   3.303  15.544 -0.1888  0.0949  0.7288
13582TIP3    H162237   4.163   3.233  15.572 -1.2000 -0.9184  0.3876
13582TIP3    H262238   4.087   3.284  15.452 -0.2322  0.9879  0.5427
13583TIP3   OH262239   2.328   1.936   2.257  0.0796 -0.2406 -0.5275
13583TIP3    H162240   2.351   2.027   2.237  0.1157  0.0565  0.7882
13583TIP3    H262241   2.355   1.887   2.180 -1.8855  1.1248 -2.1986
13584TIP3   OH262242   5.915   4.901   1.521 -0.0219  0.3057  0.0059
13584TIP3    H162243   5.927   4.860   1.435 -0.7784 -1.1459  0.5605
13584TIP3    H262244   5.917   4.828   1.583  0.1698  1.2890  1.1989
13585TIP3   OH262245   2.310   1.519   2.653 -0.0656 -0.9053  0.2469
13585TIP3    H162246   2.303   1.566   2.570 -2.4195  1.4258  1.6011
13585TIP3    H262247   2.245   1.449   2.646 -0.8303 -0.2209  0.3750
13586TIP3   OH262248   4.776   3.554  11.425  0.4800 -0.4559  0.5125
13586TIP3    H162249   4.829   3.487  11.469 -1.2942 -0.9311  2.0375
13586TIP3    H262250   4.807   3.637  11.461 -0.0141 -0.7517  1.6418
13587TIP3   OH262251   0.807   3.400   3.876 -0.5432  0.5835  0.1900
13587TIP3    H162252   0.732   3.445   3.837  0.2962  2.1288  0.2699
13587TIP3    H262253   0.811   3.316   3.831 -1.9175  0.7462 -0.2798
13588TIP3   OH262254   1.146   6.280   0.538 -0.2823  0.4608 -0.5073
13588TIP3    H162255   1.115   6.279   0.447  0.3990  2.4401 -0.8202
13588TIP3    H262256   1.128   6.369   0.568 -1.7310 -0.5417  1.7926
13589TIP3   OH262257   5.300   0.900   0.319 -0.0684  0.2438 -0.0188
13589TIP3    H162258   5.363   0.942   0.261 -0.3028  0.3683 -0.1859
13589TIP3    H262259   5.336   0.812   0.334  0.0658  0.2621 -0.2336
13590TIP3   OH262260   4.100   1.278  14.585  0.2441  0.1346 -0.8284
13590TIP3    H162261   4.124   1.365  14.553  0.7720  0.6204  0.7900
13590TIP3    H262262   4.131   1.277  14.676  0.3590 -1.7856 -0.8534
13591TIP3   OH262263   4.715   5.929   2.685  0.9565 -0.4456 -0.0037
13591TIP3    H162264   4.671   5.847   2.662 -0.2767  0.1791  0.0500
13591TIP3    H262265   4.652   5.976   2.739  0.8202  1.4083 -1.6666
13592TIP3   OH262266   5.482   0.022  15.345  0.1871 -0.1552  0.3585
13592TIP3    H162267   5.457   0.114  15.337 -0.2646 -0.3032  0.0008
13592TIP3    H262268   5.483  -0.010  15.255  0.3830 -0.4888  0.4806
13593TIP3   OH262269   6.549   6.110   5.852 -0.5478  0.2386 -0.5978
13593TIP3    H162270   6.460   6.145   5.844 -0.9481 -1.0225 -2.2441
13593TIP3    H262271   6.601   6.183   5.884 -2.0560  1.1779 -0.1909
13594TIP3   OH262272   3.735   2.176  15.215 -0.8542  0.4008 -0.1428
13594TIP3    H162273   3.767   2.174  15.125 -0.4477  1.7590 -0.0571
13594TIP3    H262274   3.679   2.254  15.219 -1.4416 -0.0381  0.6012
13595TIP3   OH262275   2.972   5.079  11.418  0.2719  0.3079 -0.2558
13595TIP3    H162276   3.066   5.071  11.405  0.1923 -1.4300 -0.0062
13595TIP3    H262277   2.948   5.159  11.370  2.1072  1.8147  1.1667
13596TIP3   OH262278   0.666   0.225   4.558  0.4056  0.2411 -0.1067
13596TIP3    H162279   0.666   0.263   4.646  0.8997 -0.2653  0.1186
13596TIP3    H262280   0.633   0.136   4.571  2.1980 -0.4600 -0.1368
13597TIP3   OH262281   3.924   4.933  11.789  0.3787  0.6430  0.1039
13597TIP3    H162282   3.960   5.018  11.816  3.8572 -0.4377 -0.6341
13597TIP3    H262283   3.892   4.948  11.700  0.5758  1.3132  0.1384
13598TIP3   OH262284   6.647   0.749   4.982  0.0476  0.2668  0.0731
13598TIP3    H162285   6.645   0.825   5.040  0.9768 -0.8969  1.7026
13598TIP3    H262286   6.691   0.681   5.033 -0.1439 -1.1666 -1.5901
13599TIP3   OH262287   5.101   5.197  14.689 -0.4957  0.4807  0.4058
13599TIP3    H162288   5.138   5.261  14.628 -0.1089  0.3693  0.5163
13599TIP3    H262289   5.040   5.247  14.743 -1.2016  0.4839 -0.3874
13600TIP3   OH262290   4.120   0.362  12.281  0.4122  0.2697  0.2756
13600TIP3    H162291   4.128   0.281  12.231 -0.1820  0.6660 -0.4947
13600TIP3    H262292   4.031   0.360  12.315 -0.1908  1.3407 -1.1350
13601TIP3   OH262293   4.044   5.710  12.731  0.3656  0.0335  0.0862
13601TIP3    H162294   4.019   5.649  12.799  1.9020  1.8669  2.4614
13601TIP3    H262295   4.109   5.663  12.679 -0.0665 -1.0551  0.5166
13602TIP3   OH262296   6.039   1.708   4.308  0.2746 -0.6107  0.1178
13602TIP3    H162297   6.110   1.697   4.371 -0.6733 -0.2148  1.2907
13602TIP3    H262298   5.959   1.709   4.361 -0.6482 -1.2983 -1.1793
13603TIP3   OH262299   2.405   0.074  12.615 -0.3248 -0.4389  0.1039
13603TIP3    H162300   2.348   0.025  12.674  0.2679 -0.4872  0.6457
13603TIP3    H262301   2.347   0.107  12.547 -0.7598 -1.7769 -0.2031
13604TIP3   OH262302   6.631   0.108  12.506 -0.4622  0.1885  0.4534
13604TIP3    H162303   6.702   0.045  12.520 -2.3343 -1.9977  0.8222
13604TIP3    H262304   6.663   0.190  12.545  2.4197 -0.2390 -0.7759
13605TIP3   OH262305   3.220   0.126   2.160 -0.4402  0.8774  0.1745
13605TIP3    H162306   3.206   0.032   2.147  1.4635  0.7833 -1.8533
13605TIP3    H262307   3.134   0.161   2.183 -1.1751 -1.3431  1.0430
13606TIP3   OH262308   5.921   1.233   1.452  0.0052  0.1407 -0.2487
13606TIP3    H162309   5.882   1.155   1.412 -1.0929  1.6732 -2.3572
13606TIP3    H262310   5.976   1.270   1.384 -0.6817  2.0209  0.1507
13607TIP3   OH262311   2.943   1.579   3.273 -0.1947  0.0854  0.1493
13607TIP3    H162312   2.922   1.512   3.208  0.0670  0.9210 -0.8283
13607TIP3    H262313   3.007   1.537   3.331  0.0212 -0.4905 -0.4892
13608TIP3   OH262314   6.556   0.324  16.128  0.3643  0.4500  0.2892
13608TIP3    H162315   6.635   0.319  16.073  0.4608  1.9798  0.2305
13608TIP3    H262316   6.589   0.311  16.218  0.3506 -1.0582  0.0908
13609TIP3   OH262317   6.307   0.629  12.916 -0.0577 -0.2311  0.6405
13609TIP3    H162318   6.244   0.617  12.988  1.2805 -0.4056  1.8361
13609TIP3    H262319   6.288   0.557  12.856  0.1934 -1.4296  1.9267
13610TIP3   OH262320   2.230   5.529  11.811  0.5144  0.2131  0.1806
13610TIP3    H162321   2.315   5.485  11.798 -0.4741 -1.2266 -2.1687
13610TIP3    H262322   2.177   5.465  11.859  0.1245  0.2085 -0.2479
13611TIP3   OH262323   3.507   2.044   2.361 -0.0216 -0.5594  0.3611
13611TIP3    H162324   3.444   1.973   2.372  0.5873 -0.9157  1.7544
13611TIP3    H262325   3.530   2.042   2.268 -0.7439 -1.5365  0.1899
13612TIP3   OH262326   5.733   1.367   1.654 -0.1266 -0.1093  0.2308
13612TIP3    H162327   5.749   1.315   1.733 -0.6101  0.4936  0.7234
13612TIP3    H262328   5.808   1.346   1.597  0.4085 -0.2769  0.9826
13613TIP3   OH262329   0.477   2.708  12.612  0.3913  0.1559  0.3311
13613TIP3    H162330   0.436   2.672  12.690  0.0552  0.4600  0.2986
13613TIP3    H262331   0.543   2.769  12.645 -0.3769  0.9718  0.3767
13614TIP3   OH262332   3.869   0.153  13.869  0.3068  0.4568 -0.2304
13614TIP3    H162333   3.862   0.190  13.782  1.4827 -0.2647 -0.6607
13614TIP3    H262334   3.868   0.058  13.855  0.9871  0.3326  0.4729
13615TIP3   OH262335   4.763   3.978  15.506 -0.2864  0.2563 -0.1864
13615TIP3    H162336   4.712   3.930  15.441  0.2683  0.3790 -0.7155
13615TIP3    H262337   4.727   4.067  15.504 -2.0455 -0.3397  1.5543
13616TIP3   OH262338   1.654   3.161   5.146 -0.1458 -0.3987 -0.3078
13616TIP3    H162339   1.696   3.216   5.080 -1.2809 -0.0335 -0.7414
13616TIP3    H262340   1.584   3.116   5.099  0.5728 -2.0180  0.1045
13617TIP3   OH262341   1.496   1.832   5.531  0.1397  0.5041  0.2552
13617TIP3    H162342   1.499   1.927   5.516  1.3856  0.3129 -0.8482
13617TIP3    H262343   1.412   1.818   5.576  0.1161  2.1711  0.8164
13618TIP3   OH262344   3.194   6.341   2.525  0.9412  0.2088 -0.0660
13618TIP3    H162345   3.168   6.335   2.617  2.1259  1.8645  0.4223
13618TIP3    H262346   3.182   6.433   2.502  3.1115  0.3748 -0.7677
13619TIP3   OH262347   4.018   1.436   5.683 -0.6222  0.0601  0.5039
13619TIP3    H162348   3.979   1.475   5.761 -2.0690 -0.9854  0.3493
13619TIP3    H262349   3.943   1.420   5.625  0.3617  0.3736 -0.9166
13620TIP3   OH262350   3.019   5.348  11.015  1.2615 -0.7208 -0.3357
13620TIP3    H162351   3.055   5.410  10.952 -0.1483  0.6834  0.1817
13620TIP3    H262352   3.058   5.264  10.991  1.2486 -0.1234 -2.6785
13621TIP3   OH262353   2.662   1.178   2.422 -0.3349 -0.4031 -0.4819
13621TIP3    H162354   2.622   1.263   2.436  0.2851 -0.1778 -0.0320
13621TIP3    H262355   2.605   1.134   2.358 -1.1566 -0.0161 -0.0209
13622TIP3   OH262356   6.821   6.363  14.327  0.0652 -0.4140 -0.0187
13622TIP3    H162357   6.889   6.331  14.387 -1.1549  0.0127  1.6583
13622TIP3    H262358   6.868   6.423  14.268  1.1991 -0.3115  0.9383
13623TIP3   OH262359   0.940   6.089   1.134  0.7961  0.1614 -0.3246
13623TIP3    H162360   0.903   6.005   1.164 -0.2217  0.5738 -0.3801
13623TIP3    H262361   0.939   6.083   1.039  0.4617  0.3439 -0.3332
13624TIP3   OH262362   2.377   6.014  14.170 -0.0265 -0.6326 -0.2783
13624TIP3    H162363   2.398   6.102  14.139  0.2820 -0.9170 -0.9001
13624TIP3    H262364   2.338   5.970  14.094 -0.3015 -0.9839  0.0659
13625TIP3   OH262365   4.490   5.487   3.902 -0.3868  0.8114  0.3134
13625TIP3    H162366   4.455   5.575   3.917 -0.5499  0.6445  0.9524
13625TIP3    H262367   4.474   5.441   3.985  0.0591  0.3038  0.1199
13626TIP3   OH262368   0.195   0.810  14.974  0.1488  0.5207 -0.5452
13626TIP3    H162369   0.190   0.753  15.050 -1.0651  0.8208 -0.3894
13626TIP3    H262370   0.201   0.750  14.899 -1.6374  0.1551 -0.4243
13627TIP3   OH262371   1.598   2.236   0.788 -0.0589  0.8309 -0.6693
13627TIP3    H162372   1.555   2.277   0.713  0.8551 -1.5387 -2.6138
13627TIP3    H262373   1.691   2.242   0.769  0.1440 -0.8089 -0.3386
13628TIP3   OH262374   3.733   1.941  10.733  0.2400  0.0224 -0.3814
13628TIP3    H162375   3.696   1.909  10.816 -0.0872 -0.7239 -0.8062
13628TIP3    H262376   3.698   2.030  10.724 -0.7196 -0.3303 -0.3098
13629TIP3   OH262377   3.058   3.568   3.820 -0.5351 -0.5509 -0.3878
13629TIP3    H162378   3.090   3.576   3.910 -2.1098  1.7244  0.0425
13629TIP3    H262379   3.113   3.628   3.770  0.7496 -2.2648 -1.1411
13630TIP3   OH262380   3.110   3.687   5.425 -0.3552  0.5126  0.2900
13630TIP3    H162381   3.074   3.759   5.477 -1.0877  1.3765 -1.3446
13630TIP3    H262382   3.034   3.636   5.397  0.1985 -1.5011  2.1628
13631TIP3   OH262383   1.216   3.129  15.186 -0.1175  0.9626  0.5289
13631TIP3    H162384   1.304   3.166  15.191  0.2970  0.1169 -0.1773
13631TIP3    H262385   1.229   3.035  15.199 -0.8408  0.7570 -0.1579
13632TIP3   OH262386   6.078   3.517   5.012  0.3293  0.3354  0.2084
13632TIP3    H162387   6.165   3.558   5.014 -0.6146  2.9873 -3.2311
13632TIP3    H262388   6.091   3.437   4.962  0.8021  0.7653 -0.3709
13633TIP3   OH262389   0.642   0.498   2.679  0.0526 -0.2949  0.1845
13633TIP3    H162390   0.717   0.545   2.642  0.9608 -1.8658 -0.0288
13633TIP3    H262391   0.603   0.561   2.741  0.8725  0.9346 -0.5061
13634TIP3   OH262392   1.829   0.557   3.185  0.0184  0.2488 -0.1911
13634TIP3    H162393   1.741   0.585   3.209  0.0242  2.0950 -1.9812
13634TIP3    H262394   1.824   0.539   3.091  1.1488 -1.4146  0.0347
13635TIP3   OH262395   3.653   1.563   4.737  0.8754  0.1467 -0.2905
13635TIP3    H162396   3.631   1.521   4.654  0.1586  1.3469 -0.7336
13635TIP3    H262397   3.686   1.492   4.792 -0.2651 -0.9813 -1.0096
13636TIP3   OH262398   3.758   6.246   3.562 -0.5193 -0.0996 -0.0623
13636TIP3    H162399   3.778   6.325   3.513 -1.1364 -0.5219 -1.0253
13636TIP3    H262400   3.667   6.257   3.590 -0.2459  0.0394  0.8213
13637TIP3   OH262401   4.328   5.440  16.463  0.1987 -0.2295 -0.3960
13637TIP3    H162402   4.374   5.524  16.469 -0.4285  0.0241  1.4118
13637TIP3    H262403   4.379   5.381  16.519 -0.7602 -0.3682  0.3505
13638TIP3   OH262404   2.870   5.262   2.718 -0.4788  0.2682  0.5065
13638TIP3    H162405   2.889   5.324   2.648 -0.8838 -0.3557 -0.1689
13638TIP3    H262406   2.951   5.211   2.727 -0.7854 -0.3717 -0.2674
13639TIP3   OH262407   2.598   6.722   4.423  0.1841  0.8235  0.5220
13639TIP3    H162408   2.518   6.670   4.426  0.5261  0.2749  3.3577
13639TIP3    H262409   2.576   6.798   4.369 -1.7407 -0.0699 -0.0313
13640TIP3   OH262410   2.772   4.231   4.142 -0.7032  0.0101 -0.2515
13640TIP3    H162411   2.750   4.145   4.177 -0.6530 -0.6760 -1.7896
13640TIP3    H262412   2.863   4.245   4.170 -0.4498 -0.8008 -0.6200
13641TIP3   OH262413   1.280   5.819  11.379  0.3389  0.1675 -0.2783
13641TIP3    H162414   1.251   5.900  11.337 -0.7132 -0.7973 -1.4957
13641TIP3    H262415   1.360   5.796  11.332  1.1519  0.9496  0.6805
13642TIP3   OH262416   4.713   1.431  12.414  0.0156  0.0376 -0.1790
13642TIP3    H162417   4.714   1.455  12.321  0.6791  2.0017  0.2706
13642TIP3    H262418   4.762   1.501  12.457 -0.5276 -0.6632  1.6931
13643TIP3   OH262419   3.601   0.856  13.652 -0.1169  0.1264  0.0102
13643TIP3    H162420   3.578   0.895  13.568 -1.5019 -0.2253  0.2113
13643TIP3    H262421   3.524   0.870  13.707 -0.0279 -1.4537  0.5810
13644TIP3   OH262422   4.443   2.055  15.784  0.0431 -0.2940 -0.2390
13644TIP3    H162423   4.408   1.977  15.742  1.0463 -1.8454  1.6271
13644TIP3    H262424   4.378   2.123  15.768 -0.9256 -1.5285 -1.7925
13645TIP3   OH262425   6.164   6.359  11.928  0.4069  0.6141 -0.0223
13645TIP3    H162426   6.146   6.422  11.998  0.3796  0.0673  0.4715
13645TIP3    H262427   6.246   6.389  11.889  0.0495  1.3434 -0.2473
13646TIP3   OH262428   0.166   6.138   4.156 -0.1713  0.9851 -0.2067
13646TIP3    H162429   0.243   6.143   4.213  1.6053 -1.2287 -2.2397
13646TIP3    H262430   0.144   6.229   4.137  2.5177  1.7047 -0.2619
13647TIP3   OH262431   2.182   3.619  13.185 -0.8399  0.1478  0.1324
13647TIP3    H162432   2.152   3.570  13.261  1.2859 -1.6505 -0.0722
13647TIP3    H262433   2.234   3.691  13.221 -0.5564 -0.1951  0.4146
13648TIP3   OH262434   0.732   4.531   0.138 -0.1649 -0.1555  0.7301
13648TIP3    H162435   0.819   4.495   0.153  1.1072  2.2667 -0.3110
13648TIP3    H262436   0.700   4.486   0.060  0.5064 -0.4798  0.6338
13649TIP3   OH262437   1.228   3.173  12.512 -0.2645 -0.1324 -0.9397
13649TIP3    H162438   1.197   3.263  12.521  1.5169  0.4989 -0.7194
13649TIP3    H262439   1.290   3.161  12.584 -0.3904 -1.5098 -1.0308
13650TIP3   OH262440   2.437   5.606   5.656 -0.6223  0.3624 -0.1079
13650TIP3    H162441   2.396   5.561   5.583 -0.9020  1.8210 -0.8912
13650TIP3    H262442   2.470   5.536   5.712 -0.5041 -0.7884 -1.5611
13651TIP3   OH262443   5.141   0.554   3.776 -0.2691 -0.3742 -0.8075
13651TIP3    H162444   5.217   0.596   3.817 -0.4989 -0.9828  0.2685
13651TIP3    H262445   5.139   0.590   3.688 -0.7706  2.3369  0.2035
13652TIP3   OH262446   4.986   6.308  15.628  0.1667 -0.1575  0.0015
13652TIP3    H162447   4.991   6.342  15.539 -3.9147  2.2654  0.4520
13652TIP3    H262448   4.942   6.223  15.619  1.5657 -0.8637 -0.3825
13653TIP3   OH262449   3.683   3.675  14.732 -0.4615  0.1932  0.2069
13653TIP3    H162450   3.742   3.600  14.735 -0.3432  0.3203  1.2819
13653TIP3    H262451   3.731   3.742  14.684 -0.4962 -0.3415 -0.5961
13654TIP3   OH262452   5.139   1.969   4.007  0.4353 -0.3469 -0.4960
13654TIP3    H162453   5.061   1.917   4.026 -0.1500  0.3872 -0.8368
13654TIP3    H262454   5.211   1.920   4.047 -0.1439 -1.2341 -0.5151
13655TIP3   OH262455   2.820   1.868   3.685  0.7272  0.1972  0.4695
13655TIP3    H162456   2.813   1.947   3.738 -0.0026 -0.3850  1.2502
13655TIP3    H262457   2.769   1.888   3.606  0.5866  0.5107  0.6385
13656TIP3   OH262458   0.163   6.148  16.412  0.3692  0.0233  0.1358
13656TIP3    H162459   0.237   6.207  16.421  0.5507 -0.1228 -0.3757
13656TIP3    H262460   0.093   6.188  16.464 -0.3923  2.1393 -2.3361
13657TIP3   OH262461   3.032   3.944  10.878 -0.0886 -0.5317 -0.2191
13657TIP3    H162462   2.968   3.878  10.905 -0.4807 -0.6694 -1.4457
13657TIP3    H262463   3.116   3.899  10.881 -0.5356 -1.6984 -2.8172
13658TIP3   OH262464   3.929   3.118   5.261  0.0742 -0.2844  0.2262
13658TIP3    H162465   4.005   3.126   5.319  1.7142  0.6031 -1.8934
13658TIP3    H262466   3.865   3.180   5.296  0.3571 -0.9018  1.9444
13659TIP3   OH262467   5.464   6.841  11.038 -0.2358 -0.3641  0.1807
13659TIP3    H162468   5.490   6.749  11.041  0.9716 -0.1303 -1.5191
13659TIP3    H262469   5.532   6.887  11.088 -0.2379 -0.2855  0.1120
13660TIP3   OH262470   2.473   1.263   3.883 -0.3602 -0.2693 -0.3424
13660TIP3    H162471   2.432   1.177   3.875 -1.7673 -0.1566  3.5504
13660TIP3    H262472   2.416   1.311   3.943  1.3178  2.7985 -1.0051
13661TIP3   OH262473   5.585   5.705  14.322 -0.3852 -0.3853  1.0922
13661TIP3    H162474   5.532   5.754  14.385  1.0614  0.1860  1.9266
13661TIP3    H262475   5.671   5.748  14.324 -0.4640  0.0778 -1.8197
13662TIP3   OH262476   6.248   3.905   0.173  0.0666 -0.3967 -0.5557
13662TIP3    H162477   6.208   3.918   0.259  0.9433 -0.8570 -0.0621
13662TIP3    H262478   6.237   3.988   0.128  0.3820  0.1391  0.3416
13663TIP3   OH262479   1.662   6.396   4.491 -0.0339  0.2901  0.8709
13663TIP3    H162480   1.597   6.325   4.488 -1.3145  1.3416  2.1146
13663TIP3    H262481   1.655   6.430   4.580  0.6367  1.8912  0.3392
13664TIP3   OH262482   6.891   0.342   4.466  0.5695 -0.4641  0.4037
13664TIP3    H162483   6.800   0.326   4.441  0.0318  1.6949  0.8032
13664TIP3    H262484   6.914   0.268   4.522 -1.6034 -0.0959  1.9058
13665TIP3   OH262485   5.914   3.495  15.285  0.1477 -0.0078  0.5388
13665TIP3    H162486   5.867   3.501  15.368 -1.3689  0.3201 -0.2992
13665TIP3    H262487   5.945   3.405  15.281 -0.5296 -0.2748  1.0695
13666TIP3   OH262488   1.617   1.470   2.182  0.1205  0.4486 -0.3106
13666TIP3    H162489   1.555   1.400   2.203  2.2405 -2.0829 -1.8697
13666TIP3    H262490   1.570   1.527   2.121 -0.9341 -0.9288 -0.8371
13667TIP3   OH262491   0.226   0.570  13.908  0.2760 -0.4233 -0.5558
13667TIP3    H162492   0.270   0.492  13.873 -0.5484 -1.0774 -0.1674
13667TIP3    H262493   0.168   0.536  13.975 -1.6373  0.2744 -1.7806
13668TIP3   OH262494   4.945   6.020   0.108  0.2800  0.4398  0.2730
13668TIP3    H162495   4.983   5.980   0.186 -0.9900 -1.0507  0.1705
13668TIP3    H262496   4.867   5.968   0.089  1.0422  0.1345 -2.5561
13669TIP3   OH262497   2.569   3.477   2.830  0.1942  0.0975  0.3913
13669TIP3    H162498   2.581   3.432   2.746  2.4108  0.0128  0.6865
13669TIP3    H262499   2.532   3.562   2.807 -1.9429 -0.9638 -0.3697
13670TIP3   OH262500   5.724   1.714   1.675  0.1861 -0.2557  0.0814
13670TIP3    H162501   5.720   1.660   1.596  0.9452 -0.8307  0.4276
13670TIP3    H262502   5.633   1.739   1.692  0.0075 -0.1977 -0.9227
13671TIP3   OH262503   2.698   2.856   0.206  0.1381 -0.4457 -0.1074
13671TIP3    H162504   2.614   2.821   0.236  0.4366 -1.3686 -0.3103
13671TIP3    H262505   2.675   2.936   0.159 -0.5803 -0.4338  0.2513
13672TIP3   OH262506   3.436   4.732   5.362  0.5310 -0.0398  0.0318
13672TIP3    H162507   3.381   4.695   5.431 -0.3726 -0.5416 -0.9206
13672TIP3    H262508   3.520   4.689   5.372  0.2287 -0.5372  0.4601
13673TIP3   OH262509   3.903   6.499   1.911  0.1286  0.3306  0.4594
13673TIP3    H162510   3.931   6.585   1.943 -0.1141  0.4347  0.3966
13673TIP3    H262511   3.873   6.516   1.821  0.5636  0.0869  0.2642
13674TIP3   OH262512   2.420   2.852   3.614  0.2135 -0.6631 -0.3114
13674TIP3    H162513   2.382   2.837   3.528 -2.0776  1.5195  0.2051
13674TIP3    H262514   2.372   2.792   3.671  0.3917 -0.7612 -0.2642
13675TIP3   OH262515   4.450   0.964   3.703  0.2105 -0.2688  0.0686
13675TIP3    H162516   4.355   0.960   3.714 -0.1762 -0.9878 -2.6392
13675TIP3    H262517   4.484   0.899   3.765 -1.0075  0.1582  1.2392
13676TIP3   OH262518   3.788   4.548   5.090  0.0852 -0.4405 -0.7046
13676TIP3    H162519   3.834   4.479   5.041  0.3603 -0.2834 -0.6731
13676TIP3    H262520   3.696   4.535   5.069 -0.1533 -2.2702  1.1142
13677TIP3   OH262521   5.316   3.100   0.590 -0.3957 -0.2862  0.3585
13677TIP3    H162522   5.297   3.125   0.499  2.9010 -3.5146 -1.4587
13677TIP3    H262523   5.263   3.022   0.605 -0.8260  0.1557  1.2539
13678TIP3   OH262524   5.402   1.692   2.126 -0.4480 -0.1598 -0.2629
13678TIP3    H162525   5.470   1.647   2.177 -0.5784  0.1744  0.2074
13678TIP3    H262526   5.409   1.653   2.038  0.3976 -0.0824 -0.2429
13679TIP3   OH262527   5.423   4.015  11.357 -0.1244 -0.0005  0.0556
13679TIP3    H162528   5.509   3.974  11.363 -0.3464 -0.4715  0.0462
13679TIP3    H262529   5.432   4.077  11.284  0.3920  0.4227  0.4707
13680TIP3   OH262530   4.906   4.398  16.342  0.3060  0.5510  0.4226
13680TIP3    H162531   4.929   4.421  16.253 -1.5650  0.7037 -0.0740
13680TIP3    H262532   4.860   4.475  16.376 -0.6170 -0.1719  0.8647
13681TIP3   OH262533   5.112   5.538   3.114  0.4237 -0.4366 -0.0948
13681TIP3    H162534   5.121   5.443   3.128  0.3070 -0.3118  0.8950
13681TIP3    H262535   5.109   5.575   3.202  1.2664  0.5768 -0.4782
13682TIP3   OH262536   0.962   1.380  10.830 -0.4387  0.0427 -0.3312
13682TIP3    H162537   0.879   1.414  10.862 -0.2316 -0.7078  1.1234
13682TIP3    H262538   1.025   1.450  10.846 -0.5000 -0.0009  0.1124
13683TIP3   OH262539   2.696   6.769  15.776 -0.3404 -0.1476  0.0435
13683TIP3    H162540   2.673   6.744  15.686 -0.9690  1.8080 -0.3994
13683TIP3    H262541   2.711   6.863  15.771  2.0180 -0.3765  1.5514
13684TIP3   OH262542   6.278   2.985   5.770 -0.2888 -0.4533 -0.3732
13684TIP3    H162543   6.234   2.977   5.854  0.9671  0.3094  0.3811
13684TIP3    H262544   6.315   3.073   5.770  1.9117 -1.3156 -0.6168
13685TIP3   OH262545   6.208   0.935   2.564  0.2466 -0.6858  0.4146
13685TIP3    H162546   6.252   1.020   2.565 -1.6002  0.3392 -0.0070
13685TIP3    H262547   6.156   0.934   2.644 -0.5924 -0.9190 -0.1154
13686TIP3   OH262548   5.875   2.749   2.733 -0.0639  0.0648 -0.0032
13686TIP3    H162549   5.902   2.732   2.643  3.1055  1.7206  0.4632
13686TIP3    H262550   5.846   2.664   2.767  0.3887 -0.9620 -2.0582
13687TIP3   OH262551   3.331   0.298   4.451  0.2269  0.6863  0.2478
13687TIP3    H162552   3.362   0.358   4.519 -0.8012  0.6650  0.7634
13687TIP3    H262553   3.241   0.325   4.434 -0.2280 -0.6120  0.4054
13688TIP3   OH262554   4.335   0.950   1.276  0.0377 -0.0839  0.3897
13688TIP3    H162555   4.357   1.041   1.295  1.3142 -0.2014 -0.4123
13688TIP3    H262556   4.335   0.907   1.362 -1.0073  0.7394  0.8219
13689TIP3   OH262557   4.519   4.588  10.717 -0.2736  0.2938  0.2057
13689TIP3    H162558   4.494   4.581  10.625  2.7306 -1.1416 -0.6468
13689TIP3    H262559   4.578   4.663  10.720  0.4912 -0.3041  0.6774
13690TIP3   OH262560   0.408   6.605   2.112 -0.0788  0.0288  0.3889
13690TIP3    H162561   0.447   6.541   2.172 -0.4120 -0.4314  0.1225
13690TIP3    H262562   0.349   6.553   2.057 -0.2805  0.5525  0.1054
13691TIP3   OH262563   0.073   5.112   5.476  0.4672 -0.4300  0.3278
13691TIP3    H162564   0.083   5.206   5.458 -2.5579 -0.0423  0.2095
13691TIP3    H262565   0.086   5.105   5.570 -0.6333  0.3841  0.5689
13692TIP3   OH262566   6.181   2.273  15.799 -0.1472 -0.2307 -0.3738
13692TIP3    H162567   6.146   2.334  15.734 -0.0714  1.0704  0.7817
13692TIP3    H262568   6.171   2.318  15.883  3.7322  0.0581  0.1235
13693TIP3   OH262569   5.108   1.379   1.257 -0.0539  0.2880  0.2000
13693TIP3    H162570   5.177   1.420   1.310  0.6122  0.3009 -0.6664
13693TIP3    H262571   5.094   1.293   1.299  1.0855 -0.0649 -0.0980
13694TIP3   OH262572   2.491   4.403  11.059  0.2662 -0.0463 -0.4933
13694TIP3    H162573   2.470   4.423  10.968  0.2112 -0.3074 -0.5390
13694TIP3    H262574   2.406   4.388  11.100  0.3682 -1.7037 -0.8184
13695TIP3   OH262575   3.891   1.648   1.225 -0.6749  0.4173 -0.6296
13695TIP3    H162576   3.835   1.629   1.149 -0.6322 -1.7790 -0.1722
13695TIP3    H262577   3.978   1.620   1.197 -1.0916 -3.1036  1.0339
13696TIP3   OH262578   3.883   1.027  11.281 -0.6706 -0.0635 -0.8840
13696TIP3    H162579   3.930   1.099  11.240 -1.6337  1.2406  0.2453
13696TIP3    H262580   3.887   1.045  11.375 -2.8120 -0.2685 -0.7165
13697TIP3   OH262581   0.364   0.226  10.604 -0.1946 -0.4908  0.2652
13697TIP3    H162582   0.309   0.261  10.533 -0.6158 -0.5886  0.5407
13697TIP3    H262583   0.342   0.281  10.679  0.6755 -0.0132  0.1828
13698TIP3   OH262584   3.177   6.136  12.810 -0.7381 -0.3850 -0.2475
13698TIP3    H162585   3.261   6.172  12.780 -0.8215  0.3811  0.3683
13698TIP3    H262586   3.176   6.046  12.779  0.8435 -0.7685  0.7142
13699TIP3   OH262587   0.278   3.573  15.042  0.2330  0.7485 -0.3260
13699TIP3    H162588   0.218   3.501  15.023  0.3429  0.6666 -0.3627
13699TIP3    H262589   0.240   3.648  14.996  0.0743  0.7346 -0.2190
13700TIP3   OH262590   3.280   2.373  16.456 -0.5674  0.4193 -0.0332
13700TIP3    H162591   3.279   2.433  16.382  0.1491  2.3504  1.4495
13700TIP3    H262592   3.373   2.364  16.479 -0.8413  0.8516  1.3683
13701TIP3   OH262593   5.453   2.859   5.014 -0.2554  0.7478  0.2859
13701TIP3    H162594   5.412   2.837   4.930  0.2549  0.3856  0.1270
13701TIP3    H262595   5.518   2.925   4.992 -0.3138  0.8589  0.4430
13702TIP3   OH262596   2.989   4.486   3.976 -0.0254 -0.0825 -0.5565
13702TIP3    H162597   3.013   4.575   3.952 -0.4153 -0.1464 -1.2071
13702TIP3    H262598   2.907   4.496   4.026  0.0134 -0.0628 -0.4971
13703TIP3   OH262599   1.525   5.114  15.337 -0.1633  0.0342  0.8249
13703TIP3    H162600   1.558   5.136  15.425 -1.8533 -1.2563  1.8467
13703TIP3    H262601   1.430   5.106  15.349 -0.2058 -2.5104 -0.5826
13704TIP3   OH262602   0.830   1.339   2.052  0.2227 -0.3284 -0.2305
13704TIP3    H162603   0.861   1.382   1.972 -1.4279 -0.7019 -1.1093
13704TIP3    H262604   0.854   1.400   2.122  1.2913  0.2217 -1.0472
13705TIP3   OH262605   4.888   0.820   1.006  0.4273 -0.7139  0.0113
13705TIP3    H162606   4.982   0.802   1.015  0.3407 -0.8438  0.7020
13705TIP3    H262607   4.846   0.736   1.026  0.1873 -0.8328 -0.9695
13706TIP3   OH262608   5.274   0.457   2.280 -0.1469  0.2648  0.3596
13706TIP3    H162609   5.269   0.482   2.188  1.1088  0.5575  0.3549
13706TIP3    H262610   5.338   0.385   2.281  0.1551  0.5398  1.0497
13707TIP3   OH262611   4.653   2.043  13.416 -0.1286  0.2232  0.0742
13707TIP3    H162612   4.688   2.132  13.426  1.4845 -0.1946 -1.4326
13707TIP3    H262613   4.721   1.986  13.451 -0.9038 -0.4698  0.4937
13708TIP3   OH262614   0.191   0.287   3.472  0.2158  0.3114 -0.3225
13708TIP3    H162615   0.142   0.358   3.431  0.8583 -0.6658 -2.9436
13708TIP3    H262616   0.142   0.208   3.451  0.9350 -0.2982  0.2292
13709TIP3   OH262617   0.674   0.419  13.432 -0.4784  0.1334  0.1350
13709TIP3    H162618   0.596   0.401  13.485 -0.2605  2.4067  1.3430
13709TIP3    H262619   0.646   0.489  13.372  0.4152  0.3864  0.0092
13710TIP3   OH262620   3.393   4.359   3.097 -0.1686  0.3500  0.0266
13710TIP3    H162621   3.375   4.315   3.181 -0.8525  0.6164  0.0206
13710TIP3    H262622   3.312   4.349   3.047 -0.6221  2.3001  0.3176
13711TIP3   OH262623   0.150   5.644  12.356 -0.3814 -0.2360 -0.6542
13711TIP3    H162624   0.212   5.665  12.425 -0.4524  0.8951 -0.9153
13711TIP3    H262625   0.163   5.551  12.339 -0.5982 -0.6254  1.1093
13712TIP3   OH262626   2.295   5.475   0.689  0.1302  0.3747 -0.1115
13712TIP3    H162627   2.316   5.402   0.629  1.8433  0.9797 -0.2974
13712TIP3    H262628   2.222   5.520   0.646 -0.7049 -0.9798 -0.1917
13713TIP3   OH262629   0.073   4.629   5.607  0.9415 -0.4705 -0.2180
13713TIP3    H162630   0.026   4.563   5.556 -1.9589  0.5686  0.9423
13713TIP3    H262631   0.151   4.583   5.639 -0.2542 -2.9320 -0.5912
13714TIP3   OH262632   3.563   0.891   0.794  0.0194 -0.2590 -0.4066
13714TIP3    H162633   3.551   0.861   0.704  1.9692 -0.3473 -0.6783
13714TIP3    H262634   3.587   0.812   0.842  2.1016  0.2695 -0.4940
13715TIP3   OH262635   5.893   6.827   6.097  0.3752 -0.6285  0.4360
13715TIP3    H162636   5.851   6.841   6.012  0.8788 -0.5633  0.1947
13715TIP3    H262637   5.859   6.742   6.127 -0.4838 -0.2419  0.5867
13716TIP3   OH262638   1.894   3.109  15.832  0.3450  0.3836 -0.3866
13716TIP3    H162639   1.924   3.100  15.922  0.6905 -0.5914 -0.5774
13716TIP3    H262640   1.801   3.129  15.838 -0.0421 -1.4573  0.1824
13717TIP3   OH262641   3.781   5.946  16.818  0.2316 -0.0314  0.2009
13717TIP3    H162642   3.849   6.013  16.827 -0.6337  1.0591 -0.9872
13717TIP3    H262643   3.720   5.982  16.754  1.1622 -3.1157 -2.7484
13718TIP3   OH262644   5.808   2.201   0.645 -0.5368  0.0402  0.2561
13718TIP3    H162645   5.821   2.107   0.650  1.5006  0.1714 -1.0214
13718TIP3    H262646   5.880   2.238   0.697  0.3940  0.8530 -1.4985
13719TIP3   OH262647   5.265   0.596  12.508 -0.2743  0.3186 -0.0559
13719TIP3    H162648   5.322   0.555  12.444  0.3199 -0.8447  1.1580
13719TIP3    H262649   5.317   0.670  12.542 -0.4452  0.7087 -0.6258
13720TIP3   OH262650   0.819   1.408  15.666 -0.4333  0.0671 -0.6248
13720TIP3    H162651   0.811   1.356  15.745 -0.4121  1.7164  0.5147
13720TIP3    H262652   0.794   1.349  15.595  1.0429 -1.9203  0.4141
13721TIP3   OH262653   1.622   4.802  13.896 -0.0914  0.4986  0.1681
13721TIP3    H162654   1.619   4.732  13.831  2.0906 -0.3663  0.8793
13721TIP3    H262655   1.594   4.880  13.848  1.0494 -0.1742 -1.7507
13722TIP3   OH262656   0.301   0.804  11.530 -0.0909  0.2902 -0.5319
13722TIP3    H162657   0.301   0.765  11.442 -0.4911  2.1829 -1.4339
13722TIP3    H262658   0.364   0.876  11.525 -0.3072  0.5865  0.6544
13723TIP3   OH262659   1.569   5.056   2.233  0.2722 -0.0071  0.4186
13723TIP3    H162660   1.545   5.067   2.141 -1.1809  0.5300  0.8255
13723TIP3    H262661   1.606   4.968   2.238  0.7642  0.1171 -0.7479
13724TIP3   OH262662   2.157   2.695   6.350 -0.7275 -0.2761 -0.5299
13724TIP3    H162663   2.163   2.679   6.255  1.5150 -0.6125 -0.3908
13724TIP3    H262664   2.184   2.612   6.389 -0.0246  0.3706  0.3769
13725TIP3   OH262665   2.543   3.643  11.470 -0.1962 -0.0605  0.0946
13725TIP3    H162666   2.515   3.587  11.542  0.1648 -0.3284  0.0302
13725TIP3    H262667   2.547   3.731  11.507  0.3161 -0.2498  0.4900
13726TIP3   OH262668   3.370   1.763  16.263  0.6010  0.0103  0.2653
13726TIP3    H162669   3.312   1.832  16.294  1.9382  1.8984 -1.1940
13726TIP3    H262670   3.323   1.723  16.189 -0.5501 -1.3136  1.6452
13727TIP3   OH262671   6.508   4.149   0.502  0.2696  0.1668 -0.3137
13727TIP3    H162672   6.419   4.151   0.537  0.7438  1.1465  0.9120
13727TIP3    H262673   6.498   4.176   0.411 -0.8387 -1.1816 -0.6412
13728TIP3   OH262674   1.151   5.731   2.039  0.0603  0.1029  0.0075
13728TIP3    H162675   1.239   5.744   2.004  0.8092 -1.9962  0.9666
13728TIP3    H262676   1.164   5.706   2.130 -1.3987 -2.0416 -0.3095
13729TIP3   OH262677   0.788   5.640  14.944 -0.2129 -0.0843 -0.3432
13729TIP3    H162678   0.706   5.683  14.922  0.7071  2.4557  0.7967
13729TIP3    H262679   0.841   5.646  14.864 -0.7994 -0.9658 -0.8115
13730TIP3   OH262680   6.665   6.774   0.484  0.2126  0.0989  0.3052
13730TIP3    H162681   6.648   6.835   0.412 -1.9454 -1.4880 -0.6652
13730TIP3    H262682   6.587   6.782   0.540  1.9448  1.4670  2.6817
13731TIP3   OH262683   1.957   0.428  15.845 -0.4704  0.1546 -0.2462
13731TIP3    H162684   1.919   0.500  15.896 -0.9081  0.7522 -1.3581
13731TIP3    H262685   1.986   0.470  15.764  0.1903 -0.7629 -0.4985
13732TIP3   OH262686   3.792   4.670   0.386  0.1979  0.4813  0.1459
13732TIP3    H162687   3.782   4.596   0.326  1.1935 -0.6720  1.3413
13732TIP3    H262688   3.744   4.644   0.465  0.1553  1.3139  0.4044
13733TIP3   OH262689   4.755   3.024  15.647 -0.5478  0.4755  0.6289
13733TIP3    H162690   4.679   2.967  15.658 -0.7945  0.8065  0.6678
13733TIP3    H262691   4.717   3.111  15.631 -0.1804  0.5855  0.3389
13734TIP3   OH262692   0.273   1.458   3.161  0.3367  0.5972  0.5731
13734TIP3    H162693   0.237   1.369   3.159  0.5366  0.4836  1.6483
13734TIP3    H262694   0.312   1.466   3.248 -1.2773  2.3585  1.1982
13735TIP3   OH262695   2.137   4.383   3.832  0.3911  0.0666  0.5135
13735TIP3    H162696   2.067   4.438   3.798 -0.4931 -1.3326 -0.0412
13735TIP3    H262697   2.164   4.330   3.757  0.9535 -0.5095  1.1089
13736TIP3   OH262698   1.144   4.916  12.213 -0.3314  0.0246 -0.1096
13736TIP3    H162699   1.122   4.854  12.282  0.3061 -0.2734 -0.1623
13736TIP3    H262700   1.230   4.950  12.239 -0.9781  1.4112  0.2792
13737TIP3   OH262701   3.063   1.858   5.339  0.0664  0.0890  0.1855
13737TIP3    H162702   3.053   1.763   5.347 -0.2542 -0.0203 -1.2217
13737TIP3    H262703   3.156   1.871   5.322 -0.1316 -0.1450 -1.2631
13738TIP3   OH262704   0.870   1.702  13.204 -0.2755 -0.6805 -0.0833
13738TIP3    H162705   0.952   1.654  13.194 -1.7171 -3.5479  0.6614
13738TIP3    H262706   0.810   1.659  13.143 -1.2274  1.4770 -0.7740
13739TIP3   OH262707   6.873   1.189  16.418  0.5601 -0.5161  0.3776
13739TIP3    H162708   6.872   1.111  16.361 -1.7324  0.5127 -1.1659
13739TIP3    H262709   6.941   1.171  16.482 -1.6462 -5.0970  1.8725
13740TIP3   OH262710   1.722   2.693   2.001  0.1346 -0.1627 -0.7211
13740TIP3    H162711   1.659   2.660   2.064 -0.6488  0.6863 -1.0367
13740TIP3    H262712   1.789   2.736   2.055  0.9956 -1.9116 -0.3293
13741TIP3   OH262713   2.898   3.462  15.696  0.0415  0.3276 -0.9763
13741TIP3    H162714   2.890   3.429  15.606 -0.3524  0.5456 -1.0239
13741TIP3    H262715   2.903   3.557  15.685  1.9145  0.2655 -0.8954
13742TIP3   OH262716   1.301   3.411   2.595  0.3279  0.2449 -0.6527
13742TIP3    H162717   1.303   3.435   2.503  1.3642  2.7196 -0.0622
13742TIP3    H262718   1.374   3.349   2.606 -0.3727 -0.7814 -1.6231
13743TIP3   OH262719   5.343   1.733  11.903 -0.2954 -0.5192 -0.4056
13743TIP3    H162720   5.299   1.662  11.949 -2.9983  1.9069  1.0714
13743TIP3    H262721   5.299   1.736  11.817  0.0292 -0.7882 -0.5850
13744TIP3   OH262722   0.603   6.689   0.445  0.5579  0.4416  0.0248
13744TIP3    H162723   0.539   6.711   0.378 -0.1092  1.0236  0.8241
13744TIP3    H262724   0.582   6.748   0.518  0.3431 -1.1163  1.2774
13745TIP3   OH262725   2.332   4.509  15.116 -0.1066 -0.3129  0.4264
13745TIP3    H162726   2.351   4.572  15.046  0.2198 -1.1210 -0.2300
13745TIP3    H262727   2.241   4.527  15.140  0.0588  0.5672  0.4171
13746TIP3   OH262728   6.815   5.132   0.599  0.2156 -0.1346 -0.5090
13746TIP3    H162729   6.826   5.081   0.519 -0.3386 -1.6821  0.3540
13746TIP3    H262730   6.869   5.086   0.664  1.0534  1.3829 -0.0976
13747TIP3   OH262731   4.573   2.122   5.250 -0.4480 -0.1482 -0.8178
13747TIP3    H162732   4.543   2.031   5.243 -2.7421  0.3107  1.5047
13747TIP3    H262733   4.493   2.174   5.252  0.8031  1.9496 -1.7641
13748TIP3   OH262734   2.090   2.688   5.397 -0.5068  0.2218  0.4768
13748TIP3    H162735   2.147   2.625   5.352 -1.1726  0.5551 -0.8799
13748TIP3    H262736   2.146   2.765   5.411 -0.1977 -0.0120  0.5328
13749TIP3   OH262737   1.826   5.075  14.023  0.2410 -0.0868 -0.1463
13749TIP3    H162738   1.853   4.985  14.040  2.0114  0.8368  2.7946
13749TIP3    H262739   1.772   5.099  14.099  0.0523  1.4219 -0.7142
13750TIP3   OH262740   5.845   5.744   1.932  0.3241  0.3864  0.2483
13750TIP3    H162741   5.911   5.723   1.866  1.8920  1.4696  1.4173
13750TIP3    H262742   5.813   5.831   1.908 -0.7369 -0.1349 -0.3185
13751TIP3   OH262743   2.574   3.909  15.014  0.4531 -0.1561 -0.3453
13751TIP3    H162744   2.667   3.929  15.015  1.0618 -2.6335  1.3294
13751TIP3    H262745   2.548   3.919  14.923  2.4117  0.3008 -0.9039
13752TIP3   OH262746   5.852   4.094  16.339  0.4064 -0.3543 -0.2808
13752TIP3    H162747   5.784   4.072  16.276  0.8447 -1.4897 -0.3885
13752TIP3    H262748   5.920   4.028  16.324  1.1405  0.2303  0.4125
13753TIP3   OH262749   2.333   1.695   2.423 -0.0436  0.1191  0.2419
13753TIP3    H162750   2.336   1.775   2.370 -0.3131  1.0152  1.5470
13753TIP3    H262751   2.247   1.658   2.404 -0.4327  0.8193  0.5928
13754TIP3   OH262752   3.150   6.234   1.861  0.1057 -0.0364  0.8398
13754TIP3    H162753   3.064   6.195   1.845  1.6201 -3.4842  0.1319
13754TIP3    H262754   3.172   6.277   1.778  0.2284 -1.7413 -0.0600
13755TIP3   OH262755   5.991   2.761   3.552  0.1983 -0.3647 -0.0802
13755TIP3    H162756   5.948   2.787   3.633  0.8670 -1.9805  0.8435
13755TIP3    H262757   6.036   2.840   3.522 -0.6442  0.4433  0.7265
13756TIP3   OH262758   6.627   6.808  16.536  0.3605 -0.2161  0.3177
13756TIP3    H162759   6.636   6.880  16.475  0.3489  0.1135  0.7004
13756TIP3    H262760   6.706   6.755  16.523 -0.7675 -1.5434 -1.7429
13757TIP3   OH262761   5.659   1.159  14.028  0.2924  0.0686 -0.3522
13757TIP3    H162762   5.739   1.147  14.079  1.3653  0.2654 -1.8964
13757TIP3    H262763   5.618   1.072  14.025  0.2081  0.0598  0.8084
13758TIP3   OH262764   6.438   4.028   1.742 -0.4129  0.3441 -0.3306
13758TIP3    H162765   6.365   4.068   1.694  0.3963  0.2166 -1.7229
13758TIP3    H262766   6.506   4.016   1.676  0.2847 -1.0323  0.5917
13759TIP3   OH262767   1.639   2.779   1.740 -0.0196 -0.2134 -1.0501
13759TIP3    H162768   1.606   2.719   1.672  1.5770 -1.3521 -0.8652
13759TIP3    H262769   1.623   2.732   1.822  0.4940 -0.0295 -0.8436
13760TIP3   OH262770   2.254   2.726  11.289 -0.5003 -0.2543  0.4914
13760TIP3    H162771   2.198   2.668  11.341  0.5014  0.5079  2.5615
13760TIP3    H262772   2.331   2.673  11.268  0.0989  0.0430  1.7869
13761TIP3   OH262773   2.935   2.224   3.732  0.5476  0.1721  0.1440
13761TIP3    H162774   3.030   2.224   3.722  0.4561  2.1840 -1.4596
13761TIP3    H262775   2.902   2.269   3.653 -1.7160 -0.2697  0.7500
13762TIP3   OH262776   0.029   4.212   0.891 -0.2594  0.2801  0.1484
13762TIP3    H162777   0.050   4.224   0.798 -0.0450  2.0264  0.3855
13762TIP3    H262778   0.106   4.168   0.927 -0.4454 -0.6332 -0.5359
13763TIP3   OH262779   1.915   4.323  13.934 -0.0211  0.1588 -0.2163
13763TIP3    H162780   1.996   4.373  13.949  0.6398  0.0578 -2.9041
13763TIP3    H262781   1.938   4.233  13.960 -0.1602  0.5710  1.4808
13764TIP3   OH262782   2.336   2.714   3.875 -0.6185 -0.2786  0.0793
13764TIP3    H162783   2.266   2.662   3.916 -1.6507  0.0811 -1.1534
13764TIP3    H262784   2.387   2.650   3.824 -0.5349 -0.4205  0.3404
13765TIP3   OH262785   3.743   0.165   4.675  0.0509 -0.1098  0.2268
13765TIP3    H162786   3.652   0.180   4.701 -0.0865  1.3955 -0.9625
13765TIP3    H262787   3.754   0.216   4.594  1.8196 -0.6408  0.0767
13766TIP3   OH262788   3.185   5.006  12.529  0.2497  0.1360  0.7046
13766TIP3    H162789   3.278   5.008  12.506  0.4792 -0.6028  1.4954
13766TIP3    H262790   3.170   4.915  12.556 -1.0546 -0.1381 -0.8071
13767TIP3   OH262791   5.562   6.551  11.553 -0.8293 -0.8050  0.1474
13767TIP3    H162792   5.545   6.512  11.468  0.7809  0.3513 -0.7509
13767TIP3    H262793   5.504   6.628  11.556 -0.7098 -0.7091 -0.0079
13768TIP3   OH262794   4.260   6.186   5.693  0.2964 -0.1613  0.4056
13768TIP3    H162795   4.278   6.280   5.704  1.6411 -0.4451  0.8012
13768TIP3    H262796   4.165   6.179   5.703 -0.4403  1.6668 -3.3907
13769TIP3   OH262797   2.552   6.684  10.844 -0.1587 -0.1665 -0.3012
13769TIP3    H162798   2.518   6.720  10.925  1.1865 -1.0114  0.6827
13769TIP3    H262799   2.476   6.650  10.798 -1.1741  1.8848 -0.2528
13770TIP3   OH262800   1.956   1.647   3.508  0.3168  0.0211 -0.0422
13770TIP3    H162801   2.008   1.651   3.588  1.2421 -0.4948 -0.5985
13770TIP3    H262802   1.959   1.736   3.473 -1.7096  0.7638  1.4474
13771TIP3   OH262803   0.572   0.907   0.292 -0.5665 -0.1142 -0.0478
13771TIP3    H162804   0.601   0.981   0.345 -2.0474 -0.3771  1.1905
13771TIP3    H262805   0.644   0.844   0.298  0.1625  0.6914 -0.0780
13772TIP3   OH262806   4.971   5.596   9.832  0.3555 -0.0072 -0.3848
13772TIP3    H162807   4.912   5.520   9.837  0.5849 -0.1166  0.8037
13772TIP3    H262808   4.967   5.622   9.740 -0.1346 -1.1387 -0.7079
13773TIP3   OH262809   2.655   5.106   2.640  0.3452  0.0520  0.1795
13773TIP3    H162810   2.694   5.142   2.720  2.5258 -0.4691 -0.5732
13773TIP3    H262811   2.728   5.062   2.596 -0.9282 -0.1789 -1.8140
13774TIP3   OH262812   3.632   1.783   4.127  0.4915  0.1806 -0.3070
13774TIP3    H162813   3.630   1.769   4.221  2.5659 -0.0385 -0.2409
13774TIP3    H262814   3.675   1.868   4.116 -2.4676  1.7173 -1.0222
13775TIP3   OH262815   0.130   0.026  16.113  0.2734  0.0427  0.5344
13775TIP3    H162816   0.157   0.110  16.077 -2.1563  0.3695 -0.7637
13775TIP3    H262817   0.192  -0.037  16.078  0.4139  0.9280 -0.8716
13776TIP3   OH262818   0.677   6.817  14.281  0.3520 -0.0541 -0.4511
13776TIP3    H162819   0.640   6.904  14.262  0.0624 -0.2033 -0.5748
13776TIP3    H262820   0.625   6.757  14.228 -0.0298 -0.4099  0.3116
13777TIP3   OH262821   5.360   5.071   4.862 -0.0014  0.0876  0.1991
13777TIP3    H162822   5.319   5.111   4.785 -3.4943 -0.7654  1.4194
13777TIP3    H262823   5.319   5.115   4.937  0.0016 -2.0331  1.5491
13778TIP3   OH262824   3.414   0.027   4.510 -0.0126 -0.0086  0.0372
13778TIP3    H162825   3.458   0.079   4.578  0.3332 -0.8547  0.4880
13778TIP3    H262826   3.371   0.091   4.454  0.5743  0.7675  0.4519
13779TIP3   OH262827   6.168   6.469   3.354  0.2119 -0.0173  0.2478
13779TIP3    H162828   6.137   6.387   3.315  0.3519  0.5729 -1.1672
13779TIP3    H262829   6.250   6.446   3.397  0.5535 -0.5130 -0.6513
13780TIP3   OH262830   4.199   3.543  14.320 -0.0024  0.6335 -0.6128
13780TIP3    H162831   4.141   3.485  14.270 -0.1050  0.6586 -0.5225
13780TIP3    H262832   4.154   3.555  14.404 -1.1989  2.8153 -1.4823
13781TIP3   OH262833   0.133   4.324  15.161  0.6264  0.2685  0.3028
13781TIP3    H162834   0.147   4.272  15.241  0.1979 -2.6017 -1.3654
13781TIP3    H262835   0.217   4.368  15.147  0.0284  2.9106  3.5620
13782TIP3   OH262836   3.046   4.608  10.602  0.1249  0.2801 -0.2390
13782TIP3    H162837   3.134   4.585  10.574 -0.0741 -2.0548  0.8030
13782TIP3    H262838   2.989   4.546  10.558 -0.9724  1.3627 -0.4186
13783TIP3   OH262839   3.208   2.762  11.330 -0.4058 -0.3877  0.2769
13783TIP3    H162840   3.210   2.677  11.374 -0.8815 -0.2439  0.5827
13783TIP3    H262841   3.120   2.795  11.346 -1.1205 -0.9836 -2.0457
13784TIP3   OH262842   6.396   3.739  10.855  0.1095 -0.2145  0.0414
13784TIP3    H162843   6.454   3.754  10.780 -0.1823 -2.4825 -0.7301
13784TIP3    H262844   6.311   3.771  10.826  0.7026  2.2163  0.8071
13785TIP3   OH262845   2.580   2.449  16.440 -0.3296  0.2130 -0.0141
13785TIP3    H162846   2.631   2.475  16.516 -2.2325 -0.7793  1.6850
13785TIP3    H262847   2.490   2.467  16.463 -0.8837  1.4475 -2.7375
13786TIP3   OH262848   5.564   5.675   0.570  0.2367  0.3222 -0.4968
13786TIP3    H162849   5.500   5.741   0.543  0.4925  0.4008 -0.9322
13786TIP3    H262850   5.643   5.696   0.519  0.7018  0.3974  0.2483
13787TIP3   OH262851   0.330   4.576   1.717 -0.5671 -0.1233 -0.3481
13787TIP3    H162852   0.266   4.626   1.666 -1.1448 -0.5778 -0.0866
13787TIP3    H262853   0.401   4.558   1.656  0.4712  2.4567 -0.0149
13788TIP3   OH262854   3.683   5.961  12.193  0.0039  0.2142  0.6846
13788TIP3    H162855   3.735   5.953  12.113  0.0612 -0.3331  0.7724
13788TIP3    H262856   3.596   5.930  12.168  0.0745 -0.1529  0.8812
13789TIP3   OH262857   5.397   5.846  11.576  0.4112 -0.8375  0.0928
13789TIP3    H162858   5.382   5.891  11.493 -0.0993 -1.9832 -0.4760
13789TIP3    H262859   5.449   5.906  11.628  1.3692 -0.3747 -1.3358
13790TIP3   OH262860   6.762   5.331  11.991 -0.3087 -0.2042 -0.1216
13790TIP3    H162861   6.847   5.308  11.956 -1.0803 -1.0363 -1.5438
13790TIP3    H262862   6.777   5.411  12.042  1.1884 -0.0185 -0.8141
13791TIP3   OH262863   5.266   2.253  15.585  0.5287  0.0724 -0.1669
13791TIP3    H162864   5.333   2.186  15.572  1.4992  0.7191  1.2802
13791TIP3    H262865   5.284   2.318  15.517  1.9237  0.6439  0.7084
13792TIP3   OH262866   5.006   3.708  16.541  0.1755 -0.0621  0.7122
13792TIP3    H162867   5.011   3.801  16.521 -0.3506 -0.4860 -1.6525
13792TIP3    H262868   5.084   3.671  16.500 -0.6253 -0.9111 -0.0832
13793TIP3   OH262869   0.244   6.309   2.851 -0.1204  0.1152  0.3508
13793TIP3    H162870   0.248   6.375   2.782  0.9540  0.3874  0.6586
13793TIP3    H262871   0.176   6.248   2.822  0.4128  0.1429 -1.0275
13794TIP3   OH262872   2.991   6.153   4.590 -0.6534  0.4474 -0.7319
13794TIP3    H162873   3.078   6.155   4.552  0.4447 -1.8938  1.4097
13794TIP3    H262874   2.947   6.080   4.547  0.2883 -1.6332  1.6202
13795TIP3   OH262875   0.348   2.541  16.524  0.5759 -0.2157  0.2785
13795TIP3    H162876   0.409   2.606  16.490  2.1384 -1.7271  0.0566
13795TIP3    H262877   0.356   2.549  16.619 -0.2281  0.7677  0.2824
13796TIP3   OH262878   0.916   5.474   0.430 -0.4052  0.5823 -0.0717
13796TIP3    H162879   0.966   5.398   0.461  1.0690  1.1309 -1.0438
13796TIP3    H262880   0.838   5.474   0.486  0.9129  0.0238  1.8818
13797TIP3   OH262881   6.237   4.140   0.038  0.2524 -0.1389  0.1894
13797TIP3    H162882   6.141   4.135   0.030  0.1978 -1.7374  1.2817
13797TIP3    H262883   6.257   4.232   0.027 -1.1114 -0.0951 -2.9602
13798TIP3   OH262884   4.777   2.920  16.621  0.2659 -0.2612  0.4139
13798TIP3    H162885   4.740   2.865  16.552  0.1701  1.4973 -0.9928
13798TIP3    H262886   4.703   2.970  16.655  1.0231  2.6463 -1.8245
13799TIP3   OH262887   0.834   3.048   3.172 -0.3492  0.1044  0.4457
13799TIP3    H162888   0.814   2.985   3.103 -2.5663 -1.3824  2.2619
13799TIP3    H262889   0.811   3.133   3.136  0.8574 -0.2934 -1.4035
13800TIP3   OH262890   3.434   5.569   2.211 -0.0090  0.4145  0.0141
13800TIP3    H162891   3.489   5.539   2.283  0.4709  0.0051 -0.5197
13800TIP3    H262892   3.406   5.489   2.167  1.4447  0.7325 -1.5492
13801TIP3   OH262893   4.377   3.591  15.832 -0.3293  0.6477  0.1322
13801TIP3    H162894   4.462   3.605  15.791  0.2190  0.1512  1.0676
13801TIP3    H262895   4.323   3.663  15.801  0.4940  1.0804 -0.3163
13802TIP3   OH262896   5.905   6.035   0.876  0.1452  0.4199 -0.8257
13802TIP3    H162897   5.872   5.995   0.796 -0.3470 -1.1023  0.1063
13802TIP3    H262898   5.963   6.105   0.845 -0.2496  0.0569 -2.4994
13803TIP3   OH262899   5.842   4.470  15.123  0.2800  0.2194  0.0873
13803TIP3    H162900   5.876   4.479  15.034  0.3291  0.6796  0.1509
13803TIP3    H262901   5.801   4.554  15.142  0.7543  0.3210  0.6980
13804TIP3   OH262902   3.957   2.728  12.449  0.9308 -0.0190 -0.0045
13804TIP3    H162903   3.909   2.778  12.515 -1.8039 -1.0764 -1.0689
13804TIP3    H262904   4.042   2.710  12.490  0.1054  1.0971  2.3890
13805TIP3   OH262905   5.142   0.090  12.189  0.5807 -0.3686 -0.3024
13805TIP3    H162906   5.125  -0.002  12.171  0.6501 -0.5568  0.5172
13805TIP3    H262907   5.227   0.090  12.234  0.9533  0.1773 -0.9908
13806TIP3   OH262908   0.553   3.868  10.923  0.8552 -0.4528 -0.0320
13806TIP3    H162909   0.578   3.929  10.853 -1.9398  0.5730 -0.2749
13806TIP3    H262910   0.526   3.925  10.995 -1.8474 -1.3223 -0.2734
13807TIP3   OH262911   3.542   5.341   4.639  0.3501 -0.6709 -0.2252
13807TIP3    H162912   3.501   5.421   4.606  1.9282 -0.1420 -0.9975
13807TIP3    H262913   3.473   5.275   4.633 -0.8855  0.5221  0.1086
13808TIP3   OH262914   5.918   2.620  14.569 -0.3019  0.4094 -0.6282
13808TIP3    H162915   5.927   2.525  14.562 -1.1790  0.4225 -2.4769
13808TIP3    H262916   5.829   2.639  14.539  0.3280  1.9143 -1.6984
13809TIP3   OH262917   5.202   4.043   1.033  0.4684  0.0919 -0.1157
13809TIP3    H162918   5.184   3.954   1.003  1.3636  0.3223 -1.4480
13809TIP3    H262919   5.166   4.047   1.122  0.8081 -1.7238  0.1316
13810TIP3   OH262920   6.717   0.795  12.855 -0.5614  0.0874 -0.0284
13810TIP3    H162921   6.784   0.860  12.877 -0.5768 -0.1620  0.8028
13810TIP3    H262922   6.636   0.833  12.888 -1.1689  1.2153 -2.6172
13811TIP3   OH262923   2.144   2.113   0.922  0.1068 -0.4021  0.4029
13811TIP3    H162924   2.208   2.094   0.854 -0.6239  1.4487 -0.8977
13811TIP3    H262925   2.061   2.080   0.887 -0.4866  1.5819 -0.2165
13812TIP3   OH262926   2.046   5.175  13.063  0.3265  0.3152 -0.6185
13812TIP3    H162927   2.086   5.216  12.986  0.0734  0.4183 -0.6940
13812TIP3    H262928   1.959   5.214  13.068 -0.0157 -0.4139 -0.8468
13813TIP3   OH262929   2.185   0.725  11.295  0.0626  0.6848  0.5044
13813TIP3    H162930   2.280   0.725  11.309  0.2254  4.0765  0.3182
13813TIP3    H262931   2.168   0.646  11.244  2.7201 -0.2595  0.9491
13814TIP3   OH262932   5.878   6.789  12.458  0.3507  0.2855  0.2523
13814TIP3    H162933   5.797   6.783  12.406  1.9190 -1.1201 -2.1869
13814TIP3    H262934   5.929   6.857  12.414  1.4779 -0.5207  0.2883
13815TIP3   OH262935   2.686   3.498  16.751 -0.8469 -0.6434 -0.0389
13815TIP3    H162936   2.764   3.469  16.797 -0.1732  3.4952  1.9299
13815TIP3    H262937   2.712   3.505  16.659  0.5901 -0.8430  0.3406
13816TIP3   OH262938   4.769   1.572  11.824  0.5296 -0.1625  0.2607
13816TIP3    H162939   4.845   1.590  11.768 -0.6595  0.6821 -1.1562
13816TIP3    H262940   4.806   1.539  11.905  2.5002  1.7330  0.2114
13817TIP3   OH262941   0.902   4.353   0.328  0.5897 -0.0305  0.7310
13817TIP3    H162942   0.940   4.373   0.243  1.8081 -0.5690  1.1300
13817TIP3    H262943   0.964   4.389   0.391 -0.1292  0.0567  1.4092
13818TIP3   OH262944   0.275   1.758  10.872 -0.3610  0.6960  0.0010
13818TIP3    H162945   0.202   1.819  10.884 -1.3390 -0.8076  2.2150
13818TIP3    H262946   0.353   1.811  10.890 -0.6939  2.5514 -3.2321
13819TIP3   OH262947   3.217   1.734   6.084  0.1404 -0.0469  0.5986
13819TIP3    H162948   3.131   1.770   6.104  0.9172  0.5716  3.1321
13819TIP3    H262949   3.237   1.674   6.156  0.3886 -3.0401 -1.7490
13820TIP3   OH262950   3.390   2.386  13.733  0.5109 -0.2357 -0.2354
13820TIP3    H162951   3.306   2.343  13.742  0.3158  0.3015  0.5982
13820TIP3    H262952   3.400   2.400  13.639 -1.1352  1.2310 -0.2405
13821TIP3   OH262953   4.241   1.672  12.656 -0.2449 -0.3710 -0.4907
13821TIP3    H162954   4.210   1.733  12.589  2.2588  0.5134 -0.9564
13821TIP3    H262955   4.243   1.587  12.612 -0.6107 -0.1742 -0.8940
13822TIP3   OH262956   2.846   1.690  16.680  0.6488 -0.0114 -0.5937
13822TIP3    H162957   2.858   1.609  16.729 -0.9074  1.0159  1.6555
13822TIP3    H262958   2.923   1.743  16.703  0.1819  0.2676  0.3596
13823TIP3   OH262959   4.636   6.335  13.702  1.2218  0.4394  0.4804
13823TIP3    H162960   4.625   6.421  13.744  0.9124  0.0004  1.3306
13823TIP3    H262961   4.692   6.286  13.762  0.3176 -0.3882  0.6838
13824TIP3   OH262962   6.675   2.965  12.411  0.0838  0.1067  0.2017
13824TIP3    H162963   6.752   2.910  12.402 -0.4302 -0.5458 -0.4120
13824TIP3    H262964   6.708   3.049  12.442  1.2804  0.4522 -1.8204
13825TIP3   OH262965   3.832   1.533  11.578  0.3136 -0.5051  0.1188
13825TIP3    H162966   3.805   1.624  11.588  1.9219  0.4950 -3.2229
13825TIP3    H262967   3.753   1.488  11.548 -0.2245  0.0027  0.7368
13826TIP3   OH262968   4.957   2.390   1.085 -0.3109 -0.8878  0.4356
13826TIP3    H162969   5.019   2.441   1.137  0.5610 -1.3216 -0.1440
13826TIP3    H262970   4.927   2.321   1.144  0.8601 -1.5265  0.3372
13827TIP3   OH262971   0.086   6.364   4.666 -0.3527  0.1594  0.0273
13827TIP3    H162972   0.086   6.458   4.649  1.3824 -0.1059 -1.7976
13827TIP3    H262973  -0.005   6.337   4.652 -0.9496  1.5559  0.8871
13828TIP3   OH262974   5.743   4.371  15.451  0.4604 -0.3186  0.1592
13828TIP3    H162975   5.680   4.442  15.467  1.3944  0.5590  0.0410
13828TIP3    H262976   5.692   4.303  15.408 -0.3367  0.5262 -0.2774
13829TIP3   OH262977   4.828   5.832  16.161  0.1443  0.2579 -0.3530
13829TIP3    H162978   4.858   5.814  16.072  1.2338  0.4055 -0.0277
13829TIP3    H262979   4.781   5.753  16.187  1.4183 -0.5499 -0.4060
13830TIP3   OH262980   6.858   2.335   2.326  0.4248  0.1822  0.0909
13830TIP3    H162981   6.942   2.377   2.304 -0.3461  1.0487 -1.3782
13830TIP3    H262982   6.883   2.255   2.373  2.0336  0.9260  0.5890
13831TIP3   OH262983   2.725   4.878   5.114  0.2471 -0.6907  0.4240
13831TIP3    H162984   2.783   4.947   5.083  0.5695  0.1918  2.8274
13831TIP3    H262985   2.757   4.798   5.071  1.0130  0.3247 -0.9628
13832TIP3   OH262986   3.854   5.836   0.709 -0.3529  0.0223  0.3085
13832TIP3    H162987   3.918   5.766   0.720  0.7156  1.1903  2.0520
13832TIP3    H262988   3.875   5.899   0.778 -3.2658  0.5653  0.8404
13833TIP3   OH262989   5.551   2.352  15.393  0.1631 -0.1541 -0.2494
13833TIP3    H162990   5.644   2.376  15.400  0.0775  0.3565 -0.7929
13833TIP3    H262991   5.544   2.307  15.309  0.3127 -2.1414  0.7225
13834TIP3   OH262992   5.085   2.782   4.963 -0.0084  0.3673  0.8140
13834TIP3    H162993   5.016   2.719   4.944 -1.5709  2.2958 -0.3946
13834TIP3    H262994   5.140   2.782   4.885 -0.5497  1.1001  0.4146
13835TIP3   OH262995   0.382   2.378   2.477 -0.4257 -0.3097  0.3060
13835TIP3    H162996   0.388   2.283   2.465  4.2008 -0.1447 -0.4949
13835TIP3    H262997   0.405   2.392   2.569  0.7351  0.0580 -0.0245
13836TIP3   OH262998   2.406   5.190   3.231 -0.3528  0.4975 -0.3118
13836TIP3    H162999   2.453   5.117   3.271  0.1545  1.0223  0.0785
13836TIP3    H263000   2.359   5.231   3.304 -1.3684  0.0336 -0.6825
13837TIP3   OH263001   6.545   6.311   0.126 -0.3936 -0.2936 -0.6235
13837TIP3    H163002   6.600   6.375   0.082 -1.6692  1.6019  0.3997
13837TIP3    H263003   6.514   6.254   0.055 -0.1336  0.9173 -1.7571
13838TIP3   OH263004   5.545   0.581   3.232 -0.2278 -0.1525  0.5682
13838TIP3    H163005   5.561   0.533   3.313  0.5700 -0.3291  0.3205
13838TIP3    H263006   5.537   0.513   3.165 -0.0269  0.0196  0.3654
13839TIP3   OH263007   1.301   0.182  12.663  0.7794  0.9149  0.9812
13839TIP3    H163008   1.324   0.096  12.629  0.3664  1.2322 -0.1287
13839TIP3    H263009   1.383   0.214  12.702  1.4754  0.8098 -0.3168
13840TIP3   OH263010   1.202   6.539  16.224  0.7349 -0.5154  0.0660
13840TIP3    H163011   1.203   6.460  16.169  0.3764 -0.6704  0.2768
13840TIP3    H263012   1.192   6.505  16.313 -0.1886 -0.2011  0.0900
13841TIP3   OH263013   2.754   0.264   5.905 -0.8006 -0.0194  0.1282
13841TIP3    H163014   2.798   0.203   5.964 -1.8090  1.1972  2.2095
13841TIP3    H263015   2.825   0.319   5.870 -0.0461 -1.5185 -0.8228
13842TIP3   OH263016   2.977   0.351  16.200 -0.4294 -0.3695  0.4151
13842TIP3    H163017   2.907   0.294  16.232 -1.4001  0.1553 -0.7037
13842TIP3    H263018   2.942   0.388  16.119  1.5191 -0.8197 -0.6827
13843TIP3   OH263019   4.899   4.489   4.262 -0.0873 -0.0427  0.0489
13843TIP3    H163020   4.945   4.408   4.286 -1.0815  0.0891  2.7576
13843TIP3    H263021   4.969   4.554   4.252  0.5626 -0.6794  0.3792
13844TIP3   OH263022   0.467   6.801   0.036 -0.1348  0.2213  0.0431
13844TIP3    H163023   0.409   6.751  -0.022 -0.0548 -0.4175  0.5115
13844TIP3    H263024   0.458   6.760   0.121 -0.2614  1.1734  0.5026
13845TIP3   OH263025   0.795   3.847   5.096 -0.1003 -0.5679  0.0138
13845TIP3    H163026   0.771   3.756   5.113  0.1151 -0.4958  0.7173
13845TIP3    H263027   0.853   3.871   5.168  1.4855 -0.4862 -1.2294
13846TIP3   OH263028   1.883   2.264   2.363  0.0856  0.0558 -0.2468
13846TIP3    H163029   1.907   2.314   2.441  1.1773 -0.3891 -0.2667
13846TIP3    H263030   1.947   2.291   2.297  0.9285 -1.5530 -0.1644
13847TIP3   OH263031   1.330   3.763  13.964 -0.3004 -0.3873  0.1002
13847TIP3    H163032   1.314   3.669  13.970  0.7416 -0.8445 -2.5522
13847TIP3    H263033   1.386   3.783  14.038  0.3243 -2.0978  0.1407
13848TIP3   OH263034   0.869   0.165   2.249  0.5907 -0.1495 -0.6430
13848TIP3    H163035   0.935   0.167   2.319  0.6211  0.8688 -0.6843
13848TIP3    H263036   0.787   0.144   2.293  0.9379 -1.5719 -0.6088
13849TIP3   OH263037   2.121   5.148   0.074 -0.9009 -0.0159 -0.1293
13849TIP3    H163038   2.112   5.053   0.067  0.5301 -0.1379 -0.5224
13849TIP3    H263039   2.061   5.183   0.008  0.2834 -0.7304 -1.6280
13850TIP3   OH263040   2.102   3.269   3.589  0.8953  0.1990  0.2664
13850TIP3    H163041   2.196   3.288   3.589  1.4699 -2.1808  2.5176
13850TIP3    H263042   2.071   3.299   3.674  0.2301 -1.5693  0.6776
13851TIP3   OH263043   6.393   0.826   2.922 -0.2727 -0.1527 -0.3200
13851TIP3    H163044   6.314   0.839   2.868 -1.0167  0.5142  0.8731
13851TIP3    H263045   6.363   0.844   3.011  1.1081 -0.4921  0.2262
13852TIP3   OH263046   1.001   1.926  12.096 -0.6001 -0.3605 -0.1449
13852TIP3    H163047   1.009   1.832  12.084 -1.6201 -0.4901  0.1100
13852TIP3    H263048   1.069   1.949  12.159 -0.5750 -0.9802  0.0556
13853TIP3   OH263049   0.435   3.512  14.251  0.3091  0.0524 -0.4308
13853TIP3    H163050   0.489   3.461  14.191  1.9108  1.2470 -0.0799
13853TIP3    H263051   0.490   3.587  14.275 -0.9706  0.5653  1.0945
13854TIP3   OH263052   5.259   5.582   5.402  0.1435  0.2073 -0.2561
13854TIP3    H163053   5.305   5.521   5.459  0.3825  0.2086 -0.4435
13854TIP3    H263054   5.328   5.617   5.345  0.2291  1.5020  0.5851
13855TIP3   OH263055   1.915   0.359   5.505  0.0184 -0.1528 -0.1484
13855TIP3    H163056   1.853   0.368   5.433  0.3095 -4.0460 -1.1344
13855TIP3    H263057   2.001   0.363   5.463  0.3050  0.6548  0.4934
13856TIP3   OH263058   1.493   3.031  11.921  0.4297  0.0360 -0.1839
13856TIP3    H163059   1.570   3.020  11.977  1.1850  1.1350 -0.9696
13856TIP3    H263060   1.506   2.968  11.850  0.8380  0.5286 -0.5518
13857TIP3   OH263061   3.579   2.853   2.778 -0.1658 -0.0458  0.2602
13857TIP3    H163062   3.641   2.783   2.797 -0.6484 -0.6889 -0.4694
13857TIP3    H263063   3.598   2.921   2.843  1.1337 -0.3259  0.1847
13858TIP3   OH263064   5.968   1.449   4.252 -0.4787 -0.6090 -0.2830
13858TIP3    H163065   6.001   1.534   4.280 -3.4349  0.6605 -0.2985
13858TIP3    H263066   6.042   1.390   4.262  1.1093  1.5451  1.7056
13859TIP3   OH263067   0.560   0.180  16.461 -0.2759 -0.1871 -0.4578
13859TIP3    H163068   0.484   0.195  16.404 -0.1806 -1.0005 -0.8230
13859TIP3    H263069   0.629   0.153  16.401 -0.3545 -1.6853  0.0900
13860TIP3   OH263070   5.807   4.314  11.996 -0.0124 -0.0666 -0.1020
13860TIP3    H163071   5.715   4.319  12.023 -0.3144  1.2532 -1.2174
13860TIP3    H263072   5.803   4.316  11.900  1.1909  0.2335 -0.1573
13861TIP3   OH263073   5.719   0.490   5.094 -0.3764 -0.4468 -0.1962
13861TIP3    H163074   5.642   0.479   5.038  0.2050  0.2129 -1.1475
13861TIP3    H263075   5.767   0.407   5.085 -2.0433 -1.7742  2.1504
13862TIP3   OH263076   5.919   1.635  12.099 -0.0422  0.6926  0.4820
13862TIP3    H163077   5.920   1.678  12.185  1.5080  0.0257  0.8378
13862TIP3    H263078   5.848   1.571  12.104 -0.2143  0.9298  1.1245
13863TIP3   OH263079   5.680   0.049   5.054 -0.2381  0.1037 -0.1019
13863TIP3    H163080   5.721   0.034   5.138 -2.5773  0.5490  1.2076
13863TIP3    H263081   5.722   0.128   5.020  1.7354 -0.8935 -0.0892
13864TIP3   OH263082   6.660   1.429  13.492 -0.2065 -0.0914 -0.0975
13864TIP3    H163083   6.724   1.500  13.482 -1.9020  1.2445 -2.3901
13864TIP3    H263084   6.645   1.397  13.403 -1.9467 -1.0635  0.4900
13865TIP3   OH263085   6.288   6.339  12.901  0.6795  0.2878 -0.2021
13865TIP3    H163086   6.353   6.324  12.832 -0.6714 -0.0296 -1.4581
13865TIP3    H263087   6.208   6.362  12.854 -0.1395  0.6638  1.3012
13866TIP3   OH263088   6.051   4.365  12.870 -0.4630  1.0454 -0.1263
13866TIP3    H163089   6.053   4.379  12.776 -1.2428  2.9410  0.0955
13866TIP3    H263090   5.959   4.370  12.894 -0.1912  1.6603  0.8695
13867TIP3   OH263091   1.012   6.287   4.991 -0.0164 -0.4651  0.2409
13867TIP3    H163092   1.069   6.350   5.034  0.3392 -1.0838  0.6875
13867TIP3    H263093   1.052   6.202   5.008 -0.6027 -0.8357 -0.1734
13868TIP3   OH263094   5.234   2.971   4.364 -0.3754 -0.0157  0.2059
13868TIP3    H163095   5.250   2.961   4.270  1.8683  1.3743  0.3700
13868TIP3    H263096   5.197   3.058   4.372  1.3395  0.6913  0.7577
13869TIP3   OH263097   3.170   6.061   2.450  0.0365 -0.0927  0.0081
13869TIP3    H163098   3.179   6.151   2.482 -2.4432 -0.5586  2.4475
13869TIP3    H263099   3.234   6.012   2.502 -2.2363 -0.4386  2.7241
13870TIP3   OH263100   0.799   1.703   3.587 -0.1465  0.0013  0.4802
13870TIP3    H163101   0.872   1.653   3.624 -0.5398 -1.4073 -0.6000
13870TIP3    H263102   0.723   1.647   3.598 -0.5022  0.1066 -1.2221
13871TIP3   OH263103   1.672   6.397   9.446 -0.1743 -0.0718  0.4747
13871TIP3    H163104   1.713   6.319   9.409 -1.5330 -0.2429 -0.7824
13871TIP3    H263105   1.647   6.370   9.535  0.2641 -0.7342  0.4080
13872TIP3   OH263106   6.352   5.820  13.590 -0.2618  0.5010  0.5021
13872TIP3    H163107   6.279   5.780  13.636 -0.7597  0.9716  0.1354
13872TIP3    H263108   6.404   5.746  13.558 -0.8405  0.1563  0.3475
13873TIP3   OH263109   1.340   5.044   5.631 -0.7187  0.1188  0.0749
13873TIP3    H163110   1.381   4.963   5.660 -0.8909 -0.3394 -0.9186
13873TIP3    H263111   1.365   5.109   5.697  0.4305 -0.4607  0.2344
13874TIP3   OH263112   2.828   3.204  13.616 -0.1003  0.0733 -0.1858
13874TIP3    H163113   2.876   3.121  13.615  2.6667  1.5327  1.2168
13874TIP3    H263114   2.854   3.248  13.535 -0.6590  0.0818 -0.3675
13875TIP3   OH263115   5.698   5.493  16.315 -0.0720 -0.0255  0.0419
13875TIP3    H163116   5.706   5.398  16.320 -0.1681 -0.0762 -0.6037
13875TIP3    H263117   5.657   5.518  16.398  1.5349 -0.3468  0.9576
13876TIP3   OH263118   2.512   4.493   5.846  0.3277 -0.0701  0.4820
13876TIP3    H163119   2.591   4.535   5.879  0.4580  1.0725 -1.1417
13876TIP3    H263120   2.454   4.566   5.824  0.4431 -0.6593 -2.1171
13877TIP3   OH263121   6.756   4.012  15.154  0.4183 -0.0949 -0.6368
13877TIP3    H163122   6.825   4.057  15.203  0.3738 -0.5715 -0.1236
13877TIP3    H263123   6.679   4.016  15.211  0.8263 -2.2181  0.1735
13878TIP3   OH263124   1.348   4.326  13.933 -0.3549  0.1376  0.3563
13878TIP3    H163125   1.312   4.305  13.847  0.9132  0.3096 -0.2229
13878TIP3    H263126   1.293   4.398  13.965 -2.0218 -1.1402  0.5268
13879TIP3   OH263127   0.622   2.666  13.571  0.0342  0.1903 -1.0635
13879TIP3    H163128   0.693   2.688  13.631 -0.3097 -2.2043  0.3527
13879TIP3    H263129   0.651   2.701  13.486  0.9866  2.8048  0.2205
13880TIP3   OH263130   1.571   5.141  16.617 -0.0464  0.2467  0.3688
13880TIP3    H163131   1.635   5.180  16.558  0.2380  1.0009  1.1516
13880TIP3    H263132   1.624   5.090  16.678 -0.1950  0.7252  0.9074
13881TIP3   OH263133   2.822   0.593   5.634  0.1442 -0.2912 -0.0204
13881TIP3    H163134   2.877   0.613   5.558 -0.4285  0.0550 -0.3486
13881TIP3    H263135   2.748   0.544   5.598 -0.2647  0.1107  0.2742
13882TIP3   OH263136   5.932   4.965   5.040 -0.4398 -0.6233  0.0614
13882TIP3    H163137   5.917   4.991   4.949  0.4104  0.7178  0.2748
13882TIP3    H263138   5.866   4.898   5.057 -1.4794  0.0466 -1.1523
13883TIP3   OH263139   0.574   5.876   2.342 -0.1505 -0.1931 -0.0998
13883TIP3    H163140   0.601   5.810   2.406  0.2528  1.4508  1.5138
13883TIP3    H263141   0.648   5.883   2.282  0.1055 -0.7133  0.1522
13884TIP3   OH263142   2.890   6.698  10.182  0.2750 -0.1706  0.1262
13884TIP3    H163143   2.845   6.774  10.145 -1.6002 -1.3594 -0.2057
13884TIP3    H263144   2.953   6.735  10.243  1.9085  1.7756 -2.5421
13885TIP3   OH263145   2.514   1.674  14.321 -0.0925 -1.0010  0.4763
13885TIP3    H163146   2.475   1.715  14.244  1.3679  0.9352  0.6779
13885TIP3    H263147   2.486   1.583  14.317 -2.2954 -0.3356 -0.8316
13886TIP3   OH263148   0.618   6.384   4.698  0.2593  0.5261 -0.3017
13886TIP3    H163149   0.670   6.352   4.771 -0.9818 -0.6358  0.1281
13886TIP3    H263150   0.532   6.404   4.737 -0.0244  1.1554 -1.2040
13887TIP3   OH263151   4.417   2.698  12.395  0.4051  0.2946  0.2186
13887TIP3    H163152   4.425   2.693  12.490  0.8475  0.3765  0.1880
13887TIP3    H263153   4.507   2.704  12.363  0.2339  1.0810 -0.1605
13888TIP3   OH263154   4.932   2.888   1.174 -0.4458  0.3933 -0.0885
13888TIP3    H163155   5.003   2.857   1.117 -1.2346 -0.8823 -0.4034
13888TIP3    H263156   4.857   2.897   1.116 -1.0013  0.0329  0.5673
13889TIP3   OH263157   3.206   1.460   5.525  0.7255 -0.3269  0.4915
13889TIP3    H163158   3.228   1.367   5.521  0.2586 -0.4200  0.0392
13889TIP3    H263159   3.183   1.475   5.616 -0.8576 -1.0415  0.2427
13890TIP3   OH263160   1.690   4.987   1.270 -0.2861  0.0322  0.6414
13890TIP3    H163161   1.646   5.071   1.282 -0.5887  0.1297 -0.9283
13890TIP3    H263162   1.624   4.932   1.226  0.2047 -0.7326  0.8508
13891TIP3   OH263163   6.651   4.485   0.130 -0.4057  0.2261 -0.1285
13891TIP3    H163164   6.678   4.436   0.209 -2.7055  0.3436  0.7970
13891TIP3    H263165   6.676   4.429   0.057  1.1582 -0.2025  0.6941
13892TIP3   OH263166   1.752   1.682  11.646  0.1077  0.3390  0.8139
13892TIP3    H163167   1.677   1.656  11.700 -0.7834 -0.3863 -0.7093
13892TIP3    H263168   1.718   1.750  11.588  0.6099 -0.0375  0.0622
13893TIP3   OH263169   1.581   5.973  15.846  0.7508  0.8688  0.6119
13893TIP3    H163170   1.495   5.973  15.889  0.5256  1.7446  0.1990
13893TIP3    H263171   1.644   5.966  15.918  0.3539  1.1393  0.9929
13894TIP3   OH263172   3.761   3.408   1.357 -0.4136 -0.2602  0.4786
13894TIP3    H163173   3.765   3.389   1.263 -1.0579  1.9703 -0.0498
13894TIP3    H263174   3.759   3.321   1.398  0.5189 -1.3077 -1.5024
13895TIP3   OH263175   3.892   3.031  12.018 -0.0212  0.0767 -0.0461
13895TIP3    H163176   3.849   2.951  12.048  1.6427 -0.1706  1.9226
13895TIP3    H263177   3.851   3.050  11.934 -2.9374 -0.8996  0.9955
13896TIP3   OH263178   1.068   4.841   5.866 -0.0200  0.3253 -0.1832
13896TIP3    H163179   1.105   4.774   5.809 -0.4248 -0.4864  0.5030
13896TIP3    H263180   1.121   4.837   5.946 -1.7123 -1.0585  0.9329
13897TIP3   OH263181   5.307   5.584  11.602  0.0785 -0.2596  0.2204
13897TIP3    H163182   5.352   5.668  11.591 -1.7308  0.9791  1.5631
13897TIP3    H263183   5.309   5.543  11.516  0.7564  1.2989 -0.5341
13898TIP3   OH263184   6.451   4.782  14.663  0.0409 -0.0445 -0.0835
13898TIP3    H163185   6.493   4.867  14.652  0.4183 -0.0981  0.8752
13898TIP3    H263186   6.522   4.722  14.684 -0.2110 -0.6301 -0.8225
13899TIP3   OH263187   0.232   6.494   2.644  0.2515 -0.1587 -0.4982
13899TIP3    H163188   0.199   6.443   2.570  0.0149 -0.8381  0.0658
13899TIP3    H263189   0.327   6.483   2.642  0.0912 -2.3905  0.8423
13900TIP3   OH263190   2.237   0.325  10.701  0.1393  0.1374  0.2291
13900TIP3    H163191   2.283   0.407  10.721 -1.8580  1.4724 -0.3243
13900TIP3    H263192   2.241   0.318  10.605 -1.6451  0.8949  0.0418
13901TIP3   OH263193   2.435   2.367  13.495 -0.5450  0.0571 -0.5556
13901TIP3    H163194   2.497   2.396  13.562 -0.8444  1.0248 -0.6814
13901TIP3    H263195   2.449   2.273  13.488 -0.8725 -0.1482  1.2478
13902TIP3   OH263196   0.151   3.727  12.392 -0.1019  0.2430  0.1371
13902TIP3    H163197   0.112   3.748  12.476 -1.8899 -1.3680 -0.2404
13902TIP3    H263198   0.143   3.808  12.341 -4.0010 -0.2380 -0.2653
13903TIP3   OH263199   0.292   6.776   2.333  0.1404 -1.2308  0.1949
13903TIP3    H163200   0.327   6.775   2.423  2.7125  0.3639 -0.6795
13903TIP3    H263201   0.351   6.718   2.285  0.4917  0.0656 -0.9808
13904TIP3   OH263202   5.309   1.482  12.038 -0.2748  0.2630  0.2565
13904TIP3    H163203   5.296   1.413  12.103 -1.6335 -1.3860 -1.6333
13904TIP3    H263204   5.355   1.439  11.966 -0.3041  1.5712 -0.5770
13905TIP3   OH263205   2.360   0.762  16.329 -0.2656  0.0583  0.7717
13905TIP3    H163206   2.431   0.747  16.267  0.5678  0.3460  1.6184
13905TIP3    H263207   2.291   0.805  16.279 -0.3653 -1.3508 -0.3654
13906TIP3   OH263208   6.876   0.748  13.836  0.2495  0.6610 -0.2785
13906TIP3    H163209   6.921   0.823  13.875  0.3836  0.6060 -0.3284
13906TIP3    H263210   6.888   0.677  13.899  0.8250  0.4575 -0.6147
13907TIP3   OH263211   2.531   0.925   3.717  0.0733  0.0097  0.0866
13907TIP3    H163212   2.444   0.965   3.712  0.0048  0.1488  1.6878
13907TIP3    H263213   2.583   0.971   3.651 -0.8658  0.4489 -0.3615
13908TIP3   OH263214   2.182   0.608  15.117 -0.3693  0.2184  0.5976
13908TIP3    H163215   2.155   0.616  15.025 -0.5777 -1.2401  0.5024
13908TIP3    H263216   2.107   0.641  15.166  0.1473  1.9885  0.2543
13909TIP3   OH263217   4.984   5.751  11.508  0.0958 -0.3290  0.1499
13909TIP3    H163218   4.992   5.675  11.565  1.5985  0.9621  1.7612
13909TIP3    H263219   4.903   5.736  11.459 -1.2967 -1.4735  2.6388
13910TIP3   OH263220   3.736   0.063   5.307  0.2934 -0.3139 -0.2378
13910TIP3    H163221   3.680   0.115   5.249  1.2467 -0.7947 -1.6495
13910TIP3    H263222   3.823   0.070   5.268  1.2677  0.4364  1.8989
13911TIP3   OH263223   1.429   5.453   4.572  0.0874 -0.0476 -0.1708
13911TIP3    H163224   1.480   5.374   4.591  1.5790  0.2313 -2.5808
13911TIP3    H263225   1.492   5.525   4.581 -0.4411  0.5362 -1.0409
13912TIP3   OH263226   3.394   0.148  15.439 -0.0630 -0.0849 -0.5348
13912TIP3    H163227   3.422   0.062  15.471 -1.2405 -0.8583 -1.4817
13912TIP3    H263228   3.299   0.144  15.442 -0.1352  0.9866 -1.1220
13913TIP3   OH263229   2.997   0.891  16.108  0.3545  0.2611  0.2505
13913TIP3    H163230   3.086   0.871  16.137  0.8097 -2.4418 -2.4721
13913TIP3    H263231   2.941   0.843  16.169  0.9116 -0.0516  0.5270
13914TIP3   OH263232   6.235   5.620   0.506 -0.5813  0.1957 -0.0343
13914TIP3    H163233   6.247   5.583   0.418 -2.4337  0.0279 -0.2446
13914TIP3    H263234   6.309   5.680   0.517  0.8552 -1.3293 -0.8642
13915TIP3   OH263235   5.157   6.312   9.984 -0.5819  0.6904 -0.5304
13915TIP3    H163236   5.159   6.407   9.997 -0.8446  0.5383  0.7400
13915TIP3    H263237   5.082   6.297   9.927 -0.8853  1.1966 -0.2667
13916TIP3   OH263238   4.778   4.373   3.276 -0.2477  0.2025  0.0550
13916TIP3    H163239   4.688   4.371   3.309  0.0514 -2.2898  0.9272
13916TIP3    H263240   4.831   4.400   3.351 -0.2144  1.8095 -0.4949
13917TIP3   OH263241   6.409   6.782   0.147  0.1115  0.1918 -0.6691
13917TIP3    H163242   6.391   6.769   0.240 -1.3491  0.9632 -0.8203
13917TIP3    H263243   6.354   6.719   0.101  1.0712 -0.4180 -1.0310
13918TIP3   OH263244   6.298   0.337  12.205 -0.5209  0.1932  0.2531
13918TIP3    H163245   6.346   0.408  12.161  0.3301  1.4488  2.9919
13918TIP3    H263246   6.354   0.260  12.194 -1.8847 -0.5015 -3.5621
13919TIP3   OH263247   2.630   4.062   1.780 -0.1735  0.1099  0.7574
13919TIP3    H163248   2.604   4.136   1.724  0.2152 -1.0085 -0.9611
13919TIP3    H263249   2.672   4.104   1.856 -0.0800  1.6560 -0.0984
13920TIP3   OH263250   3.455   3.012   2.309  0.8195  0.4036  0.5439
13920TIP3    H163251   3.370   2.975   2.334  1.2427 -0.3779  0.8367
13920TIP3    H263252   3.519   2.963   2.361  1.5688  0.0180 -0.7125
13921TIP3   OH263253   5.558   1.304   0.556  0.1096 -0.2305 -0.5441
13921TIP3    H163254   5.613   1.233   0.588 -1.4349 -0.1764  2.7320
13921TIP3    H263255   5.616   1.381   0.553  1.3402 -1.1681 -2.2948
13922TIP3   OH263256   3.585   3.778  11.552  0.0591 -0.5444  0.0136
13922TIP3    H163257   3.551   3.814  11.634 -0.0711  0.7218 -0.5637
13922TIP3    H263258   3.508   3.742  11.508 -0.1724  0.2841 -0.2823
13923TIP3   OH263259   3.307   3.412   4.465 -0.2078 -0.0477  0.2679
13923TIP3    H163260   3.217   3.402   4.493 -0.7336 -0.8101 -1.5450
13923TIP3    H263261   3.348   3.327   4.483  0.5378  0.6876  2.2632
13924TIP3   OH263262   3.597   3.588  10.687 -0.5656 -0.3605 -0.1789
13924TIP3    H163263   3.635   3.654  10.630 -1.5985  0.7261  0.3471
13924TIP3    H263264   3.569   3.636  10.765  0.0091 -1.6587  0.8812
13925TIP3   OH263265   2.534   0.531  15.565  0.7049  0.2251  0.3033
13925TIP3    H163266   2.574   0.450  15.532 -1.5617 -0.9415  0.1738
13925TIP3    H263267   2.594   0.561  15.633  1.7239 -1.4592  0.2164
13926TIP3   OH263268   6.595   0.476  12.376  0.5271  0.1019  0.3473
13926TIP3    H163269   6.610   0.491  12.470 -1.7707 -1.6603  1.0792
13926TIP3    H263270   6.502   0.492  12.364  0.8382  0.5600 -1.7404
13927TIP3   OH263271   6.201   3.189   0.445 -0.2876 -0.2845  0.2437
13927TIP3    H163272   6.205   3.284   0.444  1.6610 -0.3332 -0.0685
13927TIP3    H263273   6.127   3.169   0.503 -0.4813  1.4010  0.6332
13928TIP3   OH263274   6.669   0.446   3.311 -0.1730  0.0946 -0.6452
13928TIP3    H163275   6.669   0.532   3.271  1.2967  0.0300 -0.8126
13928TIP3    H263276   6.724   0.392   3.254 -0.6258 -0.8178 -0.2493
13929TIP3   OH263277   5.700   2.390  11.806 -0.4436  0.1741  0.4116
13929TIP3    H163278   5.791   2.406  11.782 -1.1696  2.2272 -1.3629
13929TIP3    H263279   5.661   2.351  11.728 -0.9413 -1.4297  1.4269
13930TIP3   OH263280   0.743   4.218   0.049  0.4198  0.0064 -0.3396
13930TIP3    H163281   0.815   4.161   0.020 -0.0515 -0.8213  0.0884
13930TIP3    H263282   0.724   4.273  -0.027  0.3551 -0.9562 -1.0370
13931TIP3   OH263283   1.903   5.312   1.893 -0.2567 -0.4599 -0.3960
13931TIP3    H163284   1.879   5.284   1.982  0.9886  0.0431  0.1378
13931TIP3    H263285   1.824   5.353   1.858 -0.5673 -0.0427  0.7509
13932TIP3   OH263286   4.567   0.509  12.104 -0.0943  0.5632 -0.0490
13932TIP3    H163287   4.591   0.424  12.067  1.0516  1.3736 -1.2534
13932TIP3    H263288   4.505   0.488  12.174 -0.3963 -1.2049 -0.7916
13933TIP3   OH263289   5.063   2.064   4.366  0.4095 -0.2988 -0.0866
13933TIP3    H163290   5.108   2.116   4.299 -1.9301  3.2794  0.8154
13933TIP3    H263291   4.972   2.062   4.337 -0.3124 -0.2764  1.9913
13934TIP3   OH263292   5.799   2.110  15.917  0.7843  0.4227 -0.4582
13934TIP3    H163293   5.860   2.069  15.855  1.3258 -0.9560  0.9414
13934TIP3    H263294   5.783   2.197  15.879  1.9431  0.0320 -1.9684
13935TIP3   OH263295   6.338   2.529  15.235  0.2184  0.6166  0.4817
13935TIP3    H163296   6.281   2.587  15.287  0.8300  1.4593  0.2319
13935TIP3    H263297   6.359   2.457  15.294 -1.1634  0.2445  0.5601
13936TIP3   OH263298   1.899   6.557   4.818  0.6093 -0.2331  0.2929
13936TIP3    H163299   1.918   6.595   4.904 -1.6682  4.3755 -0.9310
13936TIP3    H263300   1.805   6.537   4.821  0.7983 -1.4536 -0.7367
13937TIP3   OH263301   4.940   5.230  12.398 -0.2589  0.5085 -0.7046
13937TIP3    H163302   5.010   5.197  12.455  1.6965  1.5453 -2.3345
13937TIP3    H263303   4.915   5.313  12.437  0.8778  1.0816 -1.1210
13938TIP3   OH263304   2.680   6.419   0.223 -0.1913 -0.3167 -0.3779
13938TIP3    H163305   2.655   6.448   0.135 -0.6706  0.6597  0.0621
13938TIP3    H263306   2.776   6.427   0.224 -0.1420 -0.7810 -0.9584
13939TIP3   OH263307   3.615   5.441  10.426 -0.6656 -0.0820 -0.4084
13939TIP3    H163308   3.667   5.462  10.348 -1.8701  0.0064 -1.2295
13939TIP3    H263309   3.533   5.489  10.412 -0.5146  0.7918  1.4406
13940TIP3   OH263310   5.283   0.941   4.507 -0.2884  0.3785  0.6286
13940TIP3    H163311   5.235   0.976   4.582  2.1924  4.0801  0.7597
13940TIP3    H263312   5.301   1.018   4.452  0.7177 -1.6885 -2.1903
13941TIP3   OH263313   5.898   5.173  13.980  0.3459 -0.2545 -0.2863
13941TIP3    H163314   5.824   5.148  13.924  0.2602  1.1693 -0.8657
13941TIP3    H263315   5.975   5.165  13.923  0.5652 -1.1098  0.1223
13942TIP3   OH263316   0.427   1.286  12.780  0.5453  0.1231 -0.1716
13942TIP3    H163317   0.401   1.341  12.707  0.7634 -1.2620 -1.3529
13942TIP3    H263318   0.418   1.196  12.746  2.4084 -0.5131  0.8761
13943TIP3   OH263319   2.820   6.161  12.628  0.1997 -0.0933  0.2202
13943TIP3    H163320   2.908   6.136  12.600  0.3751  2.0759 -1.4798
13943TIP3    H263321   2.835   6.234  12.689 -0.3816  0.8649 -0.7418
13944TIP3   OH263322   3.968   3.224  14.790  0.1069 -0.0559  0.4429
13944TIP3    H163323   4.059   3.253  14.794  0.0728  0.0087  0.7287
13944TIP3    H263324   3.967   3.161  14.718  0.4407 -0.2799  0.6321
13945TIP3   OH263325   0.757   0.207   3.472 -1.1959 -0.0107  0.1866
13945TIP3    H163326   0.787   0.166   3.553  0.7161 -1.4053 -1.1163
13945TIP3    H263327   0.663   0.218   3.483 -0.9143  0.3164  2.7539
13946TIP3   OH263328   3.718   6.492   4.614 -0.5040  0.1197  0.2566
13946TIP3    H163329   3.641   6.464   4.565  0.3269  0.3827 -1.2334
13946TIP3    H263330   3.719   6.587   4.605  0.9559  0.0042 -1.2828
13947TIP3   OH263331   3.722   5.646  16.217 -0.3724  0.5667 -0.6265
13947TIP3    H163332   3.740   5.558  16.184 -0.7487  0.3740 -0.3272
13947TIP3    H263333   3.695   5.632  16.308 -3.6284  0.6738 -1.4738
13948TIP3   OH263334   0.846   5.304  10.666  0.0867  0.4311  0.4920
13948TIP3    H163335   0.794   5.237  10.621 -0.6506  2.1837 -1.4935
13948TIP3    H263336   0.823   5.295  10.758 -0.4112 -1.6349  0.2125
13949TIP3   OH263337   1.049   5.504  15.866 -0.3380  0.6369  0.0158
13949TIP3    H163338   1.062   5.429  15.924  0.6121  1.2945  0.6785
13949TIP3    H263339   1.020   5.575  15.923  2.0784  1.7287  0.0167
13950TIP3   OH263340   5.939   3.593   2.328 -0.1992  0.5642 -0.5027
13950TIP3    H163341   6.000   3.580   2.401 -0.4388  1.0137 -0.2154
13950TIP3    H263342   5.954   3.683   2.300 -1.1857  0.9020  0.0073
13951TIP3   OH263343   5.121   4.208   1.282  0.1178 -0.6107 -0.6825
13951TIP3    H163344   5.194   4.262   1.313  1.4046 -2.5342 -0.2018
13951TIP3    H263345   5.042   4.254   1.313  1.1729  0.5403  0.4120
13952TIP3   OH263346   1.706   0.032   3.324  0.5617  0.0686  0.3801
13952TIP3    H163347   1.781   0.037   3.384  0.5967  2.2433  0.2046
13952TIP3    H263348   1.690   0.122   3.297 -1.2622 -0.5217 -0.6809
13953TIP3   OH263349   5.562   6.830  10.570  0.5875 -0.1252 -0.2666
13953TIP3    H163350   5.607   6.802  10.491 -0.6814 -1.8141 -0.4482
13953TIP3    H263351   5.614   6.903  10.603  1.6067  0.0661 -2.1835
13954TIP3   OH263352   5.627   5.143   2.141 -0.4210  0.6436  0.5740
13954TIP3    H163353   5.684   5.127   2.066 -1.2879 -1.6180  0.3074
13954TIP3    H263354   5.550   5.186   2.104  0.1281  1.6872  0.5905
13955TIP3   OH263355   4.979   2.275   2.846 -0.1566  0.1697 -0.3595
13955TIP3    H163356   4.934   2.205   2.892  0.9184  0.0897  0.6173
13955TIP3    H263357   5.065   2.239   2.824  0.2065  0.9869 -0.3383
13956TIP3   OH263358   1.296   6.807   0.249  0.1610 -0.3837  0.1953
13956TIP3    H163359   1.293   6.881   0.310  0.0527  0.2347 -0.5474
13956TIP3    H263360   1.303   6.730   0.306 -1.7353  0.0211  1.0836
13957TIP3   OH263361   2.371   1.938   5.318  0.2509  0.7015  0.2415
13957TIP3    H163362   2.332   1.935   5.405  0.2618 -1.1630  0.2322
13957TIP3    H263363   2.298   1.919   5.258  0.4816  0.6993 -0.0446
13958TIP3   OH263364   0.971   3.665  11.954  0.1069 -0.2630  0.0707
13958TIP3    H163365   1.059   3.629  11.964  0.0833 -0.1167  0.8519
13958TIP3    H263366   0.924   3.637  12.032 -0.1236  0.8342  0.3468
13959TIP3   OH263367   5.850   6.635  14.020 -0.6515 -0.3028  0.0228
13959TIP3    H163368   5.757   6.614  14.023 -0.5824 -0.6446 -0.1981
13959TIP3    H263369   5.877   6.637  14.112 -0.5246 -1.8073  0.0394
13960TIP3   OH263370   0.338   5.149   3.062  0.6070 -0.0495  0.0220
13960TIP3    H163371   0.363   5.063   3.028  1.4923  0.1853  0.0421
13960TIP3    H263372   0.378   5.211   3.002  0.2508  0.3541  0.1971
13961TIP3   OH263373   5.670   6.594   0.612 -1.0329  0.1785 -0.0537
13961TIP3    H163374   5.599   6.658   0.604  0.1127  1.6501  0.9999
13961TIP3    H263375   5.745   6.636   0.570 -0.3210 -0.5887  0.4220
13962TIP3   OH263376   0.523   1.424   4.647  0.4076 -0.2408 -0.4229
13962TIP3    H163377   0.601   1.407   4.700 -0.2919 -0.3515  0.5909
13962TIP3    H263378   0.501   1.515   4.667  0.9600  0.1923 -1.6449
13963TIP3   OH263379   5.428   1.050  11.263 -0.2193 -0.2420  0.4373
13963TIP3    H163380   5.363   0.981  11.254  1.6111 -1.8883 -1.2936
13963TIP3    H263381   5.444   1.080  11.173  0.0125  1.5104  1.0212
13964TIP3   OH263382   4.739   0.531   5.220  0.8944  0.2071 -0.0065
13964TIP3    H163383   4.758   0.624   5.209 -0.8891  0.5075 -0.8296
13964TIP3    H263384   4.771   0.510   5.308  1.0790  1.6458  0.2902
13965TIP3   OH263385   0.232   0.383  11.869 -0.4965 -0.2143  0.4109
13965TIP3    H163386   0.298   0.345  11.810 -0.7690 -1.6366  0.9948
13965TIP3    H263387   0.217   0.470  11.833  3.3223  1.1085  1.4755
13966TIP3   OH263388   5.110   0.797   2.083  0.0544  0.1008 -0.0460
13966TIP3    H163389   5.085   0.889   2.095  0.2050  0.0308  0.8242
13966TIP3    H263390   5.054   0.767   2.011 -0.0882  0.8381 -0.2521
13967TIP3   OH263391   2.501   1.655  13.576  0.1866  0.5060 -0.7196
13967TIP3    H163392   2.439   1.614  13.636 -0.8973  0.0140 -2.1212
13967TIP3    H263393   2.587   1.628  13.609 -0.4399 -1.3406 -0.4849
13968TIP3   OH263394   2.111   5.858   4.488  0.4558  0.2592  0.7530
13968TIP3    H163395   2.130   5.803   4.564  1.6505  0.0462  0.3203
13968TIP3    H263396   2.153   5.941   4.507  1.6791 -0.1342 -0.1100
13969TIP3   OH263397   4.928   0.021  11.487 -0.0335 -0.3750 -0.1410
13969TIP3    H163398   4.973   0.084  11.432  0.4616 -0.3084  0.3371
13969TIP3    H263399   4.861   0.072  11.533  0.2234 -0.2342  0.0811
13970TIP3   OH263400   0.700   3.221  16.278 -0.5371 -0.2301 -0.4998
13970TIP3    H163401   0.661   3.170  16.349 -0.2577  0.5700  0.2362
13970TIP3    H263402   0.794   3.202  16.283 -0.0985  2.0120  1.2038
13971TIP3   OH263403   2.683   4.091  14.305  0.4287 -0.3203  0.2745
13971TIP3    H163404   2.751   4.049  14.357  0.9014 -0.3926 -0.3857
13971TIP3    H263405   2.729   4.125  14.229 -0.0862  0.6643  0.3884
13972TIP3   OH263406   4.059   3.133   1.647  0.1352 -0.1228  0.0769
13972TIP3    H163407   4.089   3.054   1.604  1.6395 -0.8644  2.3134
13972TIP3    H263408   4.131   3.158   1.705 -1.7171  0.7826  2.1227
13973TIP3   OH263409   2.799   3.667   5.033 -0.1962  0.1423  0.6004
13973TIP3    H163410   2.833   3.661   5.123  0.0777  2.2497  0.6895
13973TIP3    H263411   2.759   3.754   5.029 -1.1504 -0.3436 -1.0248
13974TIP3   OH263412   4.127   2.858  11.932  0.5834 -0.0955  0.6499
13974TIP3    H163413   4.204   2.859  11.875  1.6683  0.0401  2.0763
13974TIP3    H263414   4.052   2.862  11.871  1.7007  2.1161 -0.6789
13975TIP3   OH263415   4.905   4.356   4.976 -0.2010 -0.0567 -0.0617
13975TIP3    H163416   4.885   4.295   5.047 -1.9122 -1.1080 -1.3773
13975TIP3    H263417   4.874   4.441   5.009  0.9447 -0.0986  1.2348
13976TIP3   OH263418   6.244   6.362   6.393 -0.2887  0.2745  0.0951
13976TIP3    H163419   6.164   6.414   6.390 -1.4835 -1.5058 -1.9580
13976TIP3    H263420   6.301   6.403   6.327  0.8662  1.9636  2.0361
13977TIP3   OH263421   5.984   5.429   1.901  0.0904  0.3313 -0.2784
13977TIP3    H163422   5.895   5.408   1.873  0.0943  0.4715 -0.3934
13977TIP3    H263423   5.988   5.525   1.898  1.0025  0.2751 -2.6056
13978TIP3   OH263424   5.473   1.247  16.273 -0.2547  0.0734 -0.1268
13978TIP3    H163425   5.447   1.155  16.280 -0.7419  0.2203  0.0184
13978TIP3    H263426   5.437   1.289  16.351  1.2086  0.1063  0.5558
13979TIP3   OH263427   6.234   0.547  13.694 -0.0351 -0.4418 -0.2318
13979TIP3    H163428   6.262   0.494  13.768  0.0388  0.4807  0.4128
13979TIP3    H263429   6.166   0.605  13.730 -1.8887 -1.7463 -1.4674
13980TIP3   OH263430   4.152   1.539  14.985  0.0837  0.3222  0.3765
13980TIP3    H163431   4.183   1.585  14.907 -1.1815 -1.2522 -1.1278
13980TIP3    H263432   4.056   1.548  14.981 -0.0921 -1.1698  0.8272
13981TIP3   OH263433   0.419   1.847  16.617 -0.3604  0.0120 -0.1094
13981TIP3    H163434   0.387   1.757  16.627  2.1499 -0.9487  0.0327
13981TIP3    H263435   0.463   1.866  16.700  1.2713  0.4103 -1.0265
13982TIP3   OH263436   5.310   1.441   1.418  0.0059 -0.1357  0.2216
13982TIP3    H163437   5.330   1.399   1.502  0.5259 -2.4954 -0.9901
13982TIP3    H263438   5.385   1.419   1.362 -1.4042 -0.6975 -1.5427
13983TIP3   OH263439   2.172   0.779   1.243 -0.2192  0.1697  0.0126
13983TIP3    H163440   2.119   0.734   1.310 -0.4210 -1.1649 -1.0039
13983TIP3    H263441   2.239   0.715   1.219  0.6017  1.0926 -0.1997
13984TIP3   OH263442   6.120   6.201  16.382  0.4450  0.2491  0.5300
13984TIP3    H163443   6.172   6.256  16.324  0.3041 -0.3038 -0.1249
13984TIP3    H263444   6.080   6.263  16.443  1.3718  0.7387  0.6627
13985TIP3   OH263445   3.556   5.254  13.288  0.5046 -1.1198  0.0491
13985TIP3    H163446   3.487   5.296  13.236  1.0194 -0.1763  0.0983
13985TIP3    H263447   3.636   5.266  13.236  1.2939  1.0489  1.6182
13986TIP3   OH263448   5.453   2.015  15.666  0.1932 -0.0029  0.1897
13986TIP3    H163449   5.506   1.956  15.720 -0.3593 -0.3715  0.3345
13986TIP3    H263450   5.459   1.979  15.578 -0.3440 -0.4186  0.3215
13987TIP3   OH263451   3.724   1.734   4.402 -0.1319 -0.4157  0.2004
13987TIP3    H163452   3.769   1.664   4.448  1.4874  0.3752 -0.1166
13987TIP3    H263453   3.736   1.811   4.458  0.1289  0.1104 -0.5545
13988TIP3   OH263454   1.411   5.432   4.277  0.5088 -0.0216 -0.2296
13988TIP3    H163455   1.463   5.511   4.288  0.2947  0.1138 -0.1814
13988TIP3    H263456   1.363   5.423   4.359  2.1698 -1.4186  0.6501
13989TIP3   OH263457   5.357   0.918   3.980 -0.7843 -0.3698 -0.0645
13989TIP3    H163458   5.435   0.958   3.939 -0.5814  0.5698  1.1714
13989TIP3    H263459   5.287   0.982   3.963 -1.4517 -1.4497 -1.6179
13990TIP3   OH263460   2.820   6.236   0.353 -0.0450 -1.2325  0.6740
13990TIP3    H163461   2.744   6.275   0.310  0.1391  0.8726  2.1168
13990TIP3    H263462   2.863   6.186   0.284  0.3411  2.0762 -1.7386
13991TIP3   OH263463   4.520   6.353   1.961  0.2041 -0.1292  0.0414
13991TIP3    H163464   4.556   6.400   2.036 -0.4208 -2.2001  1.7183
13991TIP3    H263465   4.428   6.338   1.983 -0.4859  0.7975 -1.9846
13992TIP3   OH263466   5.693   6.156  16.145  0.6395  0.0529 -0.0871
13992TIP3    H163467   5.706   6.247  16.116  0.7179 -0.4623 -1.7864
13992TIP3    H263468   5.776   6.113  16.129  0.4848 -0.4208  0.3463
13993TIP3   OH263469   0.025   6.632   2.315 -0.3580  0.3760  0.2747
13993TIP3    H163470   0.107   6.677   2.296  0.0058  0.1445  1.2517
13993TIP3    H263471  -0.040   6.703   2.322 -0.5909  0.4774 -1.9692
13994TIP3   OH263472   4.727   0.902   4.364 -0.2064 -0.3598 -0.0754
13994TIP3    H163473   4.642   0.941   4.345 -0.2545  0.4612  1.5810
13994TIP3    H263474   4.787   0.945   4.305 -0.7932 -0.2544 -0.6057
13995TIP3   OH263475   6.499   0.605   5.418 -0.2043 -0.0348  0.0459
13995TIP3    H163476   6.448   0.598   5.499 -1.6359  1.3915 -0.6630
13995TIP3    H263477   6.482   0.523   5.372 -3.5441  1.0850 -1.0232
13996TIP3   OH263478   6.876   4.509   2.989  0.1818 -0.6155  0.3121
13996TIP3    H163479   6.951   4.475   2.940 -0.2915 -1.3566  0.0822
13996TIP3    H263480   6.881   4.604   2.979  1.7618 -0.5489  1.2918
13997TIP3   OH263481   2.745   3.371  16.256 -0.2189  0.4291 -0.1459
13997TIP3    H163482   2.713   3.283  16.236 -1.2626  0.5506  0.8344
13997TIP3    H263483   2.670   3.428  16.238 -0.4461  0.7894  1.7491
13998TIP3   OH263484   4.982   0.185   5.901  0.8333  0.1991  0.1098
13998TIP3    H163485   4.990   0.093   5.875 -0.0843 -0.1164  0.8699
13998TIP3    H263486   5.068   0.222   5.884  0.1939  0.2304 -3.9454
13999TIP3   OH263487   2.485   4.192   3.950  0.1059  0.1400 -0.1227
13999TIP3    H163488   2.434   4.115   3.973 -0.8911  0.4659 -1.1386
13999TIP3    H263489   2.537   4.165   3.874  2.2790 -0.4954  1.4916
14000TIP3   OH263490   4.182   0.626  14.852  0.1276 -0.5889 -0.2451
14000TIP3    H163491   4.111   0.581  14.899  1.4622 -3.1390 -0.4921
14000TIP3    H263492   4.196   0.573  14.773  1.2633  0.7820 -1.0234
14001TIP3   OH263493   5.277   0.947  14.617 -0.3819 -0.2269 -0.3986
14001TIP3    H163494   5.218   0.962  14.691 -1.8864 -0.9737 -1.4057
14001TIP3    H263495   5.363   0.934  14.657 -0.7352  1.5586  1.0742
14002TIP3   OH263496   4.287   4.937  14.358  0.0823 -0.1977  0.1207
14002TIP3    H163497   4.327   4.852  14.340  0.1912 -0.3228  0.9190
14002TIP3    H263498   4.235   4.923  14.437 -0.4443  0.3135 -0.1244
14003TIP3   OH263499   0.608   0.308  11.668 -0.3346 -0.1313  0.3046
14003TIP3    H163500   0.564   0.256  11.601  0.8442  0.3275 -0.8997
14003TIP3    H263501   0.595   0.260  11.749 -2.0408 -0.5790 -0.2023
14004TIP3   OH263502   2.352   6.660  13.974 -0.1605  0.1042  0.2106
14004TIP3    H163503   2.313   6.747  13.976 -0.7100 -0.0985  3.3928
14004TIP3    H263504   2.429   6.666  14.030  1.0220 -1.0070 -1.1774
14005TIP3   OH263505   2.662   4.957   1.941  0.0470 -0.7503 -0.0195
14005TIP3    H163506   2.703   4.999   1.865  0.6322 -2.8698 -0.9393
14005TIP3    H263507   2.580   4.920   1.907 -0.4150 -0.4812  0.7562
14006TIP3   OH263508   1.021   4.830  13.607  0.6130 -0.1264 -0.6221
14006TIP3    H163509   1.040   4.755  13.663  0.2210  1.5680  1.9574
14006TIP3    H263510   1.098   4.841  13.552  1.4438 -1.2941  0.2881
14007TIP3   OH263511   3.609   5.000  13.470 -0.1517 -0.1707  0.6761
14007TIP3    H163512   3.561   5.049  13.403 -1.0037 -1.3589  0.3928
14007TIP3    H263513   3.551   4.999  13.546 -0.4871 -1.3883  0.4221
14008TIP3   OH263514   5.484   1.087  16.051  0.2230  0.7596  0.2542
14008TIP3    H163515   5.453   1.009  16.006 -0.0746  1.2890 -0.4922
14008TIP3    H263516   5.407   1.121  16.097  0.2120  0.9199  0.1187
14009TIP3   OH263517   6.491   3.422  10.617 -0.2094  0.2933  0.2121
14009TIP3    H163518   6.526   3.510  10.628 -0.1384  0.1159  1.5039
14009TIP3    H263519   6.502   3.404  10.524  3.5129  0.1198  0.5507
14010TIP3   OH263520   0.084   1.334  12.712  0.3954  0.7442  0.2265
14010TIP3    H163521   0.133   1.413  12.692  1.2258  0.5823  1.4944
14010TIP3    H263522   0.124   1.267  12.657 -0.0104  1.1020 -0.5157
14011TIP3   OH263523   5.641   2.633  16.628 -0.5581 -0.6048  0.2630
14011TIP3    H163524   5.680   2.571  16.568 -0.8544  1.6439 -2.4709
14011TIP3    H263525   5.715   2.681  16.665 -0.3358 -2.3696  2.3078
14012TIP3   OH263526   1.162   3.772  11.320 -0.1896 -0.0418  0.4107
14012TIP3    H163527   1.117   3.732  11.394 -1.3748 -1.3135 -0.9267
14012TIP3    H263528   1.233   3.710  11.300 -0.1676  0.0543  0.1920
14013TIP3   OH263529   5.158   3.444   4.792  0.6141  0.1353  0.8342
14013TIP3    H163530   5.215   3.469   4.719  0.1858 -0.1051  0.4120
14013TIP3    H263531   5.204   3.474   4.870  0.9815  0.5824  0.4508
14014TIP3   OH263532   5.541   1.277  14.461  0.1083  0.3589 -0.5520
14014TIP3    H163533   5.504   1.206  14.409  1.1229 -1.1415  0.6856
14014TIP3    H263534   5.606   1.318  14.403 -0.5292  0.3457 -1.2947
14015TIP3   OH263535   1.026   4.863   2.383  0.9081 -0.4796 -0.3776
14015TIP3    H163536   0.976   4.786   2.412  0.6525 -0.1462  0.0714
14015TIP3    H263537   1.016   4.863   2.288  2.5703 -2.1556 -0.6294
14016TIP3   OH263538   4.683   2.110  15.247 -0.2318  0.1962 -0.0676
14016TIP3    H163539   4.701   2.193  15.291 -0.5499 -0.6168  1.6966
14016TIP3    H263540   4.610   2.129  15.188 -1.3157  0.8613  1.4346
14017TIP3   OH263541   6.335   3.705   5.026 -0.2128  0.4683  0.1036
14017TIP3    H163542   6.347   3.693   5.120 -0.6621 -1.7478 -0.0729
14017TIP3    H263543   6.419   3.739   4.995  1.0155 -1.6634  0.8889
14018TIP3   OH263544   2.788   1.789   1.516 -0.1047  0.1131  0.2958
14018TIP3    H163545   2.862   1.848   1.505 -1.3086  1.7153  0.4034
14018TIP3    H263546   2.773   1.752   1.429  0.2092  0.5499  0.0533
14019TIP3   OH263547   4.170   3.881   6.156 -0.0389  0.0826 -0.4256
14019TIP3    H163548   4.108   3.837   6.213 -1.1974  2.9768  0.7703
14019TIP3    H263549   4.121   3.955   6.120  2.2289  1.5219 -0.7516
14020TIP3   OH263550   6.420   4.391   1.874 -0.4688  0.6073  0.5926
14020TIP3    H163551   6.395   4.336   1.948  1.2531  0.5434  1.1731
14020TIP3    H263552   6.343   4.389   1.816 -0.4917 -2.4693  0.5272
14021TIP3   OH263553   0.423   0.669   4.824 -0.1855  0.1574 -0.0416
14021TIP3    H163554   0.462   0.701   4.906 -0.2968 -0.8856  0.4298
14021TIP3    H263555   0.426   0.745   4.765 -0.3226  0.9928  0.9958
14022TIP3   OH263556   0.898   1.156   1.184 -0.0799  0.2396  0.0431
14022TIP3    H163557   0.818   1.168   1.133  0.9964  0.1660 -1.7766
14022TIP3    H263558   0.871   1.111   1.263 -1.8114  0.1188 -0.5914
14023TIP3   OH263559   3.153   4.310  11.682 -0.3343  0.2274 -0.7029
14023TIP3    H163560   3.216   4.382  11.674 -1.8260  1.5516 -1.2605
14023TIP3    H263561   3.103   4.331  11.761  0.3389 -1.1736  0.1173
14024TIP3   OH263562   3.045   2.355   2.294  0.2512 -0.6095  0.7584
14024TIP3    H163563   2.996   2.391   2.368 -2.5552  0.1064 -1.2775
14024TIP3    H263564   3.022   2.262   2.293  0.8949 -0.7804  1.1890
14025TIP3   OH263565   6.059   1.912  15.020 -0.1411  0.0023  0.4825
14025TIP3    H163566   5.997   1.854  14.976 -0.0231 -0.0861  0.4325
14025TIP3    H263567   6.040   1.901  15.113 -0.7643  0.6093  0.4311
14026TIP3   OH263568   0.834   4.360  10.509  0.0340 -0.3131  0.1922
14026TIP3    H163569   0.861   4.433  10.452 -1.2099  0.8189  0.9838
14026TIP3    H263570   0.909   4.345  10.566  1.1801 -1.2402 -1.4524
14027TIP3   OH263571   1.143   3.253   4.702  0.3688  0.3178  0.0555
14027TIP3    H163572   1.157   3.285   4.613 -2.1904 -0.7369 -0.7969
14027TIP3    H263573   1.217   3.194   4.718  1.1131  0.8823 -1.1628
14028TIP3   OH263574   6.715   2.245  10.937 -0.1213 -0.4014 -0.3438
14028TIP3    H163575   6.626   2.215  10.959 -0.2238 -0.9053 -1.3816
14028TIP3    H263576   6.703   2.334  10.904 -0.2794 -0.5839 -0.7789
14029TIP3   OH263577   5.572   2.213  12.244  0.3635  0.6716  0.1088
14029TIP3    H163578   5.534   2.275  12.307  1.8890  1.2368  0.5106
14029TIP3    H263579   5.556   2.252  12.159  0.6331  1.2287  0.3115
14030TIP3   OH263580   2.422   4.386   4.702  0.4986 -0.0655 -0.2197
14030TIP3    H163581   2.357   4.382   4.632  0.1680  0.1244  0.0711
14030TIP3    H263582   2.411   4.473   4.740  0.0508 -0.4965  0.6572
14031TIP3   OH263583   1.690   3.914   2.557 -0.3414  0.2550 -0.4781
14031TIP3    H163584   1.720   3.964   2.633 -2.2171 -0.2583  0.6695
14031TIP3    H263585   1.751   3.937   2.487  0.2686  2.2834  0.6515
14032TIP3   OH263586   3.854   5.960  14.682  0.4440  0.5366 -0.4047
14032TIP3    H163587   3.788   5.944  14.750  1.1498 -0.1079  0.1517
14032TIP3    H263588   3.807   5.948  14.600 -0.7997  2.8253 -0.1001
14033TIP3   OH263589   6.891   1.198  12.310 -0.2078  0.3690 -0.0610
14033TIP3    H163590   6.861   1.273  12.259  1.8958  0.7857 -0.8046
14033TIP3    H263591   6.910   1.130  12.245 -1.3779 -0.5749  0.5480
14034TIP3   OH263592   2.692   2.632  12.776  0.1634 -0.2640 -0.4874
14034TIP3    H163593   2.779   2.669  12.764  0.2817 -0.6328 -0.7716
14034TIP3    H263594   2.637   2.706  12.801  1.1171 -0.4415  2.5548
14035TIP3   OH263595   0.363   3.532  11.687  0.5496 -0.2755  1.0760
14035TIP3    H163596   0.317   3.594  11.743 -0.7349  2.2377 -2.3767
14035TIP3    H263597   0.298   3.464  11.669 -1.0279  1.6808 -1.3438
14036TIP3   OH263598   4.183   4.525   0.181  0.5047  0.0402 -0.0725
14036TIP3    H163599   4.162   4.512   0.088 -0.2928 -1.7147  0.2986
14036TIP3    H263600   4.221   4.612   0.186 -0.3960  0.5768 -1.8962
14037TIP3   OH263601   1.021   0.537   6.400 -0.2005 -0.2004  0.3858
14037TIP3    H163602   0.949   0.487   6.363 -0.7907  0.5436  0.5126
14037TIP3    H263603   0.998   0.629   6.384  1.0880  0.0405 -0.2833
14038TIP3   OH263604   6.416   4.541  11.145  0.3992  0.0735  0.2201
14038TIP3    H163605   6.503   4.520  11.178 -0.0120 -0.1341  1.2250
14038TIP3    H263606   6.429   4.561  11.053  1.7382  1.4976  0.6802
14039TIP3   OH263607   5.759   0.704  12.273  0.5695  0.1093 -0.2689
14039TIP3    H163608   5.802   0.771  12.220 -0.0133  0.6596 -0.0594
14039TIP3    H263609   5.785   0.621  12.233  0.3941  0.5038 -1.2264
14040TIP3   OH263610   0.319   4.870  15.258  0.6263  0.3630 -0.5137
14040TIP3    H163611   0.393   4.928  15.273  1.5531 -1.0669  0.6905
14040TIP3    H263612   0.257   4.892  15.328  0.8092  0.1485 -0.2860
14041TIP3   OH263613   1.473   4.025  13.731 -0.5469 -0.1983  0.0361
14041TIP3    H163614   1.415   3.951  13.748 -1.5528  0.8054  1.1756
14041TIP3    H263615   1.414   4.098  13.712  0.3296  0.8125  1.0399
14042TIP3   OH263616   0.894   6.416   2.422  0.3881  0.4016  0.0600
14042TIP3    H163617   0.967   6.373   2.466  0.9536  0.8723 -0.4094
14042TIP3    H263618   0.872   6.490   2.479  0.2240  0.2108  0.2439
14043TIP3   OH263619   4.078   5.036   3.539 -0.2617 -0.1274  0.8599
14043TIP3    H163620   4.144   5.103   3.525  1.0720 -1.5250  0.1362
14043TIP3    H263621   3.999   5.084   3.565  1.0808  1.5713  2.0006
14044TIP3   OH263622   3.195   4.200   1.892 -0.1156 -0.2464 -0.0090
14044TIP3    H163623   3.192   4.291   1.865 -1.2380  0.0065  0.9158
14044TIP3    H263624   3.245   4.156   1.823 -0.6292  0.8371 -1.1038
14045TIP3   OH263625   3.636   2.513  16.325 -0.0103  0.1903  0.2105
14045TIP3    H163626   3.646   2.595  16.278  1.1318  0.5609  1.0509
14045TIP3    H263627   3.701   2.517  16.395 -1.0697 -0.6968  1.3062
14046TIP3   OH263628   1.666   2.330   2.663  0.0022  0.0318 -0.2938
14046TIP3    H163629   1.667   2.384   2.584  1.2516 -1.2957 -1.2451
14046TIP3    H263630   1.744   2.275   2.655 -0.9973 -1.6309  0.8186
14047TIP3   OH263631   5.342   4.280   3.291 -0.1302  0.1471  0.1762
14047TIP3    H163632   5.256   4.275   3.333  0.4736 -1.0170  1.3426
14047TIP3    H263633   5.329   4.340   3.217 -2.0945 -0.5221 -0.0743
14048TIP3   OH263634   1.464   0.546  16.845  0.2337 -0.2015  0.9269
14048TIP3    H163635   1.479   0.451  16.848 -0.5305 -0.3200  1.1877
14048TIP3    H263636   1.552   0.584  16.844  0.6246 -0.9708 -1.3744
14049TIP3   OH263637   2.961   6.156   4.119 -0.0147  0.1462 -0.0391
14049TIP3    H163638   2.882   6.105   4.137 -0.7974  1.1329 -0.5881
14049TIP3    H263639   2.935   6.247   4.136  0.7569  0.5662 -1.0363
14050TIP3   OH263640   2.170   4.453  10.843 -0.1424 -0.0433 -0.4262
14050TIP3    H163641   2.170   4.437  10.937  2.1914 -0.4150 -0.4208
14050TIP3    H263642   2.238   4.395  10.809 -1.5431 -0.5613 -2.4919
14051TIP3   OH263643   2.557   3.607  15.896 -0.2228  0.7578 -0.0173
14051TIP3    H163644   2.478   3.647  15.860 -0.7399 -0.2987 -0.0874
14051TIP3    H263645   2.555   3.517  15.864  0.4557  0.4157  0.8636
14052TIP3   OH263646   0.672   1.155  11.984 -0.0024 -0.4607  0.9487
14052TIP3    H163647   0.679   1.212  12.061 -0.8691  0.2423  0.5261
14052TIP3    H263648   0.684   1.214  11.909 -0.5363 -0.8952  0.5143
14053TIP3   OH263649   4.593   2.969   3.096  0.0826 -0.0575 -0.1391
14053TIP3    H163650   4.579   3.007   3.009  0.1360 -0.0102 -0.1271
14053TIP3    H263651   4.688   2.952   3.099 -0.3968 -4.2175 -1.8597
14054TIP3   OH263652   0.673   3.004   1.024  0.2260  0.3858 -0.6176
14054TIP3    H163653   0.596   3.060   1.026 -0.1683 -0.0595 -2.0376
14054TIP3    H263654   0.687   2.978   1.115 -3.2986 -2.1905 -0.6266
14055TIP3   OH263655   0.867   4.638  16.655 -0.2714  0.1782  0.7963
14055TIP3    H163656   0.848   4.621  16.563 -2.6763  3.0871  0.6063
14055TIP3    H263657   0.826   4.565  16.702 -1.4657  0.1212 -0.2986
14056TIP3   OH263658   0.027   3.812   3.675 -0.5469  0.1207 -0.2076
14056TIP3    H163659   0.012   3.869   3.600  0.6705  0.3068 -0.3294
14056TIP3    H263660   0.051   3.728   3.636 -0.1634  0.1474 -0.0308
14057TIP3   OH263661   2.411   1.179   3.330 -0.0796  0.1879  0.2229
14057TIP3    H163662   2.446   1.090   3.324  0.6225  0.5439 -1.5279
14057TIP3    H263663   2.338   1.181   3.267 -1.7071  0.1868  2.0175
14058TIP3   OH263664   6.350   2.827   4.628 -0.2490  0.3578 -0.2278
14058TIP3    H163665   6.396   2.743   4.628  0.2239  0.6140  0.1320
14058TIP3    H263666   6.293   2.823   4.551 -0.5443 -0.4580  0.0278
14059TIP3   OH263667   2.442   6.831   2.806  0.0339 -0.1447  0.6744
14059TIP3    H163668   2.425   6.925   2.808  0.2775 -0.0900  0.1490
14059TIP3    H263669   2.428   6.802   2.897  2.6772  0.8611  1.4773
14060TIP3   OH263670   2.360   2.529  15.833 -0.0986 -0.1701 -0.6925
14060TIP3    H163671   2.284   2.561  15.882  0.5448  1.0370 -0.4493
14060TIP3    H263672   2.322   2.480  15.760 -1.1049 -0.1391 -0.2026
14061TIP3   OH263673   4.952   3.410  14.558 -0.6503  0.0648  0.0899
14061TIP3    H163674   4.971   3.494  14.599  0.8752  0.2251 -0.8793
14061TIP3    H263675   4.946   3.430  14.464  0.0552 -0.9520 -0.1850
14062TIP3   OH263676   2.759   5.562  10.986  0.4241 -0.6400 -0.4071
14062TIP3    H163677   2.671   5.583  11.017 -0.1310 -0.9722 -1.6763
14062TIP3    H263678   2.816   5.580  11.060 -0.4282  1.7377 -0.2422
14063TIP3   OH263679   0.172   3.060   4.397 -0.7449  0.1124  0.0538
14063TIP3    H163680   0.121   3.125   4.447  0.8686 -0.1540  2.2282
14063TIP3    H263681   0.241   3.111   4.354 -0.1577  0.0076  0.8417
14064TIP3   OH263682   6.265   4.491   2.686 -0.2616 -0.2325  0.1572
14064TIP3    H163683   6.269   4.556   2.756 -0.0667 -0.1581  0.0779
14064TIP3    H263684   6.235   4.540   2.609 -0.7916 -0.3814  0.2670
14065TIP3   OH263685   0.017   6.830  15.428 -0.2754  0.3430 -0.1547
14065TIP3    H163686  -0.001   6.896  15.494 -0.7153 -0.4003  0.4937
14065TIP3    H263687  -0.069   6.805  15.395 -0.1472 -0.2083 -0.0857
14066TIP3   OH263688   6.677   2.336  13.389 -0.1548  0.6052  0.3388
14066TIP3    H163689   6.620   2.326  13.313 -1.4299  2.2360  1.0280
14066TIP3    H263690   6.754   2.282  13.369 -1.9396 -1.7648 -0.5801
14067TIP3   OH263691   6.054   1.894  15.508  0.0945 -0.2981  0.2852
14067TIP3    H163692   6.019   1.821  15.559 -1.4979 -0.5157 -1.0382
14067TIP3    H263693   6.007   1.971  15.542 -0.6668 -0.3870 -0.5307
14068TIP3   OH263694   1.859   6.302  14.718 -0.4296 -0.1006 -0.2775
14068TIP3    H163695   1.837   6.268  14.805  0.2430 -1.0870 -0.4700
14068TIP3    H263696   1.816   6.242  14.657 -0.8155  0.5271 -0.6321
14069TIP3   OH263697   6.189   5.698   1.402 -0.2873 -1.1080  0.5409
14069TIP3    H163698   6.186   5.613   1.447 -1.2716 -2.6601 -2.2641
14069TIP3    H263699   6.270   5.695   1.351 -1.0600 -1.0157 -0.7239
14070TIP3   OH263700   3.115   6.268  12.311  0.1188  0.3481  0.2438
14070TIP3    H163701   3.038   6.323  12.322  1.7290  2.3479  2.8874
14070TIP3    H263702   3.168   6.314  12.245 -0.3394 -0.3038 -0.5896
14071TIP3   OH263703   4.934   5.457   2.092 -0.2609 -0.4938  0.0677
14071TIP3    H163704   4.879   5.379   2.095  0.9160 -1.3527  0.5444
14071TIP3    H263705   5.005   5.433   2.031  0.6168 -0.1617  0.9392
14072TIP3   OH263706   5.827   4.402  16.284  0.4464 -0.2016 -0.2519
14072TIP3    H163707   5.788   4.480  16.324 -0.3306 -1.0193  0.6657
14072TIP3    H263708   5.871   4.358  16.357  0.4071 -0.9011 -0.6435
14073TIP3   OH263709   4.177   4.588  11.315  0.0289 -0.9030  0.1799
14073TIP3    H163710   4.182   4.556  11.225  0.2090  1.1690 -0.6008
14073TIP3    H263711   4.098   4.548  11.350 -0.5579 -1.0217 -1.2093
14074TIP3   OH263712   2.628   4.250  13.513  0.8513  0.7185 -0.3023
14074TIP3    H163713   2.593   4.274  13.427 -2.6305 -0.3438  0.6354
14074TIP3    H263714   2.576   4.302  13.575 -1.1574 -2.9042  1.3552
14075TIP3   OH263715   6.685   2.050  11.680  0.2174 -0.0689 -0.2764
14075TIP3    H163716   6.703   1.987  11.749 -0.5881  0.0861  0.0843
14075TIP3    H263717   6.590   2.047  11.668  0.1958  0.8499 -0.4581
14076TIP3   OH263718   1.894   5.319  12.741  0.3290 -0.2502 -0.5627
14076TIP3    H163719   1.889   5.226  12.764  1.0198 -0.6728 -1.9767
14076TIP3    H263720   1.977   5.348  12.777 -0.1025 -0.0471  0.2867
14077TIP3   OH263721   5.644   3.501   2.614  0.5160 -0.0568  0.2765
14077TIP3    H163722   5.580   3.573   2.614 -0.2167 -0.6991  0.8422
14077TIP3    H263723   5.604   3.434   2.558  0.7561 -0.4120  0.5315
14078TIP3   OH263724   3.114   0.404   1.377  0.1549  0.0376 -0.0222
14078TIP3    H163725   3.116   0.448   1.292  2.3428 -0.7652 -0.4407
14078TIP3    H263726   3.039   0.345   1.371 -0.2536  0.6363 -1.0583
14079TIP3   OH263727   1.246   4.860  16.644 -0.0638  0.0591 -0.2091
14079TIP3    H163728   1.238   4.956  16.642  0.2355  0.1378  1.2283
14079TIP3    H263729   1.321   4.841  16.587 -0.3440  0.6478 -0.7856
14080TIP3   OH263730   0.579   2.076  13.557 -0.0600 -0.3412 -0.1184
14080TIP3    H163731   0.593   2.170  13.558  1.4180 -0.5464 -0.0447
14080TIP3    H263732   0.609   2.048  13.471  0.8638 -0.9281  0.3826
14081TIP3   OH263733   2.154   0.418   5.326  0.8775 -0.6885 -0.1163
14081TIP3    H163734   2.161   0.513   5.317  1.1546 -0.6392  0.5407
14081TIP3    H263735   2.217   0.383   5.262  1.2554 -0.4119  0.0965
14082TIP3   OH263736   5.471   4.715   1.420  0.1865 -0.6175 -0.2431
14082TIP3    H163737   5.521   4.775   1.476 -1.0998 -1.5131  1.9917
14082TIP3    H263738   5.536   4.653   1.386  0.8901 -0.5347  0.9144
14083TIP3   OH263739   2.004   4.138  13.608 -0.2014  0.0728  0.1260
14083TIP3    H163740   2.099   4.148  13.618 -0.1473 -1.0797  0.8847
14083TIP3    H263741   1.969   4.225  13.625  0.6948  0.4466  0.1217
14084TIP3   OH263742   0.040   4.292   3.334  0.6729  0.0798 -0.1127
14084TIP3    H163743   0.081   4.275   3.419 -1.0428  0.4270  0.8246
14084TIP3    H263744   0.104   4.346   3.287  0.7659  1.7443  1.8080
14085TIP3   OH263745   4.825   5.608   4.555 -0.0393  0.2622 -0.0596
14085TIP3    H163746   4.776   5.639   4.631 -0.1971 -1.3556  0.5339
14085TIP3    H263747   4.913   5.644   4.567  0.0091 -0.1861  1.0365
14086TIP3   OH263748   0.661   3.200  15.151 -0.3265  0.3893 -0.3451
14086TIP3    H163749   0.660   3.215  15.056  2.9585 -0.4953 -0.6251
14086TIP3    H263750   0.580   3.240  15.182 -2.5798 -1.0983 -3.7402
14087TIP3   OH263751   2.458   1.084  15.287  0.1905 -0.4733 -0.1736
14087TIP3    H163752   2.491   1.005  15.244 -1.3489 -1.3375  0.1532
14087TIP3    H263753   2.457   1.151  15.218 -0.2383 -1.2511 -0.9354
14088TIP3   OH263754   3.118   3.000   6.441  0.0748 -0.4486  0.0625
14088TIP3    H163755   3.148   2.970   6.355 -0.8622  2.7871 -1.5232
14088TIP3    H263756   3.029   2.964   6.449 -0.8717  1.3048 -1.6184
14089TIP3   OH263757   2.515   5.914   4.820 -0.3834  0.5250 -0.5163
14089TIP3    H163758   2.547   5.939   4.907 -0.9514  1.3810 -0.5367
14089TIP3    H263759   2.557   5.976   4.760  0.5587 -0.5042 -0.9527
14090TIP3   OH263760   3.317   5.459  11.889 -0.0459 -0.6143  0.0684
14090TIP3    H163761   3.236   5.480  11.936  1.3914  1.2568  1.8563
14090TIP3    H263762   3.380   5.526  11.917  2.3207 -2.3430 -0.7827
14091TIP3   OH263763   4.159   4.602  11.957 -0.0438  0.2256  0.2257
14091TIP3    H163764   4.128   4.620  11.869  2.4353  2.0450 -0.3798
14091TIP3    H263765   4.131   4.678  12.009  0.8100  0.4638  0.3517
14092TIP3   OH263766   6.325   4.340   5.144  0.2371  0.4415 -0.4991
14092TIP3    H163767   6.230   4.343   5.135  0.0259 -3.0399 -0.9799
14092TIP3    H263768   6.357   4.310   5.059  1.7027  0.8213 -0.1222
14093TIP3   OH263769   4.830   2.664   1.306 -0.0405  0.9647 -0.6600
14093TIP3    H163770   4.898   2.600   1.327  0.0288  0.8788 -1.1266
14093TIP3    H263771   4.879   2.742   1.279 -0.1194  0.7433 -1.4733
14094TIP3   OH263772   0.413   6.367  14.777 -0.1710  0.0017  0.4362
14094TIP3    H163773   0.446   6.448  14.738 -0.8115  1.0301  1.9476
14094TIP3    H263774   0.481   6.303  14.759  1.7855  1.5725  1.7621
14095TIP3   OH263775   2.179   4.283  16.099 -0.0976 -0.1148 -0.1253
14095TIP3    H163776   2.125   4.331  16.036 -0.8873  0.4603  0.9427
14095TIP3    H263777   2.205   4.203  16.054  1.1249  1.2181 -1.9091
14096TIP3   OH263778   3.416   6.441  11.519 -0.8685  0.7595 -0.4336
14096TIP3    H163779   3.427   6.353  11.482  0.8887  1.2881 -1.2410
14096TIP3    H263780   3.390   6.425  11.610 -1.5386 -0.5760 -0.8274
14097TIP3   OH263781   3.521   0.004  14.590  0.3839  0.1073 -0.1938
14097TIP3    H163782   3.579   0.079  14.604  0.2071  0.0233  1.1787
14097TIP3    H263783   3.494   0.011  14.499  0.1767  1.8532 -0.0344
14098TIP3   OH263784   4.496   0.661  15.271  0.3982 -0.4818  0.2418
14098TIP3    H163785   4.423   0.698  15.221  0.6255 -0.6737 -0.2343
14098TIP3    H263786   4.480   0.689  15.361  0.4730  0.6332 -0.0820
14099TIP3   OH263787   0.320   1.073  11.806 -0.5232  0.2118 -0.0825
14099TIP3    H163788   0.265   1.146  11.835  0.5251  1.2244 -0.5874
14099TIP3    H263789   0.320   1.079  11.711  0.0784 -0.0673 -0.1042
14100TIP3   OH263790   0.585   2.177   2.095 -0.0044  0.3104  0.1954
14100TIP3    H163791   0.570   2.183   2.000  1.4722  0.7936 -0.0312
14100TIP3    H263792   0.595   2.268   2.123  0.4490  0.1266  0.6479
14101TIP3   OH263793   5.168   0.554  14.869  0.0656  0.7078 -0.6096
14101TIP3    H163794   5.246   0.609  14.875 -0.6440  1.7247 -0.6128
14101TIP3    H263795   5.117   0.591  14.798  0.1676 -0.7452 -1.4851
14102TIP3   OH263796   5.731   1.138  13.070 -0.3909 -0.0308  0.6165
14102TIP3    H163797   5.704   1.070  13.131  0.7362 -1.5230 -0.4686
14102TIP3    H263798   5.823   1.154  13.092 -0.3071  0.2645  0.0713
14103TIP3   OH263799   1.795   4.066   3.296 -0.1375  0.1271  0.3649
14103TIP3    H163800   1.807   3.998   3.362  0.4255 -0.2797 -0.1441
14103TIP3    H263801   1.877   4.114   3.296  0.5010 -0.8830 -1.1378
14104TIP3   OH263802   2.337   2.473  16.578 -0.1610  0.1359 -0.0236
14104TIP3    H163803   2.364   2.496  16.667 -0.0212  0.0208 -0.0365
14104TIP3    H263804   2.261   2.529  16.561 -1.0463 -0.7957  0.6803
14105TIP3   OH263805   6.847   1.620  16.132 -0.4302 -0.0669  0.0798
14105TIP3    H163806   6.784   1.678  16.177  0.0980 -0.2500  1.0780
14105TIP3    H263807   6.924   1.675  16.119 -0.8309  0.1970 -1.2687
14106TIP3   OH263808   5.772   6.159   4.949  0.3455 -0.5924  0.1276
14106TIP3    H163809   5.795   6.226   5.013 -0.6529 -0.0886 -0.0251
14106TIP3    H263810   5.738   6.086   5.001 -1.5332  0.2515  0.1401
14107TIP3   OH263811   4.695   3.794  14.514  0.2494  0.1427 -0.2453
14107TIP3    H163812   4.651   3.709  14.511 -0.7972  0.6888 -2.2692
14107TIP3    H263813   4.646   3.843  14.580  0.6890 -0.6942  0.7381
14108TIP3   OH263814   1.020   0.672   2.251 -0.6604 -0.8085  0.3197
14108TIP3    H163815   1.033   0.577   2.261  1.0361 -0.8871 -1.8599
14108TIP3    H263816   0.932   0.679   2.214 -1.3474 -1.3999  1.7645
14109TIP3   OH263817   3.366   1.726   3.224  1.0717 -0.5719 -0.1299
14109TIP3    H163818   3.451   1.762   3.250  0.0089  2.4591 -0.3791
14109TIP3    H263819   3.302   1.782   3.269 -0.8504 -3.2702  0.6977
14110TIP3   OH263820   3.344   2.768  14.050  0.4250 -0.3954 -0.4203
14110TIP3    H163821   3.394   2.700  14.095 -0.1881  0.0117  0.9156
14110TIP3    H263822   3.254   2.757  14.081  0.6543  2.3572  1.5721
14111TIP3   OH263823   0.600   2.450  14.272  0.2597 -0.1839  0.1328
14111TIP3    H163824   0.640   2.537  14.264  0.2859 -0.3482 -1.7395
14111TIP3    H263825   0.629   2.402  14.195 -0.7359 -1.4758  0.5223
14112TIP3   OH263826   4.794   5.298   3.162  0.4068 -0.2980  0.2056
14112TIP3    H163827   4.866   5.293   3.098  0.7980  0.4767  0.5650
14112TIP3    H263828   4.837   5.287   3.246 -0.2703 -2.6543  0.3147
14113TIP3   OH263829   0.378   6.345  11.725  0.7948 -0.2248 -0.3827
14113TIP3    H163830   0.360   6.376  11.814  0.1769  0.4399 -0.7357
14113TIP3    H263831   0.317   6.272  11.713 -0.0336  0.5050 -0.7153
14114TIP3   OH263832   6.552   6.344   5.283  0.0980 -0.5552  0.1602
14114TIP3    H163833   6.549   6.251   5.261 -1.1742  0.2949 -4.0664
14114TIP3    H263834   6.463   6.365   5.310  0.4649 -0.5781  1.4443
14115TIP3   OH263835   1.278   3.798   1.857 -0.4258  0.5837  0.8595
14115TIP3    H163836   1.193   3.808   1.813  0.2209  0.3087 -0.5219
14115TIP3    H263837   1.324   3.733   1.804  0.1903 -0.2075  2.3161
14116TIP3   OH263838   6.871   4.935   2.351  0.0793 -0.4056  0.4131
14116TIP3    H163839   6.966   4.930   2.359  0.1985  0.1695 -0.4712
14116TIP3    H263840   6.854   5.026   2.328 -0.5955 -0.7578 -0.5243
14117TIP3   OH263841   6.854   1.811   0.130 -0.1096 -0.6728  0.3103
14117TIP3    H163842   6.797   1.745   0.168  0.2182 -2.0534 -1.4421
14117TIP3    H263843   6.796   1.886   0.114 -1.0483 -1.4128  0.1568
14118TIP3   OH263844   0.431   3.697   0.279 -0.6237  0.1923  0.1110
14118TIP3    H163845   0.342   3.670   0.301 -0.5425 -0.7948 -0.7203
14118TIP3    H263846   0.462   3.744   0.357 -1.0137 -1.5493  1.3601
14119TIP3   OH263847   5.946   6.448  16.228 -0.0981  0.1014 -0.2714
14119TIP3    H163848   5.899   6.497  16.296 -1.2180  1.2239 -1.7759
14119TIP3    H263849   6.038   6.451  16.255 -0.5799 -0.0608  1.5046
14120TIP3   OH263850   4.455   1.590  15.098  0.1526 -0.0721  0.2932
14120TIP3    H163851   4.365   1.559  15.089  0.7083 -1.3067 -1.7450
14120TIP3    H263852   4.452   1.653  15.171 -2.4187  0.2872 -0.0301
14121TIP3   OH263853   0.631   5.498  10.915  0.2026 -0.1008  0.0694
14121TIP3    H163854   0.697   5.543  10.967  0.4820  1.1599 -1.3244
14121TIP3    H263855   0.660   5.407  10.914 -0.9174 -0.7077  3.7897
14122TIP3   OH263856   0.523   6.702  16.053 -0.3039  0.1274  0.2267
14122TIP3    H163857   0.503   6.794  16.068  1.3741  0.6720 -0.6368
14122TIP3    H263858   0.522   6.692  15.958 -0.5620 -0.7697  0.3137
14123TIP3   OH263859   2.287   1.711  11.987 -0.2661  0.3114  0.1561
14123TIP3    H163860   2.278   1.643  11.920  0.6994  1.0193 -0.7433
14123TIP3    H263861   2.355   1.678  12.046  0.9416  0.8847 -0.8538
14124TIP3   OH263862   5.600   6.263  11.487  0.9367 -0.2237  0.5112
14124TIP3    H163863   5.619   6.290  11.397  0.1900  2.0453  0.9447
14124TIP3    H263864   5.643   6.329  11.542  0.4236 -0.8929  1.7775
14125TIP3   OH263865   6.812   2.554   4.185 -0.0205 -0.0154  0.0991
14125TIP3    H163866   6.772   2.632   4.145  0.3047  0.7086  1.1303
14125TIP3    H263867   6.885   2.589   4.236 -0.0654 -0.9691  0.8364
14126TIP3   OH263868   1.777   1.127   2.820 -0.3317 -0.3048  0.4195
14126TIP3    H163869   1.717   1.107   2.891  2.7264 -0.1659  3.2811
14126TIP3    H263870   1.754   1.216   2.793 -1.7848 -0.5041  0.9470
14127TIP3   OH263871   2.296   6.109   0.396  0.3683  0.1224 -0.5751
14127TIP3    H163872   2.302   6.015   0.379  0.0874 -0.3082  1.4073
14127TIP3    H263873   2.318   6.118   0.489 -0.5898  1.9078 -0.4707
14128TIP3   OH263874   2.283   3.434   2.600 -0.4859 -1.1716  0.4648
14128TIP3    H163875   2.364   3.383   2.595 -0.0212 -0.4124 -0.0352
14128TIP3    H263876   2.271   3.470   2.512 -0.8382 -0.4932  0.7781
14129TIP3   OH263877   5.033   5.209   2.236 -0.3707  0.1957  0.2310
14129TIP3    H163878   4.986   5.271   2.290 -0.5787  1.9296 -1.7925
14129TIP3    H263879   5.125   5.234   2.244 -0.3946  0.4098 -0.1511
14130TIP3   OH263880   5.367   4.406  15.638  0.2540 -0.0733 -0.4911
14130TIP3    H163881   5.300   4.400  15.570  1.1341  0.6678 -1.4604
14130TIP3    H263882   5.400   4.316  15.648  0.4846 -0.0985 -1.4364
14131TIP3   OH263883   0.748   1.415  15.282 -0.3815  0.5507 -0.1658
14131TIP3    H163884   0.743   1.498  15.329 -2.3579 -0.2889  1.2801
14131TIP3    H263885   0.740   1.438  15.190 -1.2929  1.9381  0.2325
14132TIP3   OH263886   5.522   6.317  13.401  0.4956  0.2191 -0.1733
14132TIP3    H163887   5.530   6.400  13.354 -0.1087  0.7759  0.6803
14132TIP3    H263888   5.430   6.292  13.391  0.4884  0.0658  0.2302
14133TIP3   OH263889   3.959   0.692   5.932  0.4988 -0.1591  0.2068
14133TIP3    H163890   3.998   0.771   5.970 -0.4144  0.4732 -0.1317
14133TIP3    H263891   3.865   0.701   5.949  0.3557 -1.0483 -0.0626
14134TIP3   OH263892   1.352   1.427   4.665  0.2989 -0.3418 -0.7121
14134TIP3    H163893   1.381   1.471   4.745 -1.3925  0.0481 -0.2675
14134TIP3    H263894   1.330   1.338   4.693  1.3788 -0.7655 -1.1290
14135TIP3   OH263895   0.002   4.144   1.979 -0.7462  0.2082  0.0053
14135TIP3    H163896  -0.078   4.192   1.957 -0.2220  0.3235 -1.8053
14135TIP3    H263897   0.071   4.191   1.934  0.0094 -1.2643 -0.4435
14136TIP3   OH263898   3.541   2.823   0.318 -0.3398 -1.2995  0.3112
14136TIP3    H163899   3.516   2.732   0.311 -2.4944 -0.6821 -0.7521
14136TIP3    H263900   3.460   2.872   0.308  0.4982  0.7237  2.4292
14137TIP3   OH263901   0.234   3.277  14.963  0.1254  0.1449 -0.3238
14137TIP3    H163902   0.257   3.197  15.011 -0.8447 -0.0883 -0.2274
14137TIP3    H263903   0.141   3.289  14.979  0.3602  1.6067  0.1062
14138TIP3   OH263904   0.918   2.991  15.291 -0.3729 -0.4338 -0.0400
14138TIP3    H163905   0.944   3.083  15.297  0.0830 -0.4147 -1.9041
14138TIP3    H263906   0.961   2.949  15.366  1.5642  0.3895 -0.6356
14139TIP3   OH263907   1.940   0.635  12.244  0.2010  0.0654 -0.3595
14139TIP3    H163908   1.875   0.598  12.185 -0.9277  1.9481 -0.3514
14139TIP3    H263909   1.906   0.617  12.332  2.1507 -3.2449 -0.0709
14140TIP3   OH263910   6.584   2.378  10.605 -0.1501 -0.5342  0.4665
14140TIP3    H163911   6.620   2.428  10.678  1.0983 -0.7528  0.0248
14140TIP3    H263912   6.537   2.306  10.647  0.8226 -0.8412  1.0674
14141TIP3   OH263913   4.634   4.721  15.640  0.3640  0.0329  0.0692
14141TIP3    H163914   4.684   4.801  15.632 -0.1906  0.2552 -1.3901
14141TIP3    H263915   4.579   4.718  15.562  0.3405 -1.7499  0.1067
14142TIP3   OH263916   6.385   2.194  14.082 -0.0849 -0.1231  0.1587
14142TIP3    H163917   6.407   2.285  14.059  1.9816 -0.6739 -0.2166
14142TIP3    H263918   6.425   2.142  14.012 -2.5077 -1.2913 -0.4521
14143TIP3   OH263919   3.005   2.501  11.662  0.2718 -0.2737  0.1257
14143TIP3    H163920   3.073   2.512  11.595 -0.8096 -1.5803 -1.2226
14143TIP3    H263921   3.030   2.564  11.730  2.4257 -0.2014 -0.6445
14144TIP3   OH263922   5.932   5.519  11.824  0.1636  0.0718  0.6254
14144TIP3    H163923   5.915   5.430  11.793  1.3770  0.8566 -2.8029
14144TIP3    H263924   6.026   5.532  11.809 -0.0516  2.0257  0.7029
14145TIP3   OH263925   1.450   3.855  10.791 -0.0991  0.0692 -0.1283
14145TIP3    H163926   1.538   3.818  10.786  0.4498  0.8133  2.4895
14145TIP3    H263927   1.463   3.943  10.826 -2.0069 -0.8562  3.3866
14146TIP3   OH263928   3.912   2.114   0.673 -0.0850  0.4566 -0.1319
14146TIP3    H163929   3.955   2.048   0.620 -0.0806  0.1508  0.2536
14146TIP3    H263930   3.847   2.066   0.724 -0.3405  0.8018 -0.1283
14147TIP3   OH263931   6.261   3.179  16.467  0.4483 -0.0925 -0.7392
14147TIP3    H163932   6.307   3.263  16.477  1.8764 -0.9946  0.7948
14147TIP3    H263933   6.323   3.114  16.499 -1.2200 -1.5859 -0.3925
14148TIP3   OH263934   1.161   0.294   2.818 -0.1888 -0.2359  0.0706
14148TIP3    H163935   1.212   0.263   2.893 -2.1533 -1.3274  1.0209
14148TIP3    H263936   1.196   0.381   2.799  0.1949  0.1759  2.4215
14149TIP3   OH263937   1.532   6.844  13.144  0.3087  0.0942  0.3912
14149TIP3    H163938   1.490   6.875  13.225  0.9215 -0.9885  1.1537
14149TIP3    H263939   1.625   6.841  13.165  0.5105  0.0849 -0.4640
14150TIP3   OH263940   5.386   3.857   1.200  0.4504 -0.1644  0.5187
14150TIP3    H163941   5.377   3.771   1.159  2.5627 -1.1541  1.9462
14150TIP3    H263942   5.307   3.868   1.252 -1.9912  0.8154 -2.9861
14151TIP3   OH263943   6.453   6.219   1.506 -0.3317 -0.0472 -0.5066
14151TIP3    H163944   6.515   6.219   1.433 -0.0437  1.5381 -0.2993
14151TIP3    H263945   6.385   6.280   1.480 -0.2725  0.4687  0.5073
14152TIP3   OH263946   2.372   1.200  16.273 -0.5867  0.3171  0.8081
14152TIP3    H163947   2.457   1.165  16.303 -0.4566 -0.3768 -0.3081
14152TIP3    H263948   2.388   1.294  16.261 -0.2735  0.3747  1.6027
14153TIP3   OH263949   2.506   0.268  12.960 -0.6051 -0.4858 -0.6611
14153TIP3    H163950   2.512   0.318  13.042 -0.1962  1.2508 -1.7005
14153TIP3    H263951   2.436   0.311  12.911  0.4620 -0.2079 -2.0165
14154TIP3   OH263952   3.137   4.963   5.310  0.0881  0.5929 -0.4056
14154TIP3    H163953   3.130   4.909   5.389 -1.4779  1.2327 -0.0760
14154TIP3    H263954   3.094   5.045   5.333  0.3635  1.1073 -1.6630
14155TIP3   OH263955   0.126   1.679  12.329  0.2082  0.0184  0.2775
14155TIP3    H163956   0.111   1.651  12.419 -1.1520  1.0718  0.4053
14155TIP3    H263957   0.218   1.657  12.312  0.5553  0.0357  1.9899
14156TIP3   OH263958   5.042   0.516  16.194 -0.0306 -0.6929  0.0388
14156TIP3    H163959   4.977   0.498  16.127 -1.0742  1.6516  0.3471
14156TIP3    H263960   5.032   0.445  16.257 -1.7862 -0.7616 -0.2869
14157TIP3   OH263961   2.547   0.944  13.825  0.0769 -0.3957  0.3469
14157TIP3    H163962   2.494   0.933  13.747 -0.5928  4.9257 -0.3085
14157TIP3    H263963   2.488   0.925  13.898 -1.1975  0.3319 -0.4573
14158TIP3   OH263964   6.579   3.701  10.592 -0.2130  0.9052  0.0389
14158TIP3    H163965   6.607   3.659  10.511 -0.1364  0.8713  0.0826
14158TIP3    H263966   6.613   3.791  10.585  0.2857  0.7363  0.2847
14159TIP3   OH263967   6.422   4.410  13.123 -0.8738 -0.1671  0.2044
14159TIP3    H163968   6.416   4.463  13.202  1.9029  0.9425 -0.2243
14159TIP3    H263969   6.375   4.461  13.057 -0.3296  0.5582  0.3688
14160TIP3   OH263970   4.011   1.820   1.844 -0.1169  0.2156  0.2916
14160TIP3    H163971   3.949   1.888   1.871  0.1559  0.5390  0.1198
14160TIP3    H263972   4.097   1.856   1.868  0.1265  0.4540 -0.8597
14161TIP3   OH263973   2.790   3.291  11.028 -0.2694 -0.8273 -0.1079
14161TIP3    H163974   2.777   3.223  10.962 -0.1533 -1.5046  0.5548
14161TIP3    H263975   2.859   3.257  11.085  0.8099  0.4674 -0.5783
14162TIP3   OH263976   1.036   1.505  14.715  0.0120 -0.0016  0.5932
14162TIP3    H163977   0.977   1.473  14.783 -1.2386  0.1711 -0.3660
14162TIP3    H263978   1.070   1.588  14.749  1.9231 -1.3964  2.3524
14163TIP3   OH263979   3.657   3.508  13.865 -0.1838 -0.5044  0.5124
14163TIP3    H163980   3.742   3.548  13.881 -0.9140  1.0147  0.7658
14163TIP3    H263981   3.670   3.415  13.882  1.6890 -0.4713 -0.5245
14164TIP3   OH263982   0.248   2.522   1.748 -0.1675 -0.2766  0.1195
14164TIP3    H163983   0.331   2.503   1.704 -0.2416 -0.8778  0.2345
14164TIP3    H263984   0.196   2.567   1.681  1.2303  2.7200  0.8492
14165TIP3   OH263985   1.415   1.794  11.396 -0.2544 -0.1129 -0.6461
14165TIP3    H163986   1.377   1.880  11.376  0.4815 -0.0013 -1.6880
14165TIP3    H263987   1.500   1.814  11.436  1.1415 -0.2483 -3.2566
14166TIP3   OH263988   6.233   0.869   5.966  0.5438  0.0221  0.1476
14166TIP3    H163989   6.167   0.852   6.034 -0.5492  0.0811 -0.8579
14166TIP3    H263990   6.214   0.805   5.898 -1.2105  2.5965 -2.0252
14167TIP3   OH263991   6.885   5.001   0.345  0.2971  0.5860  0.1747
14167TIP3    H163992   6.945   4.936   0.380 -1.1957 -0.4960  0.8169
14167TIP3    H263993   6.941   5.059   0.292  2.4243  1.4156  3.0499
14168TIP3   OH263994   4.401   0.647  13.876  0.4251  0.3949  0.2747
14168TIP3    H163995   4.338   0.706  13.915 -0.0833 -1.6284  2.7999
14168TIP3    H263996   4.486   0.688  13.892 -0.0297  1.4950 -0.0815
14169TIP3   OH263997   0.067   5.850  12.636  0.0279  0.2777  0.2224
14169TIP3    H163998   0.083   5.879  12.725  2.8371  3.3033 -1.0596
14169TIP3    H263999   0.114   5.767  12.629 -2.5309 -1.5064  2.1446
14170TIP3   OH264000   1.991   2.145   5.045 -0.1279 -0.5611  0.3689
14170TIP3    H164001   2.030   2.209   4.985  0.8567  1.0602  2.5923
14170TIP3    H264002   2.055   2.074   5.049  0.5320  0.0362  0.6274
14171TIP3   OH264003   6.640   3.535  14.921 -0.2232  0.2727  0.2539
14171TIP3    H164004   6.583   3.462  14.896  0.6947 -1.6004  3.1615
14171TIP3    H264005   6.585   3.592  14.975 -0.1791  0.1345  0.4465
14172TIP3   OH264006   1.233   1.506  10.445 -0.3697  0.3271 -0.5391
14172TIP3    H164007   1.321   1.538  10.461 -0.7692  1.3456 -0.2764
14172TIP3    H264008   1.235   1.414  10.473  0.8199  0.0838 -1.3576
14173TIP3   OH264009   0.780   3.806   5.624 -0.2223 -0.5587  0.0324
14173TIP3    H164010   0.715   3.860   5.671  0.4986  0.1575  0.2363
14173TIP3    H264011   0.865   3.842   5.651  0.3260 -2.2700  0.7498
14174TIP3   OH264012   0.782   6.354  15.248  0.2894 -0.0300  0.2580
14174TIP3    H164013   0.763   6.332  15.339  0.6805  1.4060  0.7224
14174TIP3    H264014   0.872   6.325  15.233 -0.1956 -1.4306 -0.0942
14175TIP3   OH264015   6.587   4.664  13.008  0.2590  0.4242 -0.2664
14175TIP3    H164016   6.646   4.715  12.952  0.7046 -1.1966 -1.3328
14175TIP3    H264017   6.570   4.721  13.083  0.7484  2.1175 -1.3861
14176TIP3   OH264018   4.849   1.839  13.512 -0.3626 -0.3965 -0.3416
14176TIP3    H164019   4.928   1.833  13.566 -0.1042 -0.9488 -0.7638
14176TIP3    H264020   4.816   1.749  13.508 -2.4034  0.1721  1.8267
14177TIP3   OH264021   5.425   0.648   5.269  0.1342 -0.1750  0.5868
14177TIP3    H164022   5.495   0.694   5.223 -0.4322  0.4180  0.2916
14177TIP3    H264023   5.439   0.669   5.361  0.3979 -0.1284  0.5361
14178TIP3   OH264024   2.321   5.822  14.569 -0.0519  0.1848 -0.5593
14178TIP3    H164025   2.328   5.752  14.633  0.7761  0.4211 -0.3784
14178TIP3    H264026   2.233   5.813  14.532 -1.0165  0.7660  1.4606
14179TIP3   OH264027   1.836   1.001  14.374 -0.6399  0.4428  0.2242
14179TIP3    H164028   1.897   0.937  14.338 -0.0161  0.5390  1.0904
14179TIP3    H264029   1.753   0.954  14.380 -0.5302  0.1487 -0.4595
14180TIP3   OH264030   4.908   2.287  12.990  0.2310  0.0170  0.1606
14180TIP3    H164031   4.922   2.240  12.908  1.5735 -0.4618  0.6393
14180TIP3    H264032   4.857   2.227  13.044  0.7502 -0.3302  0.2654
14181TIP3   OH264033   6.769   2.395   3.279  1.1522 -0.5666 -0.0725
14181TIP3    H164034   6.812   2.426   3.199 -0.9800  2.1670 -0.3000
14181TIP3    H264035   6.817   2.438   3.350  0.4173  0.4684 -0.1810
14182TIP3   OH264036   0.580   1.024  13.905  0.1034  0.7009 -0.2565
14182TIP3    H164037   0.654   1.084  13.896  2.3065 -1.7208  0.7191
14182TIP3    H264038   0.612   0.940  13.873 -1.9675 -0.6162  0.8705
14183TIP3   OH264039   2.158   2.459  13.068  0.3159 -0.1921  0.3450
14183TIP3    H164040   2.139   2.489  13.157  0.1656 -0.6323  0.4637
14183TIP3    H264041   2.118   2.372  13.063 -0.1778  0.0621 -0.3419
14184TIP3   OH264042   0.149   0.380   3.994 -0.3428 -0.1642 -0.2465
14184TIP3    H164043   0.215   0.449   3.985 -0.5783 -0.0030 -0.7865
14184TIP3    H264044   0.160   0.327   3.915  0.6826 -1.4983  0.7475
14185TIP3   OH264045   1.545   3.071  16.535  0.5628 -0.2202 -0.0220
14185TIP3    H164046   1.617   3.076  16.597  1.5129 -1.9508 -0.9270
14185TIP3    H264047   1.554   3.149  16.481  2.1140 -0.6558 -0.4524
14186TIP3   OH264048   1.916   5.102   2.659  0.4263 -0.1102 -0.0034
14186TIP3    H164049   1.892   5.107   2.567 -0.6439  0.6192  0.3037
14186TIP3    H264050   1.917   5.008   2.678 -1.2331 -0.2077 -0.2892
14187TIP3   OH264051   5.976   1.078   5.224  0.0973 -0.2271  0.8524
14187TIP3    H164052   5.971   1.149   5.159 -3.3919  0.4519  1.6727
14187TIP3    H264053   6.044   1.107   5.285  0.6565  1.0490 -0.3079
14188TIP3   OH264054   3.628   2.975   2.543  0.7293 -0.3811 -0.4988
14188TIP3    H164055   3.618   2.927   2.625 -0.6542 -0.1406 -0.5136
14188TIP3    H264056   3.572   3.052   2.554  1.6104  0.3670 -1.1353
14189TIP3   OH264057   2.172   5.376  10.685  0.0198  0.7754 -0.3363
14189TIP3    H164058   2.163   5.383  10.590  0.7690  0.0973 -0.4647
14189TIP3    H264059   2.258   5.413  10.704  1.3746 -2.1019 -0.3438
14190TIP3   OH264060   2.733   2.892  15.645  0.4935 -0.1387  0.4408
14190TIP3    H164061   2.748   2.938  15.562  0.6440 -1.2124 -0.1339
14190TIP3    H264062   2.801   2.926  15.704  1.4668 -0.6317 -0.3869
14191TIP3   OH264063   6.085   0.125  11.034 -0.0138  0.0631 -0.1329
14191TIP3    H164064   6.101   0.032  11.014  0.5313  0.2366 -0.5137
14191TIP3    H264065   6.001   0.144  10.990  0.5200  0.0868 -1.1797
14192TIP3   OH264066   1.350   3.384   3.829  0.2239 -0.0348 -1.1868
14192TIP3    H164067   1.306   3.455   3.782 -0.4810 -1.0814 -2.1502
14192TIP3    H264068   1.409   3.345   3.765  0.0530 -0.7853 -0.9042
14193TIP3   OH264069   0.598   4.067  12.511 -0.2322  0.2822 -0.0830
14193TIP3    H164070   0.655   4.029  12.444 -0.8877  2.2959 -1.9269
14193TIP3    H264071   0.512   4.031  12.492 -0.0809 -0.7333  1.0433
14194TIP3   OH264072   1.448   1.852  14.365  0.5094 -0.2639  0.6674
14194TIP3    H164073   1.542   1.861  14.382  0.3884 -0.2659  1.3815
14194TIP3    H264074   1.415   1.942  14.369  0.3152 -0.3568  1.5178
14195TIP3   OH264075   6.125   6.541  14.769  0.1634 -0.5344 -0.5432
14195TIP3    H164076   6.216   6.562  14.791  0.5517 -2.7123  0.1654
14195TIP3    H264077   6.082   6.626  14.761  1.9041  0.5194  0.6481
14196TIP3   OH264078   2.824   1.861   0.039  0.6316  0.2543  0.3952
14196TIP3    H164079   2.915   1.832   0.051  0.6430 -0.4718 -1.2299
14196TIP3    H264080   2.809   1.855  -0.055 -1.7794 -1.7253  0.8107
14197TIP3   OH264081   0.142   3.859  11.873  0.7328  0.6612 -0.0695
14197TIP3    H164082   0.160   3.824  11.786 -1.6929 -0.1579 -0.3171
14197TIP3    H264083   0.091   3.939  11.857 -0.5009  0.0370  0.5549
14198TIP3   OH264084   0.066   0.918  16.423 -0.1122  0.1691  0.5402
14198TIP3    H164085   0.121   0.866  16.483  0.5671 -0.1128 -0.3072
14198TIP3    H264086   0.043   0.858  16.353  0.6600  0.9857 -0.4428
14199TIP3   OH264087   0.874   0.472  15.296  0.2208  0.4714 -0.2141
14199TIP3    H164088   0.908   0.408  15.358 -1.0681 -1.4670 -1.4010
14199TIP3    H264089   0.782   0.483  15.321  0.0347  0.6806 -0.9634
14200TIP3   OH264090   0.534   0.817  14.351  0.3683  0.6185  0.3051
14200TIP3    H164091   0.495   0.857  14.273 -1.4111  1.0193  1.3602
14200TIP3    H264092   0.624   0.850  14.352 -0.0013  1.7433 -0.7960
14201TIP3   OH264093   5.127   0.720  13.293  0.4605 -0.4477  0.2852
14201TIP3    H164094   5.041   0.719  13.252  0.7233  0.3566 -0.2934
14201TIP3    H264095   5.181   0.662  13.239 -0.0238 -1.9861  1.3768
14202TIP3   OH264096   2.421   2.535  13.274 -1.0322 -0.1867  0.2221
14202TIP3    H164097   2.420   2.482  13.354  1.0261 -0.0033  0.4202
14202TIP3    H264098   2.513   2.534  13.246 -1.1549  2.2788 -0.4447
14203TIP3   OH264099   4.515   0.111  16.243 -0.4208 -0.4521  0.2202
14203TIP3    H164100   4.527   0.206  16.244  0.9638 -0.5309 -1.5535
14203TIP3    H264101   4.544   0.082  16.329  0.6884  0.6319  0.2494
14204TIP3   OH264102   6.133   0.819   0.920 -0.5497  0.2639 -0.1814
14204TIP3    H164103   6.217   0.774   0.921 -0.8684 -0.5093 -2.1613
14204TIP3    H264104   6.140   0.887   0.987  1.5387  0.0440 -0.1258
14205TIP3   OH264105   5.835   5.863  10.259 -0.3423  1.2202 -0.5068
14205TIP3    H164106   5.798   5.946  10.228 -0.1668  1.0473 -1.2009
14205TIP3    H264107   5.771   5.797  10.234 -0.3846  1.1177 -0.1381
14206TIP3   OH264108   5.680   5.873  16.579 -0.1484  0.0356 -0.1559
14206TIP3    H164109   5.773   5.876  16.561 -0.1603  1.4622 -0.0964
14206TIP3    H264110   5.640   5.921  16.507 -0.8501 -0.6082 -0.2114
14207TIP3   OH264111   1.186   2.642   3.914  0.3382 -0.5258  0.2656
14207TIP3    H164112   1.220   2.571   3.969  2.5812 -0.2722 -0.6629
14207TIP3    H264113   1.173   2.715   3.974  1.2104 -0.7370  0.7260
14208TIP3   OH264114   6.071   0.322  15.797 -0.0055  0.1430 -0.4542
14208TIP3    H164115   6.143   0.316  15.861 -0.8027 -0.6776  0.3829
14208TIP3    H264116   6.116   0.329  15.713  1.0894  1.9281  0.2051
14209TIP3   OH264117   5.662   0.003   3.460  0.2987 -0.4142 -0.7896
14209TIP3    H164118   5.689   0.093   3.440  0.6634 -0.5951 -1.1316
14209TIP3    H264119   5.635  -0.034   3.376 -3.6616  0.5761 -0.1285
14210TIP3   OH264120   3.379   1.553   2.839  0.2448 -0.1515 -0.0448
14210TIP3    H164121   3.316   1.542   2.910 -1.3547 -0.2219 -1.3994
14210TIP3    H264122   3.388   1.648   2.829 -0.6911 -0.1098 -0.6735
14211TIP3   OH264123   0.107   1.964  16.694  0.1541  0.1937  0.0516
14211TIP3    H164124   0.201   1.954  16.679  0.0565 -0.5675 -0.0883
14211TIP3    H264125   0.068   1.946  16.608 -0.0994  0.9228  0.0045
14212TIP3   OH264126   2.007   3.502   1.948  0.4423  0.0713  0.0246
14212TIP3    H164127   2.029   3.527   1.858  1.2770 -1.2362 -0.1621
14212TIP3    H264128   2.040   3.413   1.957 -3.9784 -1.8177  0.0669
14213TIP3   OH264129   0.878   6.576  13.811 -0.4446 -0.0029  0.3169
14213TIP3    H164130   0.929   6.513  13.761  0.4891  1.2087 -0.2994
14213TIP3    H264131   0.794   6.580  13.765 -0.1040  0.0376 -0.3147
14214TIP3   OH264132   2.739   3.312  13.105 -0.3275  0.8701 -0.2502
14214TIP3    H164133   2.821   3.304  13.056  0.8597  0.9806  1.6066
14214TIP3    H264134   2.711   3.222  13.120  0.6691  0.7384  0.9803
14215TIP3   OH264135   3.305   3.247  13.397  0.3662 -0.1505  0.2858
14215TIP3    H164136   3.228   3.278  13.349  0.4026  0.7970  0.8134
14215TIP3    H264137   3.326   3.163  13.357  0.0922  0.3744 -1.0172
14216TIP3   OH264138   6.374   0.931   4.847  0.4556 -0.9151  0.7161
14216TIP3    H164139   6.331   0.913   4.931 -0.3175  0.3183  0.6058
14216TIP3    H264140   6.387   0.844   4.809  0.8653 -1.5101  2.1135
14217TIP3   OH264141   1.524   6.263  16.041 -0.2522  0.2776  0.2012
14217TIP3    H164142   1.537   6.173  16.013 -1.2470 -0.1100  0.9258
14217TIP3    H264143   1.606   6.308  16.018  0.1242 -0.7239 -0.4601
14218TIP3   OH264144   6.192   5.505   4.516  0.6971 -0.1687 -0.5185
14218TIP3    H164145   6.231   5.569   4.576  1.2096  0.0418 -1.0709
14218TIP3    H264146   6.214   5.537   4.429 -1.5670  0.4934 -0.9017
14219TIP3   OH264147   3.885   5.687   0.090  0.1310  0.1729  0.0464
14219TIP3    H164148   3.823   5.709   0.160  0.3996  0.6250  0.1484
14219TIP3    H264149   3.876   5.759   0.028 -0.5162 -0.5101 -0.6714
14220TIP3   OH264150   4.680   5.450   3.598  0.2040 -0.0992  0.3121
14220TIP3    H164151   4.771   5.474   3.617  0.2551  0.3455 -0.4617
14220TIP3    H264152   4.653   5.399   3.674  1.1943 -0.4915  0.4193
14221TIP3   OH264153   5.602   2.819  12.471 -0.0378 -0.4058  0.0158
14221TIP3    H164154   5.530   2.767  12.435 -0.8742  1.9145 -1.9160
14221TIP3    H264155   5.653   2.756  12.523 -2.8149 -2.3759  0.5989
14222TIP3   OH264156   0.112   4.584  14.166 -0.1377 -0.4089 -0.1669
14222TIP3    H164157   0.182   4.623  14.114  1.1835 -0.0211  1.7894
14222TIP3    H264158   0.038   4.644  14.156 -0.3489 -0.9433 -2.4419
14223TIP3   OH264159   0.856   0.596   0.601  0.4896 -0.4768  0.4276
14223TIP3    H164160   0.926   0.553   0.651 -0.8098 -1.7204  1.2771
14223TIP3    H264161   0.852   0.547   0.519  1.2540  0.2486 -0.0637
14224TIP3   OH264162   0.430   0.302  15.420  0.3878  0.0806 -0.3577
14224TIP3    H164163   0.494   0.286  15.489  0.4457  1.2027 -0.1341
14224TIP3    H264164   0.418   0.216  15.378  1.5243 -0.2840  0.0255
14225TIP3   OH264165   4.552   1.834   3.225 -0.4394 -0.3197  0.5020
14225TIP3    H164166   4.533   1.902   3.288  0.7305  0.6960 -0.1889
14225TIP3    H264167   4.594   1.764   3.276 -0.1118  0.2085  0.9594
14226TIP3   OH264168   4.757   3.026  11.602 -0.2273 -0.4088  0.4419
14226TIP3    H164169   4.847   3.006  11.627 -1.0859 -2.7016  1.9557
14226TIP3    H264170   4.725   3.084  11.671  0.5276  1.8919 -1.0104
14227TIP3   OH264171   2.696   5.999   2.295 -0.1705  0.4709 -0.5684
14227TIP3    H164172   2.610   5.973   2.263  0.0944 -1.6298  0.2226
14227TIP3    H264173   2.690   5.990   2.390  1.0993 -0.4218 -0.5428
14228TIP3   OH264174   6.849   6.155   5.074  0.5478  0.0112  0.2334
14228TIP3    H164175   6.852   6.166   5.169 -1.3193 -0.8309  0.4189
14228TIP3    H264176   6.796   6.228   5.043  0.7659  0.0205 -0.1251
14229TIP3   OH264177   2.852   6.835   6.165 -0.3225  0.3115  0.2134
14229TIP3    H164178   2.794   6.839   6.241 -0.6491  2.4549 -0.1021
14229TIP3    H264179   2.940   6.826   6.203 -0.4401  1.8020  0.8876
14230TIP3   OH264180   0.457   2.681  10.652 -0.0702 -0.0121 -0.0204
14230TIP3    H164181   0.550   2.697  10.667  0.6919 -1.8742 -2.1832
14230TIP3    H264182   0.425   2.762  10.611  0.8340  0.2686 -0.1962
14231TIP3   OH264183   1.700   1.692   0.335 -0.2955 -0.1248 -0.4483
14231TIP3    H164184   1.684   1.784   0.316 -1.1179 -0.5376 -1.9477
14231TIP3    H264185   1.760   1.692   0.409  0.6191  1.6257 -1.1448
14232TIP3   OH264186   4.945   5.335  14.887 -0.1433 -0.3188  0.3522
14232TIP3    H164187   4.849   5.328  14.894 -0.1604  0.4767  0.9905
14232TIP3    H264188   4.961   5.427  14.872  0.4878 -0.5874 -0.6873
14233TIP3   OH264189   4.847   3.556   6.049 -0.3617 -0.2438  0.1859
14233TIP3    H164190   4.929   3.517   6.079  0.1545  0.8562  0.2495
14233TIP3    H264191   4.805   3.588   6.128  0.3937  1.5075 -0.0803
14234TIP3   OH264192   2.404   4.148   0.607  0.4819  0.1103  0.6073
14234TIP3    H164193   2.383   4.174   0.697  1.0889 -0.0616  0.8023
14234TIP3    H264194   2.389   4.054   0.605  2.3116 -0.2292  1.0832
14235TIP3   OH264195   5.341   6.847   1.594 -0.2001 -0.0754  0.3901
14235TIP3    H164196   5.409   6.881   1.652 -0.4220 -0.6244  0.9864
14235TIP3    H264197   5.378   6.767   1.557 -0.1459  0.1540 -0.0616
14236TIP3   OH264198   1.156   1.783   4.156 -0.1584  0.4630 -0.3580
14236TIP3    H164199   1.109   1.718   4.207  1.7937 -1.8354 -1.2613
14236TIP3    H264200   1.139   1.759   4.065  0.3961  1.3813 -0.7217
14237TIP3   OH264201   1.094   5.484   1.113 -0.3289 -0.1667 -0.5984
14237TIP3    H164202   1.009   5.525   1.097 -1.4066 -1.9322  0.2882
14237TIP3    H264203   1.077   5.390   1.111  1.6203 -0.5786 -0.4222
14238TIP3   OH264204   2.198   1.649  12.417 -0.4492 -0.3094 -0.6865
14238TIP3    H164205   2.142   1.698  12.357  0.3414  0.6323 -0.6727
14238TIP3    H264206   2.245   1.716  12.466  1.4545 -1.0373 -1.4155
14239TIP3   OH264207   0.043   4.922  12.564  0.8412  0.0759  0.4671
14239TIP3    H164208   0.043   4.925  12.468 -1.2336 -0.3895  0.4024
14239TIP3    H264209   0.120   4.971  12.589  2.1353 -0.8394 -1.4584
14240TIP3   OH264210   1.087   0.185  11.047 -0.0175  0.0396 -0.1870
14240TIP3    H164211   1.041   0.266  11.026 -0.9651 -0.5665 -0.5157
14240TIP3    H264212   1.045   0.119  10.993  0.0420 -0.8638  0.8378
14241TIP3   OH264213   5.418   0.918   3.648  0.3180 -0.5476 -0.2948
14241TIP3    H164214   5.375   1.003   3.646  0.1703 -0.6073  0.2211
14241TIP3    H264215   5.370   0.866   3.583  0.3487 -0.2713 -0.5447
14242TIP3   OH264216   5.160   6.523  10.702  0.5832  0.0221 -0.3356
14242TIP3    H164217   5.216   6.596  10.675  2.0103 -0.8827  0.0608
14242TIP3    H264218   5.097   6.561  10.763  0.8545  1.0479 -0.6850
14243TIP3   OH264219   0.563   0.955  11.525  0.1718  0.1764  0.5826
14243TIP3    H164220   0.528   1.008  11.453 -0.1676  1.6315  1.7728
14243TIP3    H264221   0.658   0.964  11.517  0.2551 -1.4418 -0.9317
14244TIP3   OH264222   1.544   2.839   4.599  0.2448 -0.0266 -0.0167
14244TIP3    H164223   1.558   2.774   4.668  1.1757  0.0812 -0.0851
14244TIP3    H264224   1.627   2.886   4.594  0.5245 -0.6333 -1.8332
14245TIP3   OH264225   4.737   4.854  16.596 -0.1220  0.3150  0.8540
14245TIP3    H164226   4.700   4.886  16.514  0.2289  1.2489  1.0434
14245TIP3    H264227   4.700   4.767  16.607 -0.1113  0.1438 -0.3396
14246TIP3   OH264228   5.394   0.420  12.292 -0.7871  0.2309 -0.0445
14246TIP3    H164229   5.354   0.360  12.354 -3.3832  0.1954 -1.6040
14246TIP3    H264230   5.375   0.383  12.206  1.0793  1.2190 -0.9489
14247TIP3   OH264231   4.039   2.361   5.536  0.2507 -0.0101  0.3652
14247TIP3    H164232   3.957   2.360   5.584 -0.0925  0.3480 -0.2030
14247TIP3    H264233   4.060   2.268   5.522 -0.8179 -0.1138 -0.7451
14248TIP3   OH264234   3.306   5.732  10.627 -0.1353  0.6700 -0.1600
14248TIP3    H164235   3.323   5.679  10.549  1.3901 -0.4140  0.8423
14248TIP3    H264236   3.253   5.806  10.595 -0.0819 -0.0570 -2.0805
14249TIP3   OH264237   5.787   6.584  11.419  0.1633  0.6127  0.2784
14249TIP3    H164238   5.840   6.540  11.485  2.8899  0.4488 -1.8401
14249TIP3    H264239   5.699   6.588  11.457  1.1457 -1.2251  3.0196
14250TIP3   OH264240   6.825   2.841  16.388 -0.0304  0.1721  0.3790
14250TIP3    H164241   6.911   2.802  16.404 -0.5488 -1.2879 -0.2688
14250TIP3    H264242   6.764   2.784  16.434 -0.6168  1.6703  1.5450
14251TIP3   OH264243   0.382   0.561   3.953 -0.8746 -0.3688 -0.7824
14251TIP3    H164244   0.438   0.515   3.891  0.1282  0.7898 -0.7618
14251TIP3    H264245   0.333   0.624   3.900 -0.2527  0.3994 -0.4748
14252TIP3   OH264246   3.297   2.127  11.025 -0.0085 -0.2844 -0.1969
14252TIP3    H164247   3.362   2.085  11.082 -0.2835  0.2704  0.5297
14252TIP3    H264248   3.251   2.053  10.984  1.2506 -0.6969 -0.9600
14253TIP3   OH264249   5.771   5.604  15.578 -0.9445 -0.6132 -0.6498
14253TIP3    H164250   5.695   5.563  15.619  0.6718  0.8507  4.4882
14253TIP3    H264251   5.846   5.562  15.619  0.8740  1.8830 -1.1849
14254TIP3   OH264252   1.720   6.763   5.610  0.1599 -0.3694  0.5104
14254TIP3    H164253   1.705   6.690   5.670 -2.1313  0.6716  1.3151
14254TIP3    H264254   1.798   6.807   5.645  0.7869 -1.6368  0.7777
14255TIP3   OH264255   3.978   1.476   0.256  0.1398 -0.2464  0.0343
14255TIP3    H164256   4.063   1.499   0.220  0.4997  0.2289  1.1250
14255TIP3    H264257   3.957   1.391   0.218  0.5436  0.1726 -1.1639
14256TIP3   OH264258   6.461   1.758  10.998 -0.1629  0.4578 -0.2499
14256TIP3    H164259   6.378   1.715  10.977 -0.9509  1.5321  0.5721
14256TIP3    H264260   6.517   1.741  10.922 -1.6058  0.9096 -1.4573
14257TIP3   OH264261   1.696   0.568   5.096  0.3183  0.1218  0.2403
14257TIP3    H164262   1.790   0.551   5.092  0.9007  2.7981  0.5777
14257TIP3    H264263   1.690   0.659   5.125 -2.3790  0.1760 -0.2915
14258TIP3   OH264264   3.778   4.601  11.145 -0.2350 -0.4484  0.1318
14258TIP3    H164265   3.703   4.627  11.092 -0.4604 -0.2584  0.5414
14258TIP3    H264266   3.744   4.593  11.234  0.0076 -1.3648  0.1561
14259TIP3   OH264267   4.578   2.305  16.268 -0.1229 -0.4358  0.5682
14259TIP3    H164268   4.513   2.369  16.240  3.0183  3.1104  0.5635
14259TIP3    H264269   4.577   2.239  16.199 -1.9712  0.8010 -0.7095
14260TIP3   OH264270   2.265   3.022  12.128 -0.0516  0.4393  0.7613
14260TIP3    H164271   2.188   2.973  12.099 -1.3427  2.3213  0.8862
14260TIP3    H264272   2.253   3.110  12.093  3.5740  0.1136 -1.9250
14261TIP3   OH264273   5.726   4.411   5.535 -0.0174  0.0396 -0.2933
14261TIP3    H164274   5.809   4.409   5.487  0.9247  0.2143  1.2698
14261TIP3    H264275   5.709   4.504   5.551  0.9334 -0.0940  1.7456
14262TIP3   OH264276   4.001   3.707  12.236 -0.4457  0.0930 -0.4170
14262TIP3    H164277   3.956   3.749  12.309  1.2461  1.2271  0.0277
14262TIP3    H264278   3.936   3.647  12.199 -1.1691 -1.0749  2.4425
14263TIP3   OH264279   0.484   6.602   0.992 -0.3305  0.6268 -0.2978
14263TIP3    H164280   0.551   6.629   0.928  0.8906 -0.4900  0.4625
14263TIP3    H264281   0.506   6.650   1.071  0.0286 -0.2918  0.1696
14264TIP3   OH264282   3.167   5.585   1.867 -0.4782  0.0041 -0.2562
14264TIP3    H164283   3.073   5.592   1.882 -0.6508 -1.0568 -0.8362
14264TIP3    H264284   3.206   5.615   1.950 -1.3417 -0.6843  0.4212
14265TIP3   OH264285   6.019   0.296  16.287 -0.4070 -0.2560 -0.4855
14265TIP3    H164286   5.947   0.232  16.293 -0.6259 -0.0309 -0.6967
14265TIP3    H264287   6.072   0.265  16.213 -0.4611 -0.2437 -0.5285
14266TIP3   OH264288   4.424   5.942   1.932 -0.8503 -0.1810 -0.4125
14266TIP3    H164289   4.495   5.937   1.997  1.0609 -0.9349 -2.4210
14266TIP3    H264290   4.455   6.007   1.869 -2.3575  0.0491 -0.9505
14267TIP3   OH264291   0.403   1.645   2.481  0.0262 -0.2472 -0.0856
14267TIP3    H164292   0.331   1.699   2.513 -0.3875 -0.7836 -0.0843
14267TIP3    H264293   0.360   1.569   2.442  0.6102 -1.6213  1.7873
14268TIP3   OH264294   5.831   5.829   4.854 -0.3255 -0.2759 -0.4689
14268TIP3    H164295   5.872   5.747   4.883 -1.2511 -0.1751  1.2493
14268TIP3    H264296   5.897   5.896   4.872  0.2145 -0.5379 -1.3583
14269TIP3   OH264297   2.263   2.346  13.872  0.2824 -0.0778 -0.5386
14269TIP3    H164298   2.191   2.283  13.879 -0.0211  0.1375 -1.6697
14269TIP3    H264299   2.230   2.424  13.916  0.1105 -0.2150 -0.4192
14270TIP3   OH264300   5.469   0.953  15.280 -0.1510 -0.6251 -0.3529
14270TIP3    H164301   5.438   0.863  15.269  0.0262 -0.8961  1.1558
14270TIP3    H264302   5.416   0.988  15.352  0.3604  0.1848 -0.3569
14271TIP3   OH264303   6.349   6.464   5.702  0.1583 -0.1171 -0.2694
14271TIP3    H164304   6.316   6.428   5.785  0.6802 -0.4751 -0.2090
14271TIP3    H264305   6.413   6.531   5.729 -0.6979  0.7573 -0.3822
14272TIP3   OH264306   6.189   2.011  15.843  0.2059  0.1466  0.0511
14272TIP3    H164307   6.101   1.979  15.861 -0.5619  0.2961 -2.9484
14272TIP3    H264308   6.181   2.106  15.845  0.1838  0.1621 -0.6406
14273TIP3   OH264309   3.905   0.496  16.147  0.2986  0.1554 -0.2573
14273TIP3    H164310   3.998   0.509  16.165 -0.5810  2.2642  4.4023
14273TIP3    H264311   3.894   0.401  16.143  2.7619 -0.1554 -2.9552
14274TIP3   OH264312   4.514   5.748  15.307  0.5908 -0.5624  0.2267
14274TIP3    H164313   4.590   5.803  15.287  0.6462 -1.1252 -1.1874
14274TIP3    H264314   4.552   5.668  15.344  0.5734 -0.1934  1.0794
14275TIP3   OH264315   1.270   2.731  12.566 -0.0629  0.6611  0.7797
14275TIP3    H164316   1.212   2.710  12.493  0.6173  1.0446  0.1211
14275TIP3    H264317   1.302   2.645  12.596 -0.2373  0.5097  0.5381
14276TIP3   OH264318   0.319   4.788   3.700 -0.0810 -0.0315 -0.5590
14276TIP3    H164319   0.405   4.830   3.696  0.2436 -0.5548  0.6109
14276TIP3    H264320   0.258   4.860   3.718  0.0965  0.3381 -1.3748
14277TIP3   OH264321   5.100   0.574   2.470 -0.2172 -0.0112  0.2101
14277TIP3    H164322   5.062   0.648   2.423 -0.2569  0.3640  0.8182
14277TIP3    H264323   5.187   0.564   2.432 -0.9186 -0.9228 -1.2443
14278TIP3   OH264324   2.863   1.458  12.517  0.2625  0.0793  0.0436
14278TIP3    H164325   2.852   1.389  12.451 -0.2986  1.1167 -0.9872
14278TIP3    H264326   2.909   1.415  12.589  1.2510 -1.0017 -1.1788
14279TIP3   OH264327   5.810   2.035  13.016 -0.4407  0.8008  0.8066
14279TIP3    H164328   5.884   1.978  12.994 -1.0414  0.4160 -0.3078
14279TIP3    H264329   5.830   2.067  13.104  0.4499 -0.2696  1.0205
14280TIP3   OH264330   2.990   6.847  13.990  0.2449 -0.1635  0.4150
14280TIP3    H164331   2.937   6.858  13.911  1.0280  2.7805  0.1760
14280TIP3    H264332   3.027   6.759  13.982 -2.8165 -1.5014 -0.4471
14281TIP3   OH264333   6.102   1.031  15.819  0.3441 -0.1519  0.1960
14281TIP3    H164334   6.159   1.100  15.853  1.7523 -0.9044 -0.5816
14281TIP3    H264335   6.068   0.988  15.897  2.2818 -0.8402  0.7138
14282TIP3   OH264336   6.542   6.050  15.480  0.2307  0.0128  0.5667
14282TIP3    H164337   6.631   6.032  15.511  0.4235  1.9823  1.2917
14282TIP3    H264338   6.551   6.129  15.426 -1.1188  0.4973  1.0059
14283TIP3   OH264339   6.772   3.594  12.659 -0.0915  0.2339  0.6555
14283TIP3    H164340   6.836   3.530  12.628  0.8477  1.2962  0.3533
14283TIP3    H264341   6.818   3.678  12.658 -2.3502  1.7185 -2.8679
14284TIP3   OH264342   2.475   5.009  10.428  0.0600 -0.1547  0.6823
14284TIP3    H164343   2.475   5.100  10.400 -1.2873 -0.2024  0.4845
14284TIP3    H264344   2.391   4.997  10.472 -0.8854 -1.9379 -1.4260
14285TIP3   OH264345   1.574   1.970  11.770 -0.5017  0.1242 -0.3471
14285TIP3    H164346   1.539   1.913  11.838  0.4581 -1.4411 -1.1055
14285TIP3    H264347   1.646   2.017  11.812  1.1638 -2.0285 -0.6015
14286TIP3   OH264348   1.181   5.610   0.384  0.7501 -0.7274 -0.0699
14286TIP3    H164349   1.147   5.691   0.346 -0.4225 -0.6566  1.0602
14286TIP3    H264350   1.106   5.550   0.381  1.4062 -1.5598 -0.2517
14287TIP3   OH264351   4.876   4.347  13.609 -0.2139  0.1221  0.1541
14287TIP3    H164352   4.967   4.338  13.582 -0.0769  0.0285  0.6374
14287TIP3    H264353   4.830   4.277  13.562 -0.1269  0.4778 -0.4724
14288TIP3   OH264354   6.290   4.589  15.288 -0.6135 -0.1822 -0.6852
14288TIP3    H164355   6.209   4.600  15.239 -0.3823 -0.3541 -1.1148
14288TIP3    H264356   6.343   4.529  15.234 -0.4573 -0.5851 -0.1001
14289TIP3   OH264357   4.719   3.429   4.806 -0.1454  0.1807 -0.3555
14289TIP3    H164358   4.732   3.499   4.870  0.3783 -0.6057  0.4267
14289TIP3    H264359   4.659   3.368   4.850 -0.2363 -0.0922 -0.8499
14290TIP3   OH264360   2.612   1.276  12.089  0.6121  0.2073  0.1736
14290TIP3    H164361   2.617   1.194  12.040  1.6081  0.6249 -0.4811
14290TIP3    H264362   2.520   1.287  12.111  0.0837  0.0799 -1.7894
14291TIP3   OH264363   1.787   3.083  12.734 -0.6133  0.7732  0.1982
14291TIP3    H164364   1.755   2.997  12.705  1.8513  0.1665 -0.9678
14291TIP3    H264365   1.864   3.064  12.786 -1.3739  2.2313  1.9939
14292TIP3   OH264366   4.722   5.919   3.940 -0.3720 -0.2142  0.4684
14292TIP3    H164367   4.811   5.926   3.975 -0.1931 -0.1869  0.0100
14292TIP3    H264368   4.712   5.826   3.919  0.0335 -0.0027 -0.7370
14293TIP3   OH264369   1.465   3.718   4.528  0.2791  0.3052 -0.9344
14293TIP3    H164370   1.547   3.684   4.564 -0.5434 -1.5853 -0.6957
14293TIP3    H264371   1.401   3.705   4.598 -0.4378  0.7232 -1.4965
14294TIP3   OH264372   1.616   1.484  12.929  0.1159 -0.3401  0.0727
14294TIP3    H164373   1.573   1.558  12.972  1.6154  0.4324  0.3167
14294TIP3    H264374   1.683   1.525  12.873  1.2619 -1.5021  0.5488
14295TIP3   OH264375   1.223   4.468   3.597  0.1484  0.6417 -0.0783
14295TIP3    H164376   1.137   4.471   3.639  0.5970  0.5251  0.8762
14295TIP3    H264377   1.250   4.560   3.592  0.6318  0.5815  1.0635
14296TIP3   OH264378   0.924   1.734   1.890  0.3084 -0.0438 -0.1979
14296TIP3    H164379   0.929   1.718   1.984 -0.6460  1.7399  0.2163
14296TIP3    H264380   0.949   1.651   1.849  0.9581 -0.7842  1.6178
14297TIP3   OH264381   3.291   4.861   2.438 -0.0618  0.1431 -0.1942
14297TIP3    H164382   3.307   4.921   2.365 -0.7534 -1.1684 -1.4738
14297TIP3    H264383   3.196   4.862   2.450 -0.0895 -0.7128 -0.2697
14298TIP3   OH264384   3.002   1.176  15.687  0.7182  0.5519 -0.4653
14298TIP3    H164385   3.057   1.124  15.629 -1.5820 -1.0953 -1.3076
14298TIP3    H264386   2.995   1.124  15.767 -0.1467  0.3935 -0.6330
14299TIP3   OH264387   6.830   6.084  16.562 -0.0389 -0.2641  0.1737
14299TIP3    H164388   6.822   6.071  16.656  1.2235  0.3922  0.3974
14299TIP3    H264389   6.769   6.155  16.542 -1.5339 -1.5074  0.1908
14300TIP3   OH264390   5.759   0.309   3.718  0.0980  0.5671 -0.1618
14300TIP3    H164391   5.668   0.336   3.733 -0.0503  0.0204 -0.0790
14300TIP3    H264392   5.763   0.289   3.624 -0.4057 -1.4101  0.2112
14301TIP3   OH264393   2.835   3.766  15.672 -0.1618  0.7087 -0.1000
14301TIP3    H164394   2.863   3.772  15.581 -0.5376 -1.9200 -0.4606
14301TIP3    H264395   2.741   3.781  15.669 -0.8714 -2.8296 -0.8080
14302TIP3   OH264396   6.410   3.297   4.120  0.1750  0.0999  0.5395
14302TIP3    H164397   6.340   3.236   4.142 -1.5025  0.9447 -2.0335
14302TIP3    H264398   6.372   3.384   4.131  1.2058  0.6119  0.2546
14303TIP3   OH264399   0.791   3.104  13.404  0.5208  0.3240 -0.4872
14303TIP3    H164400   0.715   3.092  13.347  0.0623 -0.3033  0.2280
14303TIP3    H264401   0.756   3.092  13.493  1.6257 -0.8807 -0.1933
14304TIP3   OH264402   3.437   0.159   2.011  0.9631  0.3009 -0.3503
14304TIP3    H164403   3.356   0.161   2.061  0.3898  0.0175 -1.2486
14304TIP3    H264404   3.413   0.191   1.924  1.7956  0.1425 -0.6544
14305TIP3   OH264405   3.338   0.276  14.456 -0.0183 -0.0253  0.2103
14305TIP3    H164406   3.430   0.264  14.435  0.2201  0.5626  0.8568
14305TIP3    H264407   3.304   0.187  14.467  0.8256 -0.2411  1.3672
14306TIP3   OH264408   0.536   3.843   1.003 -0.3887  0.2199 -1.0671
14306TIP3    H164409   0.620   3.887   1.010 -0.5251  0.4113 -0.5406
14306TIP3    H264410   0.554   3.764   0.954  0.4010 -0.4874  0.2941
14307TIP3   OH264411   3.608   4.451   3.377  0.4311 -0.0303  0.3453
14307TIP3    H164412   3.669   4.432   3.448  2.1833  1.0143 -0.8181
14307TIP3    H264413   3.552   4.374   3.372  1.5472 -0.9569  1.5632
14308TIP3   OH264414   3.664   2.255   3.947 -0.5673  0.2425  0.4465
14308TIP3    H164415   3.681   2.312   4.022 -2.2085 -0.9346  1.7728
14308TIP3    H264416   3.574   2.225   3.959 -0.1470 -1.6983 -0.8235
14309TIP3   OH264417   4.620   5.595   1.878 -0.2108  0.2470  0.5854
14309TIP3    H164418   4.576   5.528   1.826 -0.7868  0.4671  0.7803
14309TIP3    H264419   4.614   5.674   1.825 -0.5228  0.4004  0.8515
14310TIP3   OH264420   5.750   4.917  11.545  0.3725 -0.5006  0.0880
14310TIP3    H164421   5.730   5.001  11.587 -2.6396 -0.9973 -0.0713
14310TIP3    H264422   5.830   4.932  11.496  0.7774  1.8057  1.3367
14311TIP3   OH264423   6.634   0.341  10.481  0.0241  0.7763  0.1400
14311TIP3    H164424   6.571   0.368  10.413 -1.5162  2.7196  2.2053
14311TIP3    H264425   6.717   0.379  10.452 -0.1374 -0.0587 -1.5773
14312TIP3   OH264426   0.415   6.474  15.067  0.2377  0.0964  0.0871
14312TIP3    H164427   0.405   6.429  14.983  0.8534  0.4497 -0.1778
14312TIP3    H264428   0.333   6.522  15.078  0.4691  0.6999 -0.7055
14313TIP3   OH264429   0.382   2.377  12.041  0.1736 -0.0852  0.1812
14313TIP3    H164430   0.315   2.405  11.979  0.4660 -0.3997 -0.2780
14313TIP3    H264431   0.457   2.432  12.023  0.5173 -0.6948 -0.2614
14314TIP3   OH264432   5.951   0.653   4.720  0.1217 -0.6140 -0.2820
14314TIP3    H164433   6.000   0.716   4.773  1.0555 -0.9708 -0.6832
14314TIP3    H264434   6.002   0.646   4.639 -0.1352 -1.6436 -0.3654
14315TIP3   OH264435   5.424   4.530  14.185  0.3192 -0.8263 -0.0386
14315TIP3    H164436   5.498   4.490  14.231  0.7763  1.4227  1.3392
14315TIP3    H264437   5.455   4.618  14.161 -2.2297  0.6871  1.7325
14316TIP3   OH264438   6.228   2.024   5.174  0.3617 -0.3143 -0.3296
14316TIP3    H164439   6.189   2.090   5.232 -2.7360 -1.7302 -0.6151
14316TIP3    H264440   6.253   2.074   5.096 -1.2926  0.7173 -0.2692
14317TIP3   OH264441   6.142   6.298   0.464 -0.1604  0.3012  1.0456
14317TIP3    H164442   6.084   6.265   0.395  0.0602  1.0964  0.4713
14317TIP3    H264443   6.127   6.392   0.465 -0.2808  0.2831  2.2061
14318TIP3   OH264444   0.094   5.843   1.200  0.3718  0.8723 -0.2293
14318TIP3    H164445   0.058   5.767   1.245  2.2582 -0.5020 -0.9327
14318TIP3    H264446   0.163   5.875   1.257  0.8857  0.8558 -0.8313
14319TIP3   OH264447   3.545   0.729   1.363  0.1307  0.0199 -0.0181
14319TIP3    H164448   3.582   0.661   1.307  0.7910  0.6532 -0.3672
14319TIP3    H264449   3.587   0.717   1.448  1.4952  0.9891 -0.5210
14320TIP3   OH264450   0.129   0.724  13.064  0.4767  0.3706  0.0141
14320TIP3    H164451   0.132   0.765  12.977 -0.6899  0.1647 -0.1398
14320TIP3    H264452   0.059   0.770  13.109 -0.7253 -1.2898 -0.0855
14321TIP3   OH264453   2.191   3.633  14.027 -0.2128  0.5397  0.7262
14321TIP3    H164454   2.261   3.624  13.962  0.7612  0.8462  1.7038
14321TIP3    H264455   2.234   3.617  14.111 -1.5663 -0.3715  1.2691
14322TIP3   OH264456   6.719   4.668   0.348  0.7021  0.4563  0.6340
14322TIP3    H164457   6.702   4.609   0.274 -1.2729  0.1029  1.3129
14322TIP3    H264458   6.665   4.745   0.329  0.7318  0.6578  1.3611
14323TIP3   OH264459   3.067   1.307   0.483 -0.4068 -0.1624 -0.0435
14323TIP3    H164460   3.118   1.235   0.520 -0.1978  0.4477  0.8996
14323TIP3    H264461   2.994   1.264   0.437  0.3423 -0.9986 -0.4687
14324TIP3   OH264462   5.710   4.435   0.689 -0.0313  0.5480  0.2734
14324TIP3    H164463   5.725   4.407   0.599 -2.3257 -0.6427  0.1970
14324TIP3    H264464   5.777   4.389   0.740  0.9857  0.8719 -0.7252
14325TIP3   OH264465   2.012   2.088  11.267 -0.0880 -0.2058  1.1880
14325TIP3    H164466   2.010   2.015  11.205 -0.7245  2.0688 -1.6844
14325TIP3    H264467   1.923   2.122  11.267  0.1134  0.3846  2.7220
14326TIP3   OH264468   5.813   1.259  14.840 -0.3412  0.5707  0.4674
14326TIP3    H164469   5.750   1.319  14.801 -0.0461  1.2316  0.9882
14326TIP3    H264470   5.896   1.307  14.841 -0.0860  0.1406  0.8366
14327TIP3   OH264471   1.402   6.061  15.153  0.1789  0.3750  0.5446
14327TIP3    H164472   1.363   6.115  15.084 -0.9880  0.7882  1.4928
14327TIP3    H264473   1.361   5.975  15.143 -1.2381  0.8755  1.6933
14328TIP3   OH264474   3.993   6.203   5.091  0.4375 -0.4781  1.1704
14328TIP3    H164475   4.073   6.150   5.088  0.4486 -0.4230 -1.4683
14328TIP3    H264476   4.016   6.284   5.045 -0.9942 -0.2903  0.7360
14329TIP3   OH264477   1.971   4.429  11.317 -0.3557 -0.3696  0.3350
14329TIP3    H164478   1.999   4.431  11.409 -0.0982 -0.5663  0.2630
14329TIP3    H264479   1.906   4.358  11.313  0.5424 -1.2051  0.1201
14330TIP3   OH264480   3.798   1.083   2.651 -0.3407 -0.4570 -0.2164
14330TIP3    H164481   3.828   1.010   2.706  1.0526  2.4108  3.2343
14330TIP3    H264482   3.875   1.138   2.640 -1.8459  1.7131 -0.5484
14331TIP3   OH264483   3.207   2.729  12.115  0.5542  0.0069 -0.1342
14331TIP3    H164484   3.219   2.730  12.209 -0.2704 -0.2944 -0.0149
14331TIP3    H264485   3.149   2.803  12.097  1.1902  0.4287 -0.4789
14332TIP3   OH264486   2.955   4.608  15.840  0.6979 -0.4711  0.1734
14332TIP3    H164487   3.031   4.575  15.887  0.4252 -1.9661 -0.3844
14332TIP3    H264488   2.932   4.538  15.779 -1.8364 -0.6080  1.1365
14333TIP3   OH264489   2.389   5.156  16.347 -0.0942 -0.3421  0.2640
14333TIP3    H164490   2.314   5.187  16.399 -1.7668  1.2835 -2.8544
14333TIP3    H264491   2.351   5.100  16.279  1.3925  0.9104 -1.7206
14334TIP3   OH264492   5.810   5.022  10.637 -0.3293  0.1873 -0.2228
14334TIP3    H164493   5.816   5.092  10.571 -0.5817  1.8221  1.3956
14334TIP3    H264494   5.746   4.960  10.601  0.6696  0.2323 -2.1734
14335TIP3   OH264495   5.796   1.801   0.246  0.2039 -0.2178  0.3326
14335TIP3    H164496   5.887   1.801   0.275  0.4261 -1.5098 -0.3202
14335TIP3    H264497   5.801   1.824   0.153 -0.2882  1.2937  0.6481
14336TIP3   OH264498   6.596   2.628   2.962 -0.1035 -0.3525  0.6377
14336TIP3    H164499   6.537   2.682   3.014  0.2194  2.2875 -1.4824
14336TIP3    H264500   6.554   2.624   2.876  1.6062 -0.5272 -0.2181
14337TIP3   OH264501   3.640   0.921  16.691  0.1418  0.5058  0.1760
14337TIP3    H164502   3.565   0.944  16.636  0.8640  0.6969 -0.7383
14337TIP3    H264503   3.603   0.866  16.760 -0.7893  0.3077 -0.4629
14338TIP3   OH264504   1.473   2.519   6.353  0.0304 -0.0194  0.3685
14338TIP3    H164505   1.465   2.426   6.332 -0.4712  0.2316 -0.6316
14338TIP3    H264506   1.566   2.532   6.372 -0.0385 -0.8872  1.3926
14339TIP3   OH264507   1.886   2.157   2.693  0.3297  0.1997 -0.3623
14339TIP3    H164508   1.847   2.102   2.625  0.5687 -1.2880  0.6550
14339TIP3    H264509   1.923   2.095   2.756 -2.3186  1.3803  2.5994
14340TIP3   OH264510   2.379   2.581  13.747  0.0026 -0.1279  0.2696
14340TIP3    H164511   2.336   2.517  13.804 -1.5992 -0.4796 -1.2197
14340TIP3    H264512   2.365   2.665  13.791 -1.2367 -0.3819  0.4054
14341TIP3   OH264513   6.075   2.267   2.478  0.3870  0.1343  0.1461
14341TIP3    H164514   5.984   2.281   2.503  1.1536  0.3281  3.2991
14341TIP3    H264515   6.086   2.172   2.479  0.1565  0.0972 -0.5568
14342TIP3   OH264516   2.622   3.715  15.372  0.0188 -0.3489 -0.3696
14342TIP3    H164517   2.702   3.761  15.346  1.3195 -2.8949 -1.1738
14342TIP3    H264518   2.617   3.640  15.314 -1.7614 -1.4832  1.1338
14343TIP3   OH264519   5.146   6.196   4.699 -0.0160  0.0310  0.3752
14343TIP3    H164520   5.114   6.248   4.773 -0.8152 -0.0505  0.0891
14343TIP3    H264521   5.122   6.246   4.622  2.3916  1.0282  0.1708
14344TIP3   OH264522   6.387   6.668   1.444 -0.2308 -0.2364 -0.3276
14344TIP3    H164523   6.322   6.634   1.382  0.1317 -0.5411 -0.5491
14344TIP3    H264524   6.359   6.758   1.462  0.8557  0.6529 -2.6577
14345TIP3   OH264525   6.703   3.434  16.565  0.1797  0.3617  0.2119
14345TIP3    H164526   6.704   3.490  16.487  0.5347 -0.2486 -0.2249
14345TIP3    H264527   6.788   3.449  16.605 -0.2008  1.0840  0.7947
14346TIP3   OH264528   1.821   0.470  14.584 -0.0932  0.3080 -0.2245
14346TIP3    H164529   1.761   0.403  14.617  0.5158 -0.2714 -0.2860
14346TIP3    H264530   1.810   0.467  14.489  1.1820 -0.9160 -0.3620
14347TIP3   OH264531   4.756   0.599   1.088  0.0278  0.5552 -0.7919
14347TIP3    H164532   4.769   0.635   1.176  1.7972  2.3588 -1.7034
14347TIP3    H264533   4.690   0.530   1.099 -0.7501  1.5981  1.7096
14348TIP3   OH264534   1.307   5.860   0.163 -0.6332  0.5679  0.1698
14348TIP3    H164535   1.243   5.913   0.115 -1.0765  1.0413  1.2391
14348TIP3    H264536   1.325   5.911   0.242 -0.3167 -0.4183  0.7491
14349TIP3   OH264537   5.244   6.464   0.950 -0.5721 -0.2597  0.1683
14349TIP3    H164538   5.288   6.515   0.881 -0.9831 -0.8756 -0.5644
14349TIP3    H264539   5.313   6.406   0.984  0.0925  1.2526  1.5141
14350TIP3   OH264540   1.377   6.397   0.181  0.2317 -0.2547 -0.4304
14350TIP3    H164541   1.330   6.447   0.249  0.2420 -1.9801  0.9287
14350TIP3    H264542   1.456   6.365   0.225  0.5785 -0.8616 -1.4626
14351TIP3   OH264543   1.288   2.357   5.487  0.5481 -0.1674  0.3466
14351TIP3    H164544   1.314   2.439   5.445  0.9083  1.2856  3.1243
14351TIP3    H264545   1.248   2.305   5.417  0.8285  2.1250 -1.6478
14352TIP3   OH264546   3.843   0.455  16.832 -0.1940  0.0074 -0.1707
14352TIP3    H164547   3.928   0.488  16.805 -0.2511  0.7735  0.5498
14352TIP3    H264548   3.784   0.530  16.822 -0.7662 -0.4763 -0.5368
14353TIP3   OH264549   1.478   2.359  16.652  0.2640  0.5487  0.4943
14353TIP3    H164550   1.442   2.357  16.741  1.2173  0.4535  0.8878
14353TIP3    H264551   1.558   2.307  16.658  1.0634  1.6789 -0.0961
14354TIP3   OH264552   4.179   6.229   0.159  0.4911 -0.0742  0.1375
14354TIP3    H164553   4.223   6.310   0.131  0.3912  0.1637  0.6535
14354TIP3    H264554   4.197   6.167   0.089  0.3209  0.4806 -0.4152
14355TIP3   OH264555   4.104   4.446  15.489 -0.6991  0.3001  0.3409
14355TIP3    H164556   4.152   4.364  15.491 -0.9017  0.0617 -2.0540
14355TIP3    H264557   4.026   4.430  15.543  0.1061 -0.4594  1.3163
14356TIP3   OH264558   3.211   3.945   4.367  0.5532  0.6169 -0.2415
14356TIP3    H164559   3.280   3.909   4.311  1.7217 -0.6976  1.8998
14356TIP3    H264560   3.236   3.918   4.456 -3.1817 -0.7503  0.5649
14357TIP3   OH264561   0.749   2.407   4.438  0.5676 -0.4446  0.3554
14357TIP3    H164562   0.667   2.406   4.489  0.1403  0.9479 -0.2508
14357TIP3    H264563   0.800   2.335   4.474 -1.0880 -1.6311  0.4729
14358TIP3   OH264564   4.181   0.036  13.046  0.6758  0.1439 -0.3033
14358TIP3    H164565   4.086   0.043  13.055  0.5910 -0.8739 -0.3217
14358TIP3    H264566   4.213   0.125  13.059 -0.2445  0.4192  0.1398
14359TIP3   OH264567   5.644   2.449   0.073 -0.6324  0.1450  0.1170
14359TIP3    H164568   5.610   2.521   0.021  0.2946  0.0082 -0.7205
14359TIP3    H264569   5.703   2.402   0.013  0.5026  0.0066  1.3041
14360TIP3   OH264570   3.483   6.737   2.418  0.3580  0.0147 -0.2935
14360TIP3    H164571   3.544   6.711   2.348 -3.2272 -0.0149 -3.7883
14360TIP3    H264572   3.450   6.654   2.453 -0.2590 -0.0469 -0.9883
14361TIP3   OH264573   6.661   1.899   5.339 -0.1066  0.2190 -0.3266
14361TIP3    H164574   6.592   1.873   5.279 -1.3450 -1.6671  1.7784
14361TIP3    H264575   6.617   1.952   5.405  1.0162  1.3246 -0.4227
14362TIP3   OH264576   2.819   6.102   2.089  0.2579  0.1757 -0.0469
14362TIP3    H164577   2.901   6.056   2.105  1.6796  2.1805 -1.1802
14362TIP3    H264578   2.762   6.075   2.161  1.9822 -1.0287  0.9344
14363TIP3   OH264579   5.243   4.747   2.099  0.0702 -0.4422 -0.1377
14363TIP3    H164580   5.148   4.751   2.086  0.0861 -1.4860 -0.7077
14363TIP3    H264581   5.260   4.656   2.121  0.6802  0.2246  2.4288
14364TIP3   OH264582   3.222   5.306   4.903  0.1844  0.4684 -0.4368
14364TIP3    H164583   3.238   5.400   4.912 -1.5417  0.7266  0.3281
14364TIP3    H264584   3.146   5.301   4.846 -0.1790 -0.4393  0.1226
14365TIP3   OH264585   6.200   4.266  15.402 -0.4609  0.1706 -0.1139
14365TIP3    H164586   6.146   4.246  15.325 -1.1508 -1.2862  0.6979
14365TIP3    H264587   6.137   4.272  15.474  0.4229 -2.0945  0.9550
14366TIP3   OH264588   3.885   0.084   2.686  0.4007 -0.0031 -0.3980
14366TIP3    H164589   3.866   0.074   2.779  1.2316 -0.2709 -0.2395
14366TIP3    H264590   3.800   0.079   2.643  0.1448 -1.8250  0.1975
14367TIP3   OH264591   4.908   0.331   1.789  0.4599 -0.0479  0.0880
14367TIP3    H164592   4.983   0.272   1.799  0.7307  0.2893  0.0541
14367TIP3    H264593   4.832   0.273   1.796  0.6957 -0.2731  1.1047
14368TIP3   OH264594   5.430   5.061  10.042 -0.5525 -0.0251 -0.1882
14368TIP3    H164595   5.502   5.012  10.081 -1.1205 -0.3284  0.5045
14368TIP3    H264596   5.399   5.118  10.112 -1.6289 -0.6209 -0.1504
14369TIP3   OH264597   1.468   3.874   3.267  0.3750 -0.3854 -0.5441
14369TIP3    H164598   1.535   3.822   3.312 -0.3992 -0.1239  0.9792
14369TIP3    H264599   1.475   3.961   3.305 -0.5705 -0.2647 -0.6067
14370TIP3   OH264600   6.058   2.874  15.188 -0.1243  0.0421 -0.5613
14370TIP3    H164601   6.141   2.853  15.145 -0.3013  1.1059 -1.4719
14370TIP3    H264602   6.034   2.794  15.235  0.9847 -0.5560 -0.9821
14371TIP3   OH264603   0.587   0.792   5.005 -0.4800  0.2977  0.5315
14371TIP3    H164604   0.644   0.745   5.066  2.1037  4.1334  1.4166
14371TIP3    H264605   0.531   0.846   5.062 -1.2275  0.6089 -0.4632
14372TIP3   OH264606   0.218   4.551   4.942 -0.4782  0.3740  0.2757
14372TIP3    H164607   0.243   4.634   4.903  1.3641  0.2497  1.1241
14372TIP3    H264608   0.204   4.493   4.867  0.7611  0.7502 -0.2732
14373TIP3   OH264609   3.012   4.156  15.873  0.0876 -0.0042  0.1588
14373TIP3    H164610   2.953   4.087  15.842 -2.2465  0.9225  2.1965
14373TIP3    H264611   3.070   4.112  15.935 -0.7755 -0.3483  0.7404
14374TIP3   OH264612   5.185   0.945  14.320  0.0237 -0.1206  0.1934
14374TIP3    H164613   5.215   0.906  14.402  0.1883  1.5167  0.9507
14374TIP3    H264614   5.102   0.902  14.301  0.3352 -1.0220  0.8202
14375TIP3   OH264615   1.266   5.455  13.646  0.5180 -0.1027 -0.3412
14375TIP3    H164616   1.227   5.537  13.618  1.6254  1.3280  2.0164
14375TIP3    H264617   1.295   5.413  13.564 -0.8656  1.3918 -1.6614
14376TIP3   OH264618   1.990   5.722  13.659 -0.3017  0.2946 -0.7263
14376TIP3    H164619   1.927   5.650  13.655 -0.7985  0.7409 -1.0229
14376TIP3    H264620   2.002   5.738  13.752 -0.5274  0.1226 -0.6660
14377TIP3   OH264621   4.371   4.652   5.128 -0.0685  0.0984 -0.2337
14377TIP3    H164622   4.288   4.688   5.159  0.0916  1.3505 -1.1804
14377TIP3    H264623   4.353   4.560   5.111 -0.7568 -0.0950  1.3243
14378TIP3   OH264624   3.130   5.720   1.348  0.0559 -0.3767 -0.3172
14378TIP3    H164625   3.135   5.632   1.310 -1.0672  0.2461 -2.0122
14378TIP3    H264626   3.079   5.708   1.429 -1.6672 -1.0586 -1.4505
14379TIP3   OH264627   0.388   2.024   0.192 -0.3073 -0.4794 -0.4143
14379TIP3    H164628   0.449   1.965   0.237  0.2981  0.1788 -0.3456
14379TIP3    H264629   0.323   1.966   0.153  0.4154 -1.2164 -0.5636
14380TIP3   OH264630   1.735   3.633  14.585 -0.2553  0.4364 -0.2296
14380TIP3    H164631   1.731   3.728  14.596 -0.1977  0.4353 -0.1957
14380TIP3    H264632   1.683   3.598  14.658  1.5728  0.3797  1.1026
14381TIP3   OH264633   4.447   4.207  14.139  0.1777  0.3505 -0.1221
14381TIP3    H164634   4.371   4.258  14.112 -0.5323 -0.4279  0.3597
14381TIP3    H264635   4.429   4.184  14.231  1.5665  1.1842  0.3930
14382TIP3   OH264636   0.592   5.015  14.180 -0.3822  0.5991 -0.1935
14382TIP3    H164637   0.588   4.940  14.239 -0.3328  0.2939 -0.5692
14382TIP3    H264638   0.522   5.000  14.117  0.0593  0.5079 -0.6771
14383TIP3   OH264639   3.746   1.160  10.989  0.1451  0.0631 -0.3070
14383TIP3    H164640   3.735   1.252  10.967 -0.2292  0.2321  0.5381
14383TIP3    H264641   3.841   1.149  10.997  0.1360  0.7558  1.0581
14384TIP3   OH264642   3.087   1.406  10.580  0.5462 -0.0750  0.1564
14384TIP3    H164643   3.084   1.487  10.630  0.7570 -0.5596  0.9743
14384TIP3    H264644   2.999   1.370  10.589  1.1665 -1.2541  2.0672
14385TIP3   OH264645   1.300   2.307   4.799 -0.6075  0.2887  0.0823
14385TIP3    H164646   1.249   2.227   4.815  0.5773 -0.1399  2.1486
14385TIP3    H264647   1.285   2.327   4.707 -1.6102 -1.8467 -0.2901
14386TIP3   OH264648   1.414   1.945  11.047 -0.0175 -1.0340  0.5279
14386TIP3    H164649   1.458   1.883  11.105  1.4315 -0.0175  0.5732
14386TIP3    H264650   1.484   1.981  10.993 -1.1579 -1.0185 -0.9902
14387TIP3   OH264651   5.300   5.870   3.963  0.0758 -0.2552 -0.3516
14387TIP3    H164652   5.272   5.926   4.035 -1.1035 -1.2759  0.0121
14387TIP3    H264653   5.229   5.806   3.952  1.1507 -1.3863 -1.0692
14388TIP3   OH264654   0.807   5.844   3.962  0.2506  0.3515  0.0148
14388TIP3    H164655   0.761   5.925   3.939 -0.8522  0.0449  1.0384
14388TIP3    H264656   0.801   5.791   3.883  0.0422  0.8586 -0.3193
14389TIP3   OH264657   0.945   2.831  12.518  0.5720 -0.1323  0.1966
14389TIP3    H164658   0.922   2.911  12.471 -0.4707  0.0707  1.0157
14389TIP3    H264659   0.981   2.862  12.602 -0.0798 -0.5126  0.6256
14390TIP3   OH264660   1.880   6.315   1.325  0.4736 -0.2505 -0.4038
14390TIP3    H164661   1.850   6.382   1.264  2.7327 -0.1071 -1.4624
14390TIP3    H264662   1.801   6.265   1.346 -0.6379  0.5598 -2.3608
14391TIP3   OH264663   1.730   6.298  15.474 -0.1654  0.4111 -0.0426
14391TIP3    H164664   1.708   6.235  15.405  1.0565  1.3356 -1.3310
14391TIP3    H264665   1.659   6.288  15.538 -0.2965 -1.8638 -0.4447
14392TIP3   OH264666   4.947   0.357  10.624  0.1512  0.1086  0.4342
14392TIP3    H164667   4.857   0.326  10.611  0.0735  0.5808 -0.2464
14392TIP3    H264668   4.948   0.392  10.713  0.3879 -2.2822  1.4394
14393TIP3   OH264669   5.180   5.179  12.570  0.3206 -0.2981 -0.2098
14393TIP3    H164670   5.195   5.215  12.657  0.1820  0.0686 -0.3367
14393TIP3    H264671   5.232   5.234  12.512  0.7330 -0.7908 -0.3136
14394TIP3   OH264672   0.537   2.941   4.577  0.1563 -0.1078  0.4252
14394TIP3    H164673   0.518   2.880   4.649  0.3938 -0.2283  0.3866
14394TIP3    H264674   0.626   2.918   4.549  0.0733 -0.0499  0.1057
14395TIP3   OH264675   4.428   3.165   4.009  0.1562 -0.4257  0.6230
14395TIP3    H164676   4.406   3.188   3.919  1.2541 -0.9668  0.2110
14395TIP3    H264677   4.410   3.071   4.015  0.0180 -0.3778  0.9913
14396TIP3   OH264678   2.675   3.908   0.414  0.4824 -0.3430  0.0894
14396TIP3    H164679   2.620   3.914   0.492  1.4157 -0.2203  0.7578
14396TIP3    H264680   2.651   3.985   0.362 -0.6616 -0.8092 -0.1058
14397TIP3   OH264681   1.758   1.894   4.736 -0.4514  0.2848  0.4990
14397TIP3    H164682   1.797   1.911   4.650 -3.0548  1.1457 -0.6174
14397TIP3    H264683   1.720   1.978   4.762  0.5448  0.1173  2.6875
14398TIP3   OH264684   4.573   6.706   0.509 -0.0744  0.3402 -0.4521
14398TIP3    H164685   4.609   6.618   0.511 -0.7089  0.0828  0.1522
14398TIP3    H264686   4.646   6.762   0.483  0.6018 -0.2310  0.1848
14399TIP3   OH264687   2.171   5.724   3.540 -0.7065  0.6644 -0.2060
14399TIP3    H164688   2.189   5.741   3.448 -1.6234  1.0472 -0.3252
14399TIP3    H264689   2.222   5.646   3.561 -0.6467  0.4592 -1.0952
14400TIP3   OH264690   3.074   1.592  12.755 -0.1673 -0.3601 -0.5985
14400TIP3    H164691   3.092   1.594  12.849 -2.5038  1.5524 -0.0940
14400TIP3    H264692   3.032   1.507  12.740 -0.8851 -0.1929  0.3567
14401TIP3   OH264693   5.575   0.790  16.241 -0.0451 -0.3085 -0.0463
14401TIP3    H164694   5.621   0.872  16.222 -1.0655  0.6914  1.6258
14401TIP3    H264695   5.577   0.742  16.158  0.0825  1.6377 -1.2264
14402TIP3   OH264696   2.885   0.300  11.773  0.1248 -0.4152 -0.1478
14402TIP3    H164697   2.810   0.249  11.741  0.2481 -1.5672  1.3203
14402TIP3    H264698   2.961   0.247  11.753  0.3967 -0.0895  0.0046
14403TIP3   OH264699   3.462   6.851  14.330  0.3003  0.0741  0.0689
14403TIP3    H164700   3.470   6.868  14.236  0.1556 -0.3168 -0.0167
14403TIP3    H264701   3.379   6.804  14.338 -0.8988  2.1229  0.6658
14404TIP3   OH264702   6.209   3.004  11.476 -0.1671 -0.2604 -0.7305
14404TIP3    H164703   6.144   2.987  11.544  0.6041 -2.5992 -0.4860
14404TIP3    H264704   6.290   2.966  11.510  1.2145  2.0344 -1.2926
14405TIP3   OH264705   6.173   4.304  11.112 -0.6509  0.1154  0.0190
14405TIP3    H164706   6.089   4.261  11.098  0.4620 -2.1574 -0.0222
14405TIP3    H264707   6.224   4.284  11.034 -0.3615  2.3479 -0.4368
14406TIP3   OH264708   2.833   4.056   3.086 -0.0475  0.0251  0.3832
14406TIP3    H164709   2.829   4.130   3.025 -1.9629  1.8579  2.5346
14406TIP3    H264710   2.835   3.979   3.030  1.1509  1.6394 -1.9762
14407TIP3   OH264711   6.466   6.621  12.406  0.2413  0.8113 -0.3632
14407TIP3    H164712   6.559   6.606  12.389  0.5540  0.0808  1.6954
14407TIP3    H264713   6.430   6.535  12.427 -1.1188  0.9515 -1.9006
14408TIP3   OH264714   3.473   6.171  15.325  0.0698 -0.0682 -0.1424
14408TIP3    H164715   3.434   6.197  15.242  2.3221 -1.3854 -1.7069
14408TIP3    H264716   3.484   6.253  15.373  0.4146  0.9828 -1.9140
14409TIP3   OH264717   2.082   6.202  13.444  0.6955 -0.1718 -0.4007
14409TIP3    H164718   2.040   6.120  13.468  0.9068 -0.2115 -0.1681
14409TIP3    H264719   2.096   6.247  13.528  1.0810 -0.1417 -0.4810
14410TIP3   OH264720   5.006   4.389   0.738  0.2452 -0.0731 -0.0520
14410TIP3    H164721   4.933   4.438   0.699  0.1347 -1.2458 -1.4234
14410TIP3    H264722   5.065   4.457   0.771 -1.1610  0.9145  0.5403
14411TIP3   OH264723   5.618   2.944  13.300 -0.3176  0.0204  0.3868
14411TIP3    H164724   5.624   2.889  13.222 -0.1994  1.3530 -0.5687
14411TIP3    H264725   5.689   2.913  13.357  2.3138  1.6399 -1.7645
14412TIP3   OH264726   6.331   1.727   1.996  0.2339  0.0432  0.8189
14412TIP3    H164727   6.415   1.705   2.036  0.2480 -0.7307  0.3906
14412TIP3    H264728   6.292   1.642   1.975 -0.3318  0.4102  0.3650
14413TIP3   OH264729   4.361   6.084   2.991  0.0988 -0.5478 -0.4181
14413TIP3    H164730   4.447   6.045   2.974  0.5724  0.9506 -1.6371
14413TIP3    H264731   4.307   6.056   2.917  0.2900  0.6152 -1.0176
14414TIP3   OH264732   4.312   5.915  14.703 -0.1050  0.1914 -0.8943
14414TIP3    H164733   4.291   5.973  14.630  0.1972 -0.9612 -1.9503
14414TIP3    H264734   4.296   5.827  14.668 -1.7324 -0.3528  1.0213
14415TIP3   OH264735   5.724   1.112   0.636 -0.1240 -0.2233 -0.5192
14415TIP3    H164736   5.752   1.068   0.716  1.7764  1.8848  0.1114
14415TIP3    H264737   5.760   1.058   0.565  0.7308 -0.5824  0.1624
14416TIP3   OH264738   4.576   3.341  13.697 -0.0742 -0.1898 -0.0808
14416TIP3    H164739   4.592   3.393  13.619 -0.9957 -0.2290 -0.3054
14416TIP3    H264740   4.649   3.280  13.701 -0.9499 -1.4628 -1.9766
14417TIP3   OH264741   3.307   4.278  14.639 -0.0811 -0.2436 -0.0566
14417TIP3    H164742   3.284   4.273  14.546  0.2864  0.3208 -0.1872
14417TIP3    H264743   3.358   4.199  14.656  1.8022  0.7124 -0.9171
14418TIP3   OH264744   0.819   1.957   3.456 -0.3806 -0.4732  0.2881
14418TIP3    H164745   0.845   1.871   3.489 -1.2542 -1.3757 -1.2194
14418TIP3    H264746   0.744   1.938   3.399  0.7047  1.0025 -1.7563
14419TIP3   OH264747   6.194   0.070   2.703  0.5908  0.0143 -0.6321
14419TIP3    H164748   6.249   0.057   2.781 -0.8583 -1.2064  0.2439
14419TIP3    H264749   6.219  -0.002   2.644 -1.5780 -2.0145  0.7390
14420TIP3   OH264750   5.468   3.721   6.527  0.7750  0.2802 -0.1380
14420TIP3    H164751   5.473   3.685   6.615 -0.2761 -0.4051 -0.3382
14420TIP3    H264752   5.383   3.691   6.494  1.6595 -0.5156 -1.8308
14421TIP3   OH264753   1.520   1.044  11.798 -0.5788 -0.3819 -0.1292
14421TIP3    H164754   1.433   1.053  11.837 -0.0713  1.0913  0.7494
14421TIP3    H264755   1.549   0.956  11.823 -2.1972 -1.2960 -1.3097
14422TIP3   OH264756   3.841   1.749  15.232 -0.7725 -0.6096 -0.2474
14422TIP3    H164757   3.851   1.692  15.309 -2.0682 -0.1700  0.2875
14422TIP3    H264758   3.859   1.693  15.157  1.6546 -0.7711  0.3875
14423TIP3   OH264759   2.908   4.245   1.475 -0.1886 -0.1463  0.5577
14423TIP3    H164760   2.877   4.274   1.561  0.4282  1.0887  0.4008
14423TIP3    H264761   2.941   4.325   1.435 -1.4549 -0.4912 -1.2763
14424TIP3   OH264762   4.070   1.254   0.108  0.5288  0.2043  0.5370
14424TIP3    H164763   4.071   1.186   0.040  0.1818  0.7283  0.0013
14424TIP3    H264764   4.146   1.308   0.089 -0.5998  1.4712 -0.6086
14425TIP3   OH264765   5.897   6.265  15.224  0.0889 -0.1186 -0.2961
14425TIP3    H164766   5.912   6.354  15.256  2.4161 -1.3981  2.6027
14425TIP3    H264767   5.831   6.229  15.284  2.3969 -1.6370  1.5180
14426TIP3   OH264768   3.566   2.584   0.992  0.5004  0.0720  0.4507
14426TIP3    H164769   3.494   2.581   1.055 -1.2875  0.3874 -1.4700
14426TIP3    H264770   3.629   2.520   1.024 -0.9880 -0.7716  1.7996
14427TIP3   OH264771   1.220   4.983  11.016 -0.5520  0.3147  0.1442
14427TIP3    H164772   1.229   5.042  11.090 -0.2171  2.2417 -1.3392
14427TIP3    H264773   1.297   4.927  11.018 -1.1256 -0.4667  1.8663
14428TIP3   OH264774   2.306   4.265  14.240 -0.1325 -0.4871 -0.1902
14428TIP3    H164775   2.249   4.299  14.309 -1.1426 -1.5030 -0.4914
14428TIP3    H264776   2.308   4.335  14.174 -2.4109 -1.0353 -0.9394
14429TIP3   OH264777   3.359   1.178  13.067  0.4639 -0.1953  0.1778
14429TIP3    H164778   3.325   1.096  13.103  1.0194 -0.1360  0.8749
14429TIP3    H264779   3.339   1.174  12.974 -0.8187 -0.4669  0.4502
14430TIP3   OH264780   6.116   3.998  11.184 -0.0910 -0.0948  0.1246
14430TIP3    H164781   6.059   4.016  11.259  0.3472  0.1387  0.4067
14430TIP3    H264782   6.071   4.038  11.110 -0.9117 -0.9952  0.1204
14431TIP3   OH264783   6.150   3.239   3.329 -0.5211  0.6444 -0.3812
14431TIP3    H164784   6.112   3.326   3.345 -1.2814  0.0778  1.0759
14431TIP3    H264785   6.238   3.258   3.297 -0.2051  1.9717  1.1197
14432TIP3   OH264786   0.514   3.316  15.499 -0.1360 -0.1899 -0.1552
14432TIP3    H164787   0.586   3.378  15.511  0.3263 -0.3898 -1.7310
14432TIP3    H264788   0.544   3.236  15.543  0.3793 -0.1090 -0.3530
14433TIP3   OH264789   0.351   2.114  16.135  0.2267  0.2689 -0.3166
14433TIP3    H164790   0.444   2.098  16.119  0.1578 -0.1349 -0.3165
14433TIP3    H264791   0.323   2.041  16.190 -0.1848  0.1646 -0.6530
14434TIP3   OH264792   6.765   0.713  11.736  0.0235  0.0476 -0.5043
14434TIP3    H164793   6.762   0.795  11.785  2.5822 -0.2030  0.1886
14434TIP3    H264794   6.689   0.663  11.767 -0.1497  1.1449  0.9127
14435TIP3   OH264795   2.188   6.313  10.130 -0.0884  0.6861 -0.2891
14435TIP3    H164796   2.138   6.380  10.083 -1.3833  1.7099  2.2990
14435TIP3    H264797   2.121   6.256  10.169  0.9344 -0.7052 -0.4928
14436TIP3   OH264798   2.707   3.040  12.913 -0.5853  0.5251  0.1365
14436TIP3    H164799   2.683   3.043  12.820  0.0563  2.5610 -0.0134
14436TIP3    H264800   2.762   2.963  12.921 -1.2070 -0.0708 -1.0283
14437TIP3   OH264801   3.309   6.519   4.743 -0.2943 -0.1179  0.1158
14437TIP3    H164802   3.336   6.542   4.654  1.1811 -0.0773  0.5548
14437TIP3    H264803   3.359   6.578   4.800 -1.9109  0.5056  0.9579
14438TIP3   OH264804   6.280   3.831   0.762  0.1720 -0.6037 -0.6275
14438TIP3    H164805   6.189   3.843   0.788  0.8803  1.0837  1.3906
14438TIP3    H264806   6.312   3.761   0.819  0.5278 -0.1275 -0.2366
14439TIP3   OH264807   3.360   1.106   5.855 -0.0512  0.2130  0.1329
14439TIP3    H164808   3.359   1.012   5.874 -2.1337 -0.2064 -1.6769
14439TIP3    H264809   3.342   1.148   5.939 -0.4868 -1.0713  0.7086
14440TIP3   OH264810   3.482   5.286  15.922 -0.1015  1.0066  0.2142
14440TIP3    H164811   3.439   5.283  15.836  0.1538 -1.9759  0.0856
14440TIP3    H264812   3.419   5.246  15.981  0.9648  0.1194  0.7837
14441TIP3   OH264813   6.883   4.524   1.723 -0.5582 -0.1253 -0.6467
14441TIP3    H164814   6.857   4.432   1.715  0.9689 -0.6946  0.5964
14441TIP3    H264815   6.894   4.554   1.633 -0.8674 -1.2059 -1.0545
14442TIP3   OH264816   6.773   5.566  10.974 -0.1953  0.2831 -0.5411
14442TIP3    H164817   6.724   5.570  11.056  0.3643  1.1676 -0.2441
14442TIP3    H264818   6.863   5.547  11.001 -0.3368 -1.2851 -1.0803
14443TIP3   OH264819   1.964   4.286  15.413 -0.1179  0.1151  0.0003
14443TIP3    H164820   2.027   4.314  15.347 -1.5629  0.9073 -1.0903
14443TIP3    H264821   2.013   4.226  15.470  1.6292  0.8202 -0.7210
14444TIP3   OH264822   6.387   6.500  16.653 -0.2716 -0.3118 -0.0591
14444TIP3    H164823   6.380   6.426  16.714 -1.4837 -0.2414 -0.0929
14444TIP3    H264824   6.328   6.566  16.689  0.9927  0.7629  0.1198
14445TIP3   OH264825   1.354   3.663  14.438  0.4619  0.3948  0.3485
14445TIP3    H164826   1.316   3.599  14.499 -0.2430 -0.4588 -0.9432
14445TIP3    H264827   1.286   3.730  14.428  0.7187  0.7227  0.7574
14446TIP3   OH264828   3.843   0.548   0.689  1.0470 -0.4276 -0.3242
14446TIP3    H164829   3.909   0.499   0.641  0.3630 -3.2034  1.3867
14446TIP3    H264830   3.863   0.532   0.781 -1.6146 -0.8812  0.2595
14447TIP3   OH264831   3.689   1.392  12.451 -0.0092  0.0121 -0.1463
14447TIP3    H164832   3.605   1.434  12.466  0.3883  0.3607  1.2915
14447TIP3    H264833   3.721   1.370  12.539  0.6898 -1.5235 -0.7585
14448TIP3   OH264834   0.259   5.384   2.645 -0.5520 -0.1509 -0.5549
14448TIP3    H164835   0.304   5.306   2.675  0.2361  0.5871  0.2149
14448TIP3    H264836   0.277   5.389   2.551  2.7064  1.1923  0.0279
14449TIP3   OH264837   4.762   5.601   1.533  0.0212  0.0621 -0.3272
14449TIP3    H164838   4.829   5.661   1.566 -1.6720  2.2352 -0.6882
14449TIP3    H264839   4.679   5.635   1.567 -1.1067 -1.5574 -1.3070
14450TIP3   OH264840   4.106   0.939   4.254  0.4344 -0.1075  0.2332
14450TIP3    H164841   4.020   0.909   4.283  1.2516 -2.4290  0.4587
14450TIP3    H264842   4.162   0.928   4.331  0.7686  2.5347  0.4800
14451TIP3   OH264843   5.767   1.388  15.445  0.1304  0.2245 -0.0005
14451TIP3    H164844   5.689   1.334  15.459  0.1433  0.2686  0.2439
14451TIP3    H264845   5.744   1.473  15.481  0.1905  0.3183 -0.1860
14452TIP3   OH264846   3.096   0.425   3.456 -0.2717  0.5382 -0.1540
14452TIP3    H164847   3.028   0.410   3.390 -0.1291  0.5204 -0.2973
14452TIP3    H264848   3.060   0.386   3.536 -1.2921  2.2373  0.2695
14453TIP3   OH264849   1.041   5.867   3.770 -0.1158  0.0792 -0.4175
14453TIP3    H164850   0.968   5.903   3.720 -0.7163 -0.0360  0.3635
14453TIP3    H264851   1.002   5.836   3.851  0.7931 -0.0510 -0.0154
14454TIP3   OH264852   1.278   1.017   3.247 -0.1491  0.1212  0.4835
14454TIP3    H164853   1.294   0.953   3.178 -0.5535 -1.3977  1.7365
14454TIP3    H264854   1.323   0.982   3.324  0.8652  2.1033  0.8785
14455TIP3   OH264855   6.705   3.293   3.303 -0.2939  0.1475 -0.3042
14455TIP3    H164856   6.730   3.240   3.379 -0.6314  3.1264  2.0892
14455TIP3    H264857   6.779   3.287   3.244  1.2928 -0.0601  1.5889
14456TIP3   OH264858   0.694   1.984  15.863 -0.0276  0.0986  0.2689
14456TIP3    H164859   0.727   1.894  15.861  1.7300  0.7173 -0.0209
14456TIP3    H264860   0.661   1.999  15.774 -0.1367 -0.1771  0.2602
14457TIP3   OH264861   2.300   0.881   0.179  0.3305  0.5230  0.9512
14457TIP3    H164862   2.309   0.976   0.183  0.8320  0.5188  0.2286
14457TIP3    H264863   2.372   0.853   0.122 -0.3810 -0.1940  0.3787
14458TIP3   OH264864   2.481   0.956   3.146 -0.1582 -0.0211 -0.2696
14458TIP3    H164865   2.499   0.991   3.059 -2.2375  1.3892 -0.1889
14458TIP3    H264866   2.568   0.936   3.182  0.8195  0.6059 -2.1404
14459TIP3   OH264867   3.053   1.189   3.198 -0.3598  0.2994  0.4588
14459TIP3    H164868   3.069   1.151   3.111  0.7236 -0.0537  0.7974
14459TIP3    H264869   3.103   1.133   3.258 -0.8513  0.7213  1.2795
14460TIP3   OH264870   0.987   5.938  11.684 -0.3268 -0.1017 -0.0419
14460TIP3    H164871   1.044   6.015  11.693 -1.0970  0.3449  1.3249
14460TIP3    H264872   0.911   5.970  11.636 -0.8393  0.1401  0.8866
14461TIP3   OH264873   4.006   0.742  14.280 -0.4746 -0.2112  0.9583
14461TIP3    H164874   4.070   0.671  14.275 -0.6221 -0.3082  0.1692
14461TIP3    H264875   3.921   0.698  14.272 -0.5526  0.0748  0.0169
14462TIP3   OH264876   1.968   0.887  12.769  0.4201  0.0037  0.4029
14462TIP3    H164877   2.010   0.951  12.711  0.2129  1.3201  1.6343
14462TIP3    H264878   1.920   0.941  12.832 -1.2510 -1.4369  0.4085
14463TIP3   OH264879   2.302   6.438  12.375  0.3244  0.1754  0.3873
14463TIP3    H164880   2.351   6.519  12.388  0.6916  0.0789 -0.3503
14463TIP3    H264881   2.344   6.374  12.433  0.5356  0.3064  0.3786
14464TIP3   OH264882   2.908   2.002  15.312 -0.1312 -0.1741  0.4643
14464TIP3    H164883   2.871   2.004  15.224  0.1364 -1.6884  0.2877
14464TIP3    H264884   2.992   2.046  15.304  0.5463 -1.5903 -0.3816
14465TIP3   OH264885   4.765   1.757   5.068  0.1364 -0.9941 -0.0011
14465TIP3    H164886   4.747   1.728   4.979  1.6888  0.5749 -0.9059
14465TIP3    H264887   4.680   1.786   5.102 -0.2932 -0.4815 -1.4361
14466TIP3   OH264888   4.122   6.361  15.500 -0.3174  0.3223  0.4328
14466TIP3    H164889   4.058   6.311  15.551  1.2715 -0.6020  1.6041
14466TIP3    H264890   4.091   6.353  15.410 -1.9856  0.1239  0.9903
14467TIP3   OH264891   1.566   0.163   2.239 -0.2114  0.5134  0.5931
14467TIP3    H164892   1.632   0.232   2.241  2.2073 -1.6115  0.6175
14467TIP3    H264893   1.559   0.135   2.331  1.7871 -1.7201  0.1673
14468TIP3   OH264894   5.417   4.390   3.742  0.5685 -0.1650  0.1148
14468TIP3    H164895   5.479   4.449   3.701  0.6855 -1.5247 -1.8149
14468TIP3    H264896   5.469   4.338   3.804  0.7933  0.5321  0.5149
14469TIP3   OH264897   2.183   3.840   3.851  0.4655  0.7127  0.4551
14469TIP3    H164898   2.258   3.781   3.854 -1.0665 -1.3198  1.8630
14469TIP3    H264899   2.200   3.905   3.919  0.5239 -0.3700  1.5214
14470TIP3   OH264900   6.008   6.715  15.475 -0.5384  0.0526 -0.7086
14470TIP3    H164901   5.998   6.810  15.463  0.4869  0.1462 -0.9417
14470TIP3    H264902   6.100   6.704  15.499 -0.5883 -0.9122 -0.9398
14471TIP3   OH264903   4.248   2.826   0.314 -0.0840  0.5164  0.3347
14471TIP3    H164904   4.202   2.876   0.381 -2.0504 -0.0311 -0.5385
14471TIP3    H264905   4.245   2.735   0.345 -0.0398  0.4040  0.0123
14472TIP3   OH264906   5.089   4.843   5.037  0.3135 -0.3241 -0.1048
14472TIP3    H164907   5.053   4.932   5.032  1.2270 -0.0262 -2.8496
14472TIP3    H264908   5.014   4.787   5.018  0.0375 -0.0858  0.2471
14473TIP3   OH264909   0.771   1.603  12.484 -0.0757 -0.3211 -0.4345
14473TIP3    H164910   0.745   1.667  12.418 -0.8638 -0.8294 -0.6329
14473TIP3    H264911   0.811   1.655  12.553  0.2568  0.2756 -1.0597
14474TIP3   OH264912   3.376   1.060  11.784 -0.1671  0.1431  0.4725
14474TIP3    H164913   3.344   1.108  11.707  0.0825  0.2967  0.4628
14474TIP3    H264914   3.467   1.040  11.763 -0.2350 -0.2239  0.5327
14475TIP3   OH264915   4.102   0.376   4.247 -0.0004  0.7298 -0.3721
14475TIP3    H164916   4.197   0.387   4.242  0.5888 -2.5015  0.7984
14475TIP3    H264917   4.082   0.309   4.181 -1.7285  2.2603 -1.5032
14476TIP3   OH264918   5.332   5.578  13.044 -0.3244  0.2939 -0.8153
14476TIP3    H164919   5.343   5.483  13.044 -0.5830  0.2391  0.8363
14476TIP3    H264920   5.362   5.606  12.957  1.6809 -1.0753 -0.6140
14477TIP3   OH264921   3.119   5.169   6.389 -0.0045  0.0305  0.3632
14477TIP3    H164922   3.190   5.231   6.405 -1.1930  1.6681 -0.3745
14477TIP3    H264923   3.139   5.132   6.303 -0.9883  1.9503 -0.7511
14478TIP3   OH264924   1.701   6.584   5.170  0.0362  0.0164  0.0591
14478TIP3    H164925   1.737   6.673   5.167 -2.0767  1.0776  2.2832
14478TIP3    H264926   1.650   6.576   5.089  1.2050  0.3424 -0.7340
14479TIP3   OH264927   0.929   6.899  14.397 -0.6024  0.4182 -0.1471
14479TIP3    H164928   0.846   6.853  14.386 -1.7389  2.4217 -0.4115
14479TIP3    H264929   0.969   6.898  14.310  0.5712 -2.0368  0.3108
14480TIP3   OH264930   4.026   4.886   1.635 -0.6171 -1.0457 -0.3318
14480TIP3    H164931   4.037   4.978   1.611  2.5883 -1.1865  0.1920
14480TIP3    H264932   4.025   4.840   1.551 -0.6092 -0.6633 -0.5471
14481TIP3   OH264933   4.153   4.734  14.613 -0.2149  0.0826  0.1901
14481TIP3    H164934   4.234   4.726  14.563 -0.5569  0.6261 -0.4636
14481TIP3    H264935   4.128   4.643  14.631 -0.5550 -0.1765 -1.4200
14482TIP3   OH264936   6.580   1.107   4.779  0.0202 -0.8920 -0.6769
14482TIP3    H164937   6.499   1.061   4.800  0.4306 -0.5218  2.0257
14482TIP3    H264938   6.646   1.038   4.774 -0.3956 -1.2169 -3.0681
14483TIP3   OH264939   1.519   3.932   1.077  0.0335  0.1936  0.7171
14483TIP3    H164940   1.584   3.990   1.117  0.8903  0.7484 -1.3817
14483TIP3    H264941   1.524   3.852   1.130  1.8570  0.5168  1.1059
14484TIP3   OH264942   3.245   4.085   2.556  0.0229 -0.6177 -0.2426
14484TIP3    H164943   3.302   4.105   2.631 -0.1198  0.1785 -0.3393
14484TIP3    H264944   3.175   4.030   2.593 -0.4850  0.4233  0.3800
14485TIP3   OH264945   1.624   5.448  15.850 -0.0625  0.0402 -0.0688
14485TIP3    H164946   1.539   5.405  15.844 -0.4951  0.8954 -0.1530
14485TIP3    H264947   1.628   5.504  15.772 -0.7154  2.2835  1.4146
14486TIP3   OH264948   6.270   5.433  14.984 -0.3911  0.3459 -0.3291
14486TIP3    H164949   6.345   5.374  14.990 -0.7090  0.0990  3.1325
14486TIP3    H264950   6.200   5.380  14.945  0.1423 -0.6308  0.0205
14487TIP3   OH264951   3.138   1.942  13.679 -0.4543 -0.0880 -0.4701
14487TIP3    H164952   3.207   1.884  13.648  0.4621  0.3246  0.7383
14487TIP3    H264953   3.173   2.030  13.666 -0.2642  0.1044  1.2017
14488TIP3   OH264954   4.738   6.699  10.567  0.0207 -0.0923  0.0294
14488TIP3    H164955   4.711   6.756  10.639  1.0498 -0.4862  0.7694
14488TIP3    H264956   4.669   6.706  10.502 -0.2995  1.2936  0.4937
14489TIP3   OH264957   5.134   5.618  13.375  0.0247  0.1745  0.1078
14489TIP3    H164958   5.199   5.610  13.306 -0.0530  1.1938 -0.1120
14489TIP3    H264959   5.094   5.704  13.360  0.4710  0.7218  1.8133
14490TIP3   OH264960   0.244   4.214   5.347 -0.4139  0.5372  0.7170
14490TIP3    H164961   0.339   4.202   5.338 -0.4220  1.1618 -0.3838
14490TIP3    H264962   0.211   4.208   5.257 -1.3057  1.2714  0.9864
14491TIP3   OH264963   5.309   6.837   3.174 -0.1241 -0.0610 -0.1678
14491TIP3    H164964   5.340   6.911   3.226  0.9951  0.1134 -1.0248
14491TIP3    H264965   5.329   6.760   3.227  1.4320  0.0811 -0.4805
14492TIP3   OH264966   6.740   4.881   4.235  0.4248 -0.3866 -0.0983
14492TIP3    H164967   6.708   4.877   4.325  1.9683 -1.4839  0.4422
14492TIP3    H264968   6.661   4.878   4.181 -0.4912 -0.3578  1.1905
14493TIP3   OH264969   3.852   5.436  14.444  0.0915  0.1724  0.6736
14493TIP3    H164970   3.792   5.369  14.479  1.1701 -2.7728 -2.5329
14493TIP3    H264971   3.845   5.509  14.505 -4.1398 -1.3166  2.3339
14494TIP3   OH264972   2.956   2.986  14.707 -0.0592  0.1765  0.5184
14494TIP3    H164973   2.972   2.893  14.693  0.6203  0.3685 -0.0487
14494TIP3    H264974   3.024   3.013  14.770  0.3551  0.4899 -0.0577
14495TIP3   OH264975   1.945   3.600  15.305  0.6622 -0.6167 -0.3166
14495TIP3    H164976   1.965   3.532  15.369  1.5170  0.1638  0.2672
14495TIP3    H264977   1.895   3.665  15.354 -1.1440 -1.3072 -1.1405
14496TIP3   OH264978   4.390   2.993   3.285 -0.4853  0.0576  0.5322
14496TIP3    H164979   4.365   3.060   3.222  0.5352 -0.4184 -0.4204
14496TIP3    H264980   4.479   2.968   3.259 -0.2465 -0.5377  1.8381
14497TIP3   OH264981   6.121   5.847  15.283 -0.3645  0.0901 -0.4503
14497TIP3    H164982   6.135   5.753  15.273  0.7842  0.1575  0.3585
14497TIP3    H264983   6.062   5.854  15.359 -0.6340  0.0259 -0.6498
14498TIP3   OH264984   4.469   4.573  15.425 -0.5541  0.2971  0.1175
14498TIP3    H164985   4.538   4.508  15.421  1.4029  2.2540  0.1358
14498TIP3    H264986   4.464   4.609  15.336  0.6732  2.2459  0.7568
14499TIP3   OH264987   0.019   3.450   6.030 -0.1860  0.5899  0.4558
14499TIP3    H164988  -0.057   3.395   6.046 -1.6829  1.6762 -2.2564
14499TIP3    H264989   0.003   3.530   6.081 -2.6214  2.1440 -2.4126
14500TIP3   OH264990   3.127   3.824   0.432  0.1363  0.6350  0.3832
14500TIP3    H164991   3.213   3.823   0.390  0.2832 -0.1004  0.6897
14500TIP3    H264992   3.065   3.823   0.359  0.3703  1.5234  0.1522
14501TIP3   OH264993   3.083   0.435   4.415  0.1046  0.0098 -0.0675
14501TIP3    H164994   3.023   0.458   4.486  2.6459  2.6204  1.4565
14501TIP3    H264995   3.037   0.461   4.335 -1.9464 -0.9568  0.7236
14502TIP3   OH264996   3.185   2.560   5.162  0.4447  0.1847  0.7780
14502TIP3    H164997   3.235   2.640   5.181 -1.2668  1.8286 -1.1450
14502TIP3    H264998   3.134   2.544   5.241  2.4881 -0.4311  2.0616
14503TIP3   OH264999   2.108   1.125  16.707  0.4613  0.1026 -0.0611
14503TIP3    H165000   2.080   1.034  16.716  1.2671 -0.2194 -0.6494
14503TIP3    H265001   2.089   1.147  16.616 -0.6165  0.8503  0.3229
14504TIP3   OH265002   0.670   2.879  12.730 -0.0782 -0.0750  0.1368
14504TIP3    H165003   0.757   2.891  12.694  0.5560 -0.3119  1.5265
14504TIP3    H265004   0.617   2.949  12.690  0.3982 -0.7187 -1.7113
14505TIP3   OH265005   0.328   1.751   3.305 -0.5068  0.4902  0.1992
14505TIP3    H165006   0.415   1.786   3.285 -0.2516  0.0403  0.4874
14505TIP3    H265007   0.346   1.663   3.339 -1.0544  0.5017  0.5237
14506TIP3   OH265008   6.381   2.216  12.536  0.4035 -0.4931 -0.6332
14506TIP3    H165009   6.379   2.161  12.458  0.1735 -0.6102 -0.5454
14506TIP3    H265010   6.299   2.196  12.581 -1.9943  3.2383 -2.8510
14507TIP3   OH265011   1.528   1.144   4.215  0.4488  0.7262  0.2921
14507TIP3    H165012   1.521   1.069   4.274  0.9811  0.3009 -0.1792
14507TIP3    H265013   1.442   1.185   4.217 -0.2878 -0.7301 -0.5679
14508TIP3   OH265014   5.242   4.997  15.364 -0.3683 -0.2100 -0.1195
14508TIP3    H165015   5.187   5.012  15.287 -1.0253  0.9700  0.5558
14508TIP3    H265016   5.181   4.979  15.435  0.1092  0.7900  0.5696
14509TIP3   OH265017   5.548   4.817   1.743 -0.0618  0.4436 -0.2579
14509TIP3    H165018   5.609   4.776   1.804  1.6631  0.5714 -1.8089
14509TIP3    H265019   5.467   4.826   1.793  1.0315 -0.1529  1.7457
14510TIP3   OH265020   3.067   5.291   4.317  0.0119 -0.1448  0.1406
14510TIP3    H165021   3.037   5.363   4.373  2.1313  1.0091 -0.0622
14510TIP3    H265022   2.997   5.227   4.319 -2.4992  2.4008 -0.5687
14511TIP3   OH265023   5.593   3.672   0.187 -0.0992  0.3755  0.4422
14511TIP3    H165024   5.593   3.593   0.134  0.1567 -0.3876  1.5437
14511TIP3    H265025   5.511   3.716   0.164 -0.3126 -0.2804 -0.0807
14512TIP3   OH265026   0.100   1.516  12.024 -0.5853  0.5817 -0.6012
14512TIP3    H165027   0.168   1.519  12.093  2.4382  1.3235 -3.3555
14512TIP3    H265028   0.100   1.604  11.987 -2.6639  0.3958 -1.1626
14513TIP3   OH265029   1.790   6.233  11.292  0.5010  0.5922 -1.0094
14513TIP3    H165030   1.728   6.188  11.235  0.2728  0.8881 -0.9941
14513TIP3    H265031   1.871   6.236  11.241  0.0575  1.6333 -1.6797
14514TIP3   OH265032   0.300   3.096  13.761 -0.0157  0.1930 -0.5865
14514TIP3    H165033   0.297   3.042  13.840 -0.7244 -0.3034 -0.9396
14514TIP3    H265034   0.360   3.166  13.783 -1.4352  1.0010  1.0132
14515TIP3   OH265035   2.020   4.172  15.794  0.1230  0.6995 -0.7863
14515TIP3    H165036   1.970   4.212  15.865  1.3783  2.3366 -0.7462
14515TIP3    H265037   1.954   4.141  15.733 -0.9964 -0.5631  0.9477
14516TIP3   OH265038   3.528   4.711   2.113 -0.2215  0.1012 -0.4524
14516TIP3    H165039   3.558   4.749   2.195  2.1220 -3.0607  0.3506
14516TIP3    H265040   3.432   4.711   2.121 -0.0933  0.3722  2.0549
14517TIP3   OH265041   5.171   4.680  14.188 -0.4144 -0.9214 -0.3342
14517TIP3    H165042   5.206   4.617  14.125  0.0992 -1.0670  0.0921
14517TIP3    H265043   5.118   4.628  14.249  1.3744 -1.2324  1.0324
14518TIP3   OH265044   0.121   1.193   0.986  0.0927 -0.5734  0.0098
14518TIP3    H165045   0.168   1.116   0.954 -1.3940 -2.5958  2.3128
14518TIP3    H265046   0.036   1.190   0.941  0.1870 -0.0572 -0.1998
14519TIP3   OH265047   2.895   3.535   6.002  0.2673 -0.3633  0.0125
14519TIP3    H165048   2.802   3.559   6.002  0.4248  0.3683  1.6117
14519TIP3    H265049   2.915   3.517   5.910 -1.8384 -2.0965 -0.1733
14520TIP3   OH265050   4.446   6.776  14.000 -0.7197  0.2283  0.1846
14520TIP3    H165051   4.530   6.815  14.022 -0.0625  0.1943 -2.0116
14520TIP3    H265052   4.387   6.851  13.990 -0.4044  0.4075 -0.3562
14521TIP3   OH265053   2.080   0.856   0.998 -0.0840 -0.3721 -0.6648
14521TIP3    H165054   2.103   0.827   1.087 -0.2121 -0.6996 -0.7357
14521TIP3    H265055   2.011   0.921   1.012  0.8113  0.5698 -0.4564
14522TIP3   OH265056   5.401   3.477   5.648  0.5880 -0.8972  0.3918
14522TIP3    H165057   5.305   3.478   5.655  0.4240 -0.3870 -1.3942
14522TIP3    H265058   5.423   3.386   5.633  0.4212 -1.0695  1.1630
14523TIP3   OH265059   2.926   6.533   3.624 -0.0428  0.4082 -0.0294
14523TIP3    H165060   2.884   6.596   3.682  0.7567  2.5476 -1.6247
14523TIP3    H265061   2.854   6.486   3.582 -0.6295 -1.3430  2.7059
14524TIP3   OH265062   1.312   2.627  16.673 -0.2279 -0.0523  0.4487
14524TIP3    H165063   1.360   2.686  16.615  0.2359  0.2048  1.0791
14524TIP3    H265064   1.371   2.552  16.684 -1.0700 -0.9291 -0.8403
14525TIP3   OH265065   6.806   0.682   3.841 -0.0265 -0.0153 -0.4908
14525TIP3    H165066   6.763   0.655   3.922  0.9919 -0.3643 -0.0500
14525TIP3    H265067   6.777   0.772   3.827 -1.3327 -0.4210 -0.5246
14526TIP3   OH265068   3.977   4.868   3.053  0.6827  0.1390 -0.5193
14526TIP3    H165069   3.883   4.881   3.041  0.8606  0.5541 -1.4929
14526TIP3    H265070   4.018   4.906   2.976  1.8308  2.1493  0.9808
14527TIP3   OH265071   2.475   3.342   4.579 -0.1366  0.1815  0.0345
14527TIP3    H165072   2.420   3.287   4.634 -1.1040  1.5161  0.4532
14527TIP3    H265073   2.548   3.285   4.553 -0.7275 -1.0665  1.0059
14528TIP3   OH265074   3.960   2.509   4.075 -0.1661  0.3994  0.6263
14528TIP3    H165075   3.886   2.558   4.111 -0.7929  1.8285 -2.3020
14528TIP3    H265076   4.036   2.563   4.095 -0.3521  0.6131  0.7722
14529TIP3   OH265077   1.866   4.792  16.077  0.4291 -1.0492  0.6749
14529TIP3    H165078   1.935   4.788  16.011  0.9487  0.6368  1.0661
14529TIP3    H265079   1.785   4.777  16.029  0.9378 -1.5352 -0.0482
14530TIP3   OH265080   5.353   0.686   4.161 -0.2832  0.3030 -0.0587
14530TIP3    H165081   5.317   0.752   4.103 -0.1106 -1.0250 -1.7752
14530TIP3    H265082   5.447   0.700   4.159 -0.3655  1.2106  1.1733
14531TIP3   OH265083   6.741   1.399  12.945  1.2492 -0.3194 -0.0965
14531TIP3    H165084   6.716   1.391  12.853 -0.8238  0.0081  0.3782
14531TIP3    H265085   6.667   1.363  12.993  0.6407  2.7011  1.5078
14532TIP3   OH265086   2.145   4.313   4.278 -0.0828 -0.5207  0.1828
14532TIP3    H165087   2.204   4.312   4.203 -0.9455  0.3408 -0.5254
14532TIP3    H265088   2.092   4.392   4.267 -1.1491 -1.0903  0.9778
14533TIP3   OH265089   6.295   4.474  10.273 -0.2583 -0.3919  0.0278
14533TIP3    H165090   6.241   4.449  10.348  0.9494 -0.1917  0.9922
14533TIP3    H265091   6.242   4.537  10.225 -2.3979 -2.8518 -1.1286
14534TIP3   OH265092   3.346   4.037   3.066 -0.0964  0.4722 -0.1905
14534TIP3    H165093   3.278   3.979   3.100 -0.2526  0.8878  0.2165
14534TIP3    H265094   3.312   4.068   2.983  0.4363 -0.8266 -0.9272
14535TIP3   OH265095   1.900   2.665  11.959  0.5101  0.6105 -0.5739
14535TIP3    H165096   1.907   2.570  11.956  1.1290  0.5965  0.8506
14535TIP3    H265097   1.834   2.683  12.026  0.4306  1.1892 -0.8024
14536TIP3   OH265098   3.985   1.110   0.511 -0.2421  0.1304 -0.1455
14536TIP3    H165099   3.928   1.074   0.579 -0.7397 -0.0578 -0.6512
14536TIP3    H265100   3.926   1.132   0.439  0.4004 -0.7759 -0.9766
14537TIP3   OH265101   0.056   1.228  13.057  0.0018  0.6861  0.6304
14537TIP3    H165102   0.127   1.288  13.034  0.2739 -0.8431 -3.3546
14537TIP3    H265103  -0.023   1.281  13.055  0.5241  1.4721  0.2112
14538TIP3   OH265104   3.988   1.536   2.443 -0.8086 -0.6062 -0.0518
14538TIP3    H165105   4.036   1.455   2.460  0.7151  0.3960  0.6382
14538TIP3    H265106   3.922   1.539   2.513 -1.5211 -1.7007 -0.6510
14539TIP3   OH265107   6.278   4.544  14.230  0.3683 -0.3828  0.3064
14539TIP3    H165108   6.325   4.625  14.209 -0.1342 -0.6523 -2.2678
14539TIP3    H265109   6.207   4.541  14.166  0.4959 -2.9330  0.1871
14540TIP3   OH265110   1.552   5.011  13.744 -0.6078 -0.5038  0.6209
14540TIP3    H165111   1.578   5.022  13.653 -1.0340 -1.0913  0.4237
14540TIP3    H265112   1.458   5.026  13.745 -0.6031 -0.4707  0.9737
14541TIP3   OH265113   1.073   6.181  10.831 -0.0284  0.1408  0.4844
14541TIP3    H165114   1.140   6.231  10.879 -0.4934  0.4828  0.7799
14541TIP3    H265115   1.039   6.119  10.895  1.4112 -1.4426 -0.2017
14542TIP3   OH265116   2.744   2.641  15.515  0.1023 -0.0030  0.2484
14542TIP3    H165117   2.732   2.731  15.545 -1.1084  0.3859 -1.2569
14542TIP3    H265118   2.767   2.592  15.594 -1.0905  1.2722  1.4428
14543TIP3   OH265119   5.291   2.180   3.000 -0.1817  0.5099  0.1103
14543TIP3    H165120   5.245   2.128   2.934 -0.2513  0.9225 -0.1717
14543TIP3    H265121   5.381   2.185   2.969  0.2235 -0.8450  0.9954
14544TIP3   OH265122   3.662   6.035   1.919 -0.2454 -0.1998  0.0025
14544TIP3    H165123   3.600   6.027   1.845  1.0981  0.4638 -1.2399
14544TIP3    H265124   3.655   6.126   1.946 -2.3564 -0.9048  2.2608
14545TIP3   OH265125   6.429   5.322   2.285  0.1201 -0.0485 -0.2304
14545TIP3    H165126   6.414   5.276   2.368 -1.5446  1.8573  0.6154
14545TIP3    H265127   6.501   5.382   2.302 -0.6512  0.8142  0.0829
14546TIP3   OH265128   4.318   3.271   3.230 -0.1881  0.6787 -0.4437
14546TIP3    H165129   4.386   3.328   3.193 -0.1583  0.1131 -1.3007
14546TIP3    H265130   4.299   3.308   3.316  1.6487  0.4920  0.0860
14547TIP3   OH265131   2.019   1.276  10.951 -0.3934  0.3769  0.0605
14547TIP3    H165132   2.114   1.285  10.956 -0.2501 -0.3996 -0.9877
14547TIP3    H265133   2.004   1.181  10.951 -1.0758  0.4693 -1.1877
14548TIP3   OH265134   3.143   5.879  14.793  0.8057  0.9261 -0.4860
14548TIP3    H165135   3.114   5.953  14.847  1.2506  1.0633 -0.4323
14548TIP3    H265136   3.195   5.918  14.724  1.3177  0.6323 -0.2671
14549TIP3   OH265137   3.373   2.165  12.505  0.2867  0.1535 -0.3213
14549TIP3    H165138   3.339   2.239  12.455 -1.0186 -0.6148 -0.6160
14549TIP3    H265139   3.431   2.205  12.570  0.1285  1.3731 -0.8955
14550TIP3   OH265140   4.227   4.429  14.279  0.0814 -0.4784 -0.3238
14550TIP3    H165141   4.252   4.507  14.328  0.8340 -2.2629  2.3243
14550TIP3    H265142   4.194   4.463  14.195 -0.0169  2.6602  0.8610
14551TIP3   OH265143   4.628   3.125  15.110  0.8889 -0.1513  0.2677
14551TIP3    H165144   4.651   3.146  15.201 -1.4802  2.3649  0.4169
14551TIP3    H265145   4.697   3.067  15.081  1.9819 -0.7245  3.5499
14552TIP3   OH265146   2.273   1.913  13.986 -0.3840 -0.1086 -0.6884
14552TIP3    H165147   2.261   1.986  14.048 -0.2558 -0.1488 -0.6153
14552TIP3    H265148   2.324   1.951  13.914  1.1589 -0.5338  0.1322
14553TIP3   OH265149   4.821   2.017   1.419 -0.0055 -0.0099 -0.0091
14553TIP3    H165150   4.894   2.043   1.476  0.5611  0.8450 -1.0974
14553TIP3    H265151   4.742   2.038   1.470  0.4900 -0.3553  0.9250
14554TIP3   OH265152   4.242   6.418   1.194 -0.4244  0.6610  0.1378
14554TIP3    H165153   4.255   6.331   1.231 -2.2961  0.3818  0.2519
14554TIP3    H265154   4.255   6.478   1.267 -2.6901  0.1987  1.0214
14555TIP3   OH265155   3.055   3.293   4.546 -0.2320 -0.3273 -0.1007
14555TIP3    H165156   2.986   3.294   4.612 -0.4635  1.9001 -0.2854
14555TIP3    H265157   3.009   3.283   4.463 -0.2325 -0.0881 -0.1309
14556TIP3   OH265158   4.388   3.559  14.125 -0.3738 -0.2546  0.3200
14556TIP3    H165159   4.401   3.645  14.085 -0.8108  0.3070  1.3514
14556TIP3    H265160   4.314   3.571  14.184  0.2730 -1.0329  1.3299
14557TIP3   OH265161   2.027   3.513  14.787  0.6472 -0.2821  0.5760
14557TIP3    H165162   2.065   3.439  14.739  1.5879 -0.3285  1.3635
14557TIP3    H265163   2.050   3.590  14.733  0.3081 -0.4809  0.1396
14558TIP3   OH265164   5.279   2.017  13.147 -0.3375 -1.3190  0.4230
14558TIP3    H165165   5.292   1.941  13.204 -1.7520 -0.4293  2.0451
14558TIP3    H265166   5.341   2.083  13.179  0.5940 -1.6261 -0.7055
14559TIP3   OH265167   0.509   6.598  10.478 -0.2157 -0.2832  0.3103
14559TIP3    H165168   0.442   6.547  10.524 -3.4303 -0.3720 -3.8809
14559TIP3    H265169   0.555   6.534  10.424  2.0670  0.1064  1.6551
14560TIP3   OH265170   2.993   5.423   2.953 -0.0943  0.2076  0.3662
14560TIP3    H165171   3.024   5.461   3.035  2.6892  1.1185 -1.0114
14560TIP3    H265172   3.034   5.337   2.950 -0.2201  0.1635 -0.0530
14561TIP3   OH265173   4.603   6.818   3.025  0.6713 -0.2509  0.2628
14561TIP3    H165174   4.652   6.813   2.943  1.0271  0.2976  0.4326
14561TIP3    H265175   4.669   6.804   3.093  0.9246  2.0091  0.5597
14562TIP3   OH265176   2.176   4.971   0.711 -0.1043 -0.1684 -0.0337
14562TIP3    H165177   2.102   4.911   0.721  1.7520 -2.4867  0.6748
14562TIP3    H265178   2.142   5.056   0.739 -2.3918 -1.1964  0.5317
14563TIP3   OH265179   6.399   4.841   2.647  0.0904  0.4122 -0.2822
14563TIP3    H165180   6.374   4.787   2.722  1.4312  0.2011  0.0259
14563TIP3    H265181   6.492   4.824   2.635 -0.2172 -0.0698 -2.4112
14564TIP3   OH265182   3.248   5.658  14.911  0.1428 -0.1772 -0.2950
14564TIP3    H165183   3.195   5.726  14.869  0.7102  0.6544  0.3142
14564TIP3    H265184   3.333   5.663  14.867  0.3401 -0.1484  0.0845
14565TIP3   OH265185   1.590   0.288  13.152 -0.0341 -0.1331  0.1125
14565TIP3    H165186   1.541   0.208  13.134  1.1812 -0.9871  0.4866
14565TIP3    H265187   1.592   0.335  13.068 -1.4877 -0.0594  0.1020
14566TIP3   OH265188   0.486   4.424   2.759  0.1117  0.0553 -0.4840
14566TIP3    H165189   0.467   4.515   2.782  0.2315  0.0572 -0.3967
14566TIP3    H265190   0.532   4.388   2.835  0.7098  0.1262 -0.8037
14567TIP3   OH265191   1.564   5.552  16.448 -0.7850  0.3559 -0.6975
14567TIP3    H165192   1.518   5.604  16.513  0.1996 -1.7172  1.8420
14567TIP3    H265193   1.556   5.602  16.367 -1.4129  3.4691  1.1318
14568TIP3   OH265194   1.426   1.204  16.794 -0.5425 -0.4920 -0.4117
14568TIP3    H165195   1.474   1.136  16.841 -1.2270 -1.3795 -0.9532
14568TIP3    H265196   1.400   1.162  16.711 -0.8058  0.4940 -0.8415
14569TIP3   OH265197   3.163   0.809   5.447  0.5728  0.1327 -0.5097
14569TIP3    H165198   3.104   0.752   5.398 -0.6203 -0.0009  0.9791
14569TIP3    H265199   3.193   0.755   5.521 -0.8776  1.4629  1.1367
14570TIP3   OH265200   2.176   5.861   4.764 -0.1914 -0.2831 -0.0981
14570TIP3    H165201   2.246   5.840   4.825  0.6297  1.1353 -0.4916
14570TIP3    H265202   2.171   5.957   4.766 -2.2732 -0.3604  0.0670
14571TIP3   OH265203   0.390   6.709   4.941 -0.1461  0.0175 -0.3474
14571TIP3    H165204   0.421   6.624   4.972 -1.9353 -1.8359 -3.1415
14571TIP3    H265205   0.303   6.690   4.904  0.1661  2.6768 -2.7523
14572TIP3   OH265206   6.415   4.319   4.652  0.2183 -0.1764 -0.5550
14572TIP3    H165207   6.321   4.332   4.664  0.2338  0.9413 -1.4874
14572TIP3    H265208   6.448   4.406   4.628  1.2581 -0.8494 -1.6180
14573TIP3   OH265209   4.463   5.388   1.772  0.1299  0.0825  0.2338
14573TIP3    H165210   4.414   5.338   1.836 -0.0211  0.1098  0.1401
14573TIP3    H265211   4.414   5.378   1.690 -0.6024  1.3955  0.4777
14574TIP3   OH265212   5.961   0.856   1.908  0.1129 -0.0485  0.3659
14574TIP3    H165213   5.946   0.861   2.002  0.4440  1.1779  0.3652
14574TIP3    H265214   6.053   0.876   1.896 -0.5143  2.8601 -0.4068
14575TIP3   OH265215   0.324   3.892   2.436 -0.4742  0.1811  1.0750
14575TIP3    H165216   0.244   3.841   2.446 -1.1840  0.8457 -0.8473
14575TIP3    H265217   0.324   3.952   2.510 -0.4969 -1.3901  2.4177
14576TIP3   OH265218   5.064   2.740  14.905 -0.2523  0.1373  0.1033
14576TIP3    H165219   5.034   2.831  14.912 -0.9617  0.1202 -2.1324
14576TIP3    H265220   4.990   2.693  14.867 -0.1881 -1.5994  1.9127
14577TIP3   OH265221   0.953   4.926   1.087 -0.5671  0.3246  0.1946
14577TIP3    H165222   0.917   4.861   1.027  1.0552 -1.6587  1.2054
14577TIP3    H265223   0.932   4.892   1.174  1.9616  0.0401  0.7892
14578TIP3   OH265224   5.126   4.679   4.124  0.0418  0.1793  0.4050
14578TIP3    H165225   5.053   4.737   4.143 -0.8840 -1.2673  1.4399
14578TIP3    H265226   5.091   4.616   4.061  1.4286  1.4893 -1.8068
14579TIP3   OH265227   0.184   3.859   1.807  0.0190  0.2631  0.7419
14579TIP3    H165228   0.122   3.830   1.875  1.0556 -0.0562  1.5839
14579TIP3    H265229   0.217   3.778   1.769  0.4715  0.4151  0.8096
14580TIP3   OH265230   5.940   5.868   9.948  0.0126 -0.9068  0.0962
14580TIP3    H165231   5.931   5.959   9.973 -0.7024 -0.7179 -0.7975
14580TIP3    H265232   5.857   5.846   9.905  1.4511 -0.9425 -2.8589
14581TIP3   OH265233   3.957   4.366  15.702 -0.7272  0.1830 -0.2088
14581TIP3    H165234   3.890   4.379  15.635 -0.1804  2.1033 -0.4342
14581TIP3    H265235   3.960   4.449  15.750 -0.6688 -0.9278  1.8282
14582TIP3   OH265236   1.029   1.769  11.576 -0.0139  0.3183 -0.0140
14582TIP3    H165237   1.083   1.713  11.520 -0.7693 -1.3687  0.8805
14582TIP3    H265238   1.025   1.853  11.529  1.3451 -0.2735 -1.2784
14583TIP3   OH265239   1.125   4.154   1.598 -0.0582 -0.3516 -0.4368
14583TIP3    H165240   1.206   4.157   1.546  0.7209 -0.5092  0.7264
14583TIP3    H265241   1.099   4.246   1.607 -0.2551 -0.3282 -1.1672
14584TIP3   OH265242   1.636   6.782  10.325  0.3498  0.7831 -0.4259
14584TIP3    H165243   1.668   6.872  10.312  1.0735  0.5278 -0.4880
14584TIP3    H265244   1.643   6.768  10.419 -0.0438  0.8920 -0.3795
14585TIP3   OH265245   1.573   0.364   1.263  0.1263 -0.0745 -0.1372
14585TIP3    H165246   1.557   0.279   1.304  2.1949 -0.3094  0.2890
14585TIP3    H265247   1.570   0.426   1.335  1.4023 -0.1837  0.0382
14586TIP3   OH265248   6.666   1.784   5.884 -0.7127 -0.1106  0.1236
14586TIP3    H165249   6.698   1.727   5.814 -0.8185 -0.5277  0.4135
14586TIP3    H265250   6.641   1.865   5.839  0.1556 -0.0057 -0.1879
14587TIP3   OH265251   3.780   5.890   3.190  0.0900 -0.3501 -0.0015
14587TIP3    H165252   3.869   5.894   3.153 -0.7788 -0.3524 -2.2432
14587TIP3    H265253   3.724   5.920   3.119 -1.6322  0.8116  1.7770
14588TIP3   OH265254   5.701   4.673  11.624  0.0813  0.0234  0.5819
14588TIP3    H165255   5.676   4.674  11.716 -0.0551  0.1994  0.5429
14588TIP3    H265256   5.708   4.765  11.599  0.6400 -0.0230  0.5561
14589TIP3   OH265257   3.936   4.842   0.786 -0.0122  0.0189 -0.4296
14589TIP3    H165258   4.002   4.856   0.854  1.6067  0.3748 -1.9769
14589TIP3    H265259   3.898   4.757   0.806  0.4503  0.0961  0.8732
14590TIP3   OH265260   2.396   2.089   0.716  0.6534  0.1625 -0.0769
14590TIP3    H165261   2.491   2.099   0.709  0.8283 -0.3357  1.1647
14590TIP3    H265262   2.359   2.164   0.670  1.6974  1.2885  0.8630
14591TIP3   OH265263   1.269   2.664   6.513  0.0856 -0.8056 -0.0817
14591TIP3    H165264   1.338   2.611   6.473 -0.1092 -0.0668 -1.4751
14591TIP3    H265265   1.203   2.672   6.444 -0.2690  0.5473  0.3871
14592TIP3   OH265266   4.404   2.474  14.691 -0.0892 -0.0396  0.5915
14592TIP3    H165267   4.439   2.434  14.771  2.1133  1.3507  0.4245
14592TIP3    H265268   4.460   2.550  14.677 -0.6660 -0.0162 -2.0638
14593TIP3   OH265269   3.099   2.407   4.149  0.0034 -0.1158 -0.7423
14593TIP3    H165270   3.035   2.367   4.091  0.4983 -0.4818 -1.0459
14593TIP3    H265271   3.071   2.498   4.157 -1.1084 -0.4839 -0.0913
14594TIP3   OH265272   2.558   3.893  11.598  0.5127 -0.3224  0.1341
14594TIP3    H165273   2.622   3.956  11.631 -0.5081  0.7288  0.1908
14594TIP3    H265274   2.499   3.878  11.672 -1.8686  2.1529 -1.0688
14595TIP3   OH265275   2.325   6.344  13.926 -0.1375 -0.2691 -0.5475
14595TIP3    H165276   2.398   6.301  13.970  0.5267 -1.1646 -2.4038
14595TIP3    H265277   2.334   6.436  13.949  0.0678 -0.7001  1.2557
14596TIP3   OH265278   1.154   5.065   1.494  0.2267  0.4912 -0.0949
14596TIP3    H165279   1.092   5.122   1.539  0.0836 -0.8533  1.5307
14596TIP3    H265280   1.200   5.122   1.433 -1.5078  1.8475 -0.2226
14597TIP3   OH265281   3.135   5.561  16.146 -0.0569  0.1837  0.2271
14597TIP3    H165282   3.099   5.622  16.210 -2.8083  0.0122 -1.0083
14597TIP3    H265283   3.087   5.479  16.160 -0.3767  0.0021 -1.6597
14598TIP3   OH265284   1.900   3.492  15.795  0.4924  0.0282 -0.2440
14598TIP3    H165285   1.950   3.481  15.876 -0.1750  0.8539  0.2971
14598TIP3    H265286   1.849   3.411  15.788 -0.9575  0.7624  1.2508
14599TIP3   OH265287   0.035   6.182  11.977  0.3749  0.0536  0.0996
14599TIP3    H165288  -0.051   6.222  11.968  0.0827  0.0271  2.4095
14599TIP3    H265289   0.073   6.222  12.055  1.2900 -1.9980  0.7798
14600TIP3   OH265290   6.391   4.568  14.904 -0.1561  0.2762 -0.3120
14600TIP3    H165291   6.446   4.528  14.837 -0.1780  0.1513 -0.2570
14600TIP3    H265292   6.445   4.567  14.984 -1.2384 -2.6667  0.5545
14601TIP3   OH265293   4.279   5.491   0.060  0.1607 -0.0894 -0.1369
14601TIP3    H165294   4.300   5.563   0.001  2.1310  0.7215  1.4059
14601TIP3    H265295   4.285   5.412   0.006 -0.1967  0.7656 -1.4533
14602TIP3   OH265296   2.793   0.423   0.733 -0.2403 -0.0452 -0.1750
14602TIP3    H165297   2.791   0.502   0.680 -2.7298  0.0560 -0.0771
14602TIP3    H265298   2.756   0.355   0.677  0.8676 -0.8992  0.0978
14603TIP3   OH265299   4.272   4.598  10.093 -0.1231  0.0709 -0.4154
14603TIP3    H165300   4.276   4.551  10.177 -0.8633  0.9227  0.1108
14603TIP3    H265301   4.264   4.529  10.028 -0.8640 -0.5509  0.3150
14604TIP3   OH265302   5.573   5.222  15.854 -0.1608 -0.2068 -0.0806
14604TIP3    H165303   5.658   5.232  15.812  0.3210  0.9353  1.0888
14604TIP3    H265304   5.569   5.130  15.879 -0.7134 -1.0957 -3.0267
14605TIP3   OH265305   2.737   4.792  13.108 -0.2514 -0.0330 -0.0447
14605TIP3    H165306   2.773   4.734  13.041 -0.8434  1.2667 -1.5515
14605TIP3    H265307   2.642   4.780  13.101 -0.2912 -1.3218  1.9411
14606TIP3   OH265308   3.283   5.800  13.104  0.1546 -0.7727 -0.6262
14606TIP3    H165309   3.292   5.887  13.064  0.2401 -0.6497 -0.3377
14606TIP3    H265310   3.364   5.789  13.154 -0.4677 -0.4443  0.4645
14607TIP3   OH265311   5.754   3.657   4.284 -0.6559  0.4605 -0.0718
14607TIP3    H165312   5.825   3.650   4.220  1.1381  0.3829  1.8165
14607TIP3    H265313   5.783   3.726   4.344 -0.5916 -1.7152  2.5665
14608TIP3   OH265314   4.836   5.614   3.256  0.1152  0.3555 -1.2587
14608TIP3    H165315   4.825   5.519   3.260  0.9099  0.2676  2.0876
14608TIP3    H265316   4.765   5.649   3.310  1.0488  1.5032 -0.7333
14609TIP3   OH265317   6.850   3.280   1.120  0.0262  0.4803 -0.3964
14609TIP3    H165318   6.865   3.329   1.039  2.0865 -0.3166 -0.5719
14609TIP3    H265319   6.756   3.259   1.119 -0.0392  0.6635 -2.4834
14610TIP3   OH265320   1.447   4.814   1.789  0.1519  0.0132 -0.3348
14610TIP3    H165321   1.393   4.890   1.807 -1.3833 -1.0593 -0.1853
14610TIP3    H265322   1.465   4.819   1.695  0.4516  0.7918 -0.2417
14611TIP3   OH265323   6.476   5.329   2.005 -0.6661 -0.1750  0.0417
14611TIP3    H165324   6.570   5.338   1.989 -0.5688 -0.6723  0.3143
14611TIP3    H265325   6.469   5.320   2.100 -1.0248  0.2474  0.0606
14612TIP3   OH265326   2.216   0.369   1.259  0.0534  0.2706 -0.3261
14612TIP3    H165327   2.267   0.293   1.230  0.1265  1.0035 -2.2533
14612TIP3    H265328   2.161   0.391   1.184 -1.8924  0.5674  1.0969
14613TIP3   OH265329   0.671   2.733  15.032  0.7022  0.2647  0.1902
14613TIP3    H165330   0.730   2.668  15.071 -0.7878 -0.0054  2.2122
14613TIP3    H265331   0.618   2.683  14.970  0.3288 -0.2516  0.9030
14614TIP3   OH265332   0.639   3.531   0.172  0.0540  0.2441  0.1048
14614TIP3    H165333   0.574   3.594   0.203 -0.6643  0.3861 -1.5703
14614TIP3    H265334   0.613   3.448   0.212  0.8265  0.9107  2.0842
14615TIP3   OH265335   1.938   4.940   9.717  0.0222 -0.8699  0.3154
14615TIP3    H165336   1.907   4.853   9.691  1.3576 -1.2011 -0.3080
14615TIP3    H265337   2.014   4.922   9.772  1.3450 -0.1430 -1.1698
14616TIP3   OH265338   2.562   2.399  15.641 -0.6583  0.0863 -0.6712
14616TIP3    H165339   2.550   2.484  15.683 -0.2111 -0.2961  0.2599
14616TIP3    H265340   2.494   2.344  15.681  0.2185 -0.4665  0.0849
14617TIP3   OH265341   6.096   1.937  12.128  0.0529  0.2280  0.1813
14617TIP3    H165342   6.085   1.869  12.062  0.3700 -0.4461  0.8091
14617TIP3    H265343   6.033   2.005  12.103  1.4373  0.8338 -1.8716
14618TIP3   OH265344   0.467   6.077  14.691 -0.1855  0.5645 -0.0502
14618TIP3    H165345   0.478   6.110  14.602 -1.1934  1.3669  0.0989
14618TIP3    H265346   0.551   6.094  14.734  0.7286 -0.9304 -1.1672
14619TIP3   OH265347   0.085   1.467   4.166  0.3411 -0.4489  0.7263
14619TIP3    H165348   0.131   1.540   4.209  0.7126 -1.4098  2.0233
14619TIP3    H265349   0.078   1.400   4.234 -0.2376 -1.5308 -0.3637
14620TIP3   OH265350   1.863   6.232   0.975  0.3380 -0.2722  0.7291
14620TIP3    H165351   1.867   6.147   1.019  0.0761 -0.7436 -0.1376
14620TIP3    H265352   1.943   6.277   1.003 -0.4843  0.0201  2.7979
14621TIP3   OH265353   0.970   5.335   3.819  0.1768  0.2429 -0.4976
14621TIP3    H165354   1.022   5.255   3.815  0.5061  0.4857 -1.3825
14621TIP3    H265355   0.983   5.368   3.908 -1.6607 -1.7725  0.6303
14622TIP3   OH265356   3.272   1.329   4.756  0.0277 -0.0745 -0.3145
14622TIP3    H165357   3.317   1.396   4.705  1.3392  0.4173  1.3755
14622TIP3    H265358   3.217   1.378   4.817 -0.3349 -0.5935 -0.2193
14623TIP3   OH265359   0.058   1.556  15.009 -0.1023 -0.2111 -1.2077
14623TIP3    H165360   0.076   1.551  15.103  1.3959  0.5255 -1.4259
14623TIP3    H265361  -0.014   1.495  14.995  1.4429 -2.4657 -0.0141
14624TIP3   OH265362   4.499   1.845   2.579  0.0025  0.1383 -0.1986
14624TIP3    H165363   4.450   1.783   2.526 -2.5897  2.7882 -1.1772
14624TIP3    H265364   4.516   1.798   2.661 -3.1323 -1.3980 -0.2861
14625TIP3   OH265365   0.459   6.608  16.610  0.2422 -0.9444 -0.8733
14625TIP3    H165366   0.531   6.581  16.667 -0.0561 -0.0520 -0.0361
14625TIP3    H265367   0.473   6.560  16.528 -0.4082 -3.7995  0.5709
14626TIP3   OH265368   4.828   5.975   1.045  0.2545 -0.3821  0.3629
14626TIP3    H165369   4.857   6.064   1.024 -1.6559  0.3859  0.8297
14626TIP3    H265370   4.816   5.933   0.960  0.9456 -0.1336  0.1343
14627TIP3   OH265371   1.249   4.379   1.016 -0.8727  0.2491  0.9072
14627TIP3    H165372   1.189   4.452   1.001  0.6511  1.6070  1.1189
14627TIP3    H265373   1.336   4.419   1.018 -0.0491 -1.4410  1.9938
14628TIP3   OH265374   0.359   0.647   2.852  0.6634 -0.8022 -0.9091
14628TIP3    H165375   0.321   0.560   2.864  1.1919 -1.1537 -1.7056
14628TIP3    H265376   0.383   0.675   2.940 -3.5219  0.4641  0.0363
14629TIP3   OH265377   4.609   0.990  13.708  0.5613  0.1382 -0.4989
14629TIP3    H165378   4.624   0.895  13.707 -1.5087 -0.2731  1.1527
14629TIP3    H265379   4.546   1.005  13.638  0.9693  0.3267 -0.8297
14630TIP3   OH265380   6.853   3.120   3.127  0.3994  0.0002  0.1651
14630TIP3    H165381   6.758   3.110   3.127  0.3972 -0.3179  2.1406
14630TIP3    H265382   6.884   3.067   3.201  1.9969  1.0465  0.3161
14631TIP3   OH265383   2.368   6.212   0.643  0.2195 -0.0982 -0.1488
14631TIP3    H165384   2.362   6.304   0.617  0.0700  0.1312  0.6453
14631TIP3    H265385   2.308   6.204   0.717  0.6345 -0.7053  0.1342
14632TIP3   OH265386   2.509   4.954   1.098 -0.2110 -0.1564 -0.4679
14632TIP3    H165387   2.494   4.873   1.048 -1.0946  0.4175 -1.1642
14632TIP3    H265388   2.550   4.924   1.179 -2.0314 -1.5168  0.0427
14633TIP3   OH265389   2.339   3.960  10.987  0.1433  0.1818  0.2014
14633TIP3    H165390   2.257   4.009  10.986 -1.7467 -2.7237 -0.9858
14633TIP3    H265391   2.349   3.931  11.078  1.1664  2.4165  0.8618
14634TIP3   OH265392   1.588   4.349   4.167  0.5183  0.5763 -0.7975
14634TIP3    H165393   1.628   4.394   4.242  0.3408  0.4505 -0.6273
14634TIP3    H265394   1.608   4.257   4.181 -0.8392  0.3663 -0.0829
14635TIP3   OH265395   6.592   5.363   5.008  0.1529 -0.3382  0.5034
14635TIP3    H165396   6.611   5.397   5.096 -0.3451 -0.0857  0.5169
14635TIP3    H265397   6.675   5.326   4.979  0.3299 -0.4116  1.0757
14636TIP3   OH265398   3.592   1.575   1.588 -0.1458 -0.2321  0.1742
14636TIP3    H165399   3.565   1.518   1.660  1.9079 -0.2867  0.9606
14636TIP3    H265400   3.591   1.519   1.511 -0.8984 -0.5662  0.4166
14637TIP3   OH265401   0.626   2.077  16.103 -0.4729 -0.0990 -0.5839
14637TIP3    H165402   0.660   2.054  16.017  0.1770  1.4511 -0.7599
14637TIP3    H265403   0.637   1.997  16.155  1.7825 -0.1994 -1.1369
14638TIP3   OH265404   4.483   1.659  14.288  0.1559  0.3482  0.4883
14638TIP3    H165405   4.552   1.608  14.247  1.7026  1.0817  2.0616
14638TIP3    H265406   4.454   1.606  14.362  1.0997  1.2542  1.5553
14639TIP3   OH265407   3.199   5.404  11.248  0.2428 -0.0349  0.0306
14639TIP3    H165408   3.114   5.378  11.213 -0.0675 -1.7495  1.9139
14639TIP3    H265409   3.263   5.359  11.193 -0.1726 -1.0252  0.3440
14640TIP3   OH265410   0.967   3.931   5.812  0.3498  0.4763  0.2738
14640TIP3    H165411   1.053   3.929   5.853 -0.0347  0.1259  1.0991
14640TIP3    H265412   0.905   3.928   5.886 -0.3886 -1.8029 -0.3539
14641TIP3   OH265413   0.100   2.778   4.430  0.1894  0.3610  0.7479
14641TIP3    H165414   0.186   2.736   4.423  0.4211  0.6993  1.4472
14641TIP3    H265415   0.116   2.869   4.407 -0.3405  0.0664 -0.9035
14642TIP3   OH265416   0.120   1.486   2.825  0.5758  0.5623  0.4633
14642TIP3    H165417   0.111   1.571   2.784 -0.3632  0.3538  0.2320
14642TIP3    H265418   0.205   1.490   2.869  1.0156  1.2363 -0.4198
14643TIP3   OH265419   0.096   0.333   0.182 -0.5683 -0.6130 -0.7907
14643TIP3    H165420   0.091   0.418   0.138 -0.1185 -1.2894 -2.1718
14643TIP3    H265421   0.147   0.278   0.124  0.9142 -1.2735  1.0260
14644TIP3   OH265422   5.875   1.590   4.703  0.5871 -0.1802 -0.1267
14644TIP3    H165423   5.950   1.536   4.680  0.0738 -1.2396  0.5882
14644TIP3    H265424   5.869   1.655   4.633  1.9662 -0.2788 -0.3506
14645TIP3   OH265425   0.746   0.040   2.028 -0.3603 -0.0048  0.2209
14645TIP3    H165426   0.671  -0.017   2.042  0.9052 -1.4893  1.3207
14645TIP3    H265427   0.776   0.063   2.116  0.3190  0.7831 -0.2000
14646TIP3   OH265428   5.152   3.515   3.657  0.6396 -0.4687  1.0973
14646TIP3    H165429   5.224   3.509   3.719  0.5081 -1.6805  1.1430
14646TIP3    H265430   5.127   3.425   3.639  1.2772 -0.2281 -1.4183
14647TIP3   OH265431   0.123   3.094   1.263 -0.2205 -0.0309  0.3053
14647TIP3    H165432   0.042   3.144   1.251 -1.2582 -0.8637  3.0191
14647TIP3    H265433   0.189   3.160   1.285 -0.9918  0.4011  1.4105
14648TIP3   OH265434   3.004   0.195   5.308 -0.2735  0.2226  0.5833
14648TIP3    H165435   3.091   0.160   5.327 -0.0795  0.3290 -0.0949
14648TIP3    H265436   2.984   0.251   5.383 -0.4287 -1.0400  1.5004
14649TIP3   OH265437   2.611   3.044   1.274 -0.0459  0.1171  0.3024
14649TIP3    H165438   2.529   3.006   1.241  0.8535 -0.8043 -0.9690
14649TIP3    H265439   2.665   2.969   1.295  0.7779  0.7076  0.3351
14650TIP3   OH265440   5.551   6.066   2.937  0.5624 -0.8535 -0.7706
14650TIP3    H165441   5.503   6.035   3.014  1.9638 -0.4620  0.3029
14650TIP3    H265442   5.608   5.992   2.914  1.8017 -0.1877  0.0135
14651TIP3   OH265443   2.715   6.459  13.367 -0.1272  0.0777 -0.0746
14651TIP3    H165444   2.651   6.464  13.438  0.7721 -2.3543  1.0350
14651TIP3    H265445   2.794   6.498  13.403 -0.1784  0.5129 -0.4266
14652TIP3   OH265446   1.092   4.245  10.596  0.0522  0.3534 -0.5694
14652TIP3    H165447   1.172   4.260  10.545  0.3196  1.0973  0.0636
14652TIP3    H265448   1.118   4.259  10.687 -0.9952  1.4326 -0.4193
14653TIP3   OH265449   3.381   6.193   5.001 -0.4179 -0.1388 -0.9283
14653TIP3    H165450   3.340   6.160   4.921  0.0425 -1.3585 -0.6898
14653TIP3    H265451   3.374   6.120   5.063  0.7309  0.1703 -0.4076
14654TIP3   OH265452   4.499   5.421  13.493  0.0907 -0.3517 -0.4100
14654TIP3    H165453   4.569   5.360  13.470 -0.0342 -1.3837  1.7013
14654TIP3    H265454   4.430   5.366  13.529 -0.6559  0.9052  0.1476
14655TIP3   OH265455   2.723   2.505  16.695 -0.0257  0.0759  0.2811
14655TIP3    H165456   2.811   2.499  16.658  0.3758 -0.3879  1.2662
14655TIP3    H265457   2.737   2.532  16.786 -0.9731  1.1610  0.1362
14656TIP3   OH265458   4.558   2.213   4.880  0.4806 -0.6629  0.2034
14656TIP3    H165459   4.635   2.197   4.935  1.2395 -0.5294 -0.7982
14656TIP3    H265460   4.568   2.152   4.807  0.0442 -0.0911 -0.3419
14657TIP3   OH265461   5.606   5.388   0.404 -0.1098 -0.1537 -0.2947
14657TIP3    H165462   5.631   5.377   0.496 -0.1505  0.3961 -0.2144
14657TIP3    H265463   5.511   5.388   0.404 -0.1510  1.7926 -0.0687
14658TIP3   OH265464   0.988   2.397  14.477 -0.2865 -0.5296  0.0379
14658TIP3    H165465   0.956   2.444  14.554  1.9931  2.6628 -0.7518
14658TIP3    H265466   0.948   2.443  14.402  3.1384  1.4298 -0.8184
14659TIP3   OH265467   1.581   1.006  15.686  0.1608  0.3486 -0.8164
14659TIP3    H165468   1.549   1.047  15.767 -1.9311  0.7651 -1.7896
14659TIP3    H265469   1.641   1.071  15.649  0.2725  0.6308 -0.1590
14660TIP3   OH265470   5.992   6.486   6.340  0.0703  0.1122  0.0807
14660TIP3    H165471   6.035   6.468   6.256  0.0728 -0.2835  0.1691
14660TIP3    H265472   5.901   6.461   6.326 -0.1843  1.0931 -0.1565
14661TIP3   OH265473   0.242   6.658  15.476  0.1439  0.1433 -0.0730
14661TIP3    H165474   0.157   6.703  15.471 -0.6710 -1.4920 -2.5903
14661TIP3    H265475   0.222   6.575  15.521  0.9016  0.6581  1.2759
14662TIP3   OH265476   0.123   1.950   0.782  0.4444  0.3022 -0.1401
14662TIP3    H165477   0.105   1.952   0.688  0.0388  0.4963 -0.0588
14662TIP3    H265478   0.205   1.901   0.790  0.4369  0.2178 -0.5875
14663TIP3   OH265479   4.918   1.707   2.706  0.6500  0.2155 -0.4570
14663TIP3    H165480   4.878   1.784   2.746 -3.9696 -0.8062 -2.5189
14663TIP3    H265481   4.970   1.742   2.634 -0.6028  1.4842 -0.7846
14664TIP3   OH265482   1.575   4.630   1.429 -0.0813  0.3646 -0.7997
14664TIP3    H165483   1.519   4.607   1.503  0.0618  0.3099 -0.7073
14664TIP3    H265484   1.556   4.722   1.412  3.5243  2.0334  2.6026
14665TIP3   OH265485   0.824   1.446   2.676 -0.2843  0.3710  0.3237
14665TIP3    H165486   0.795   1.471   2.588 -0.6009  0.3227  0.4163
14665TIP3    H265487   0.881   1.370   2.661  1.5978  1.7634 -0.0852
14666TIP3   OH265488   2.981   4.417   4.975  0.0285 -0.1609 -0.2822
14666TIP3    H165489   2.969   4.341   4.918  1.4096 -0.3631 -0.3283
14666TIP3    H265490   3.026   4.481   4.920  1.9968 -0.6073  0.7234
14667TIP3   OH265491   1.107   6.542  15.342  0.2065  0.0027 -0.0381
14667TIP3    H165492   1.084   6.520  15.252 -1.0751 -0.9805  0.5039
14667TIP3    H265493   1.114   6.458  15.386  2.3490  0.3705  0.4711
14668TIP3   OH265494   2.068   1.720  14.952  0.3102 -0.4244 -0.1098
14668TIP3    H165495   2.104   1.770  14.879  0.9580 -0.3485  0.2590
14668TIP3    H265496   1.994   1.772  14.982  0.6169  0.0181 -0.1121
14669TIP3   OH265497   1.835   6.602  10.273  0.8318  0.0070  0.0552
14669TIP3    H165498   1.832   6.612  10.178  1.4004 -1.3289 -0.1157
14669TIP3    H265499   1.761   6.655  10.304  0.4203  0.1796 -1.1485
14670TIP3   OH265500   5.854   4.751   2.280  0.0913 -0.2317 -0.0734
14670TIP3    H165501   5.893   4.668   2.253 -2.3574 -0.7065 -2.6107
14670TIP3    H265502   5.922   4.816   2.262  2.0007 -1.5535  1.8434
14671TIP3   OH265503   1.144   3.805   3.827  0.0475  0.1726 -0.1154
14671TIP3    H165504   1.185   3.890   3.844  0.3230  0.1171 -0.4816
14671TIP3    H265505   1.191   3.743   3.884 -1.8338  0.6478  2.0972
14672TIP3   OH265506   6.530   4.902  13.557 -0.1498  0.2435  0.6553
14672TIP3    H165507   6.454   4.861  13.517 -0.4667  1.2098  0.2576
14672TIP3    H265508   6.549   4.978  13.502  2.0080 -0.7783 -0.1190
14673TIP3   OH265509   1.204   1.423  13.401  0.3427 -0.0952 -0.4371
14673TIP3    H165510   1.280   1.365  13.400 -2.2066 -3.8466  0.3395
14673TIP3    H265511   1.209   1.468  13.486  2.3081  0.8175 -0.9816
14674TIP3   OH265512   4.229   6.374  11.524  0.2020 -0.3139  0.3272
14674TIP3    H165513   4.292   6.426  11.574 -0.1382  1.3022 -0.8756
14674TIP3    H265514   4.151   6.371  11.579 -0.2989  1.7590 -0.1881
14675TIP3   OH265515   4.528   2.242   2.126  0.3242  0.2253 -0.4521
14675TIP3    H165516   4.608   2.194   2.147 -0.3804 -0.5204  0.6699
14675TIP3    H265517   4.491   2.195   2.051 -0.0733 -0.6616  0.2857
14676TIP3   OH265518   0.011   0.632   6.261 -0.2304  0.5013  0.9218
14676TIP3    H165519  -0.072   0.638   6.309 -1.4326 -0.5342 -0.9002
14676TIP3    H265520   0.026   0.720   6.228 -1.2504  0.4527  0.2911
14677TIP3   OH265521   5.535   5.879   5.455  0.6263 -0.6115  0.1039
14677TIP3    H165522   5.541   5.917   5.542  1.8370  0.3050 -0.3466
14677TIP3    H265523   5.531   5.784   5.470  1.6079 -0.5049  1.1279
14678TIP3   OH265524   3.915   0.734   1.273 -0.2753  0.2105  0.0590
14678TIP3    H165525   4.010   0.736   1.274 -0.2160 -1.3578  0.5476
14678TIP3    H265526   3.893   0.670   1.205 -0.8362 -2.1404  2.2919
14679TIP3   OH265527   0.291   5.886  14.426  0.0286 -0.2210 -0.1917
14679TIP3    H165528   0.371   5.834  14.434  0.3112  0.5063  2.4799
14679TIP3    H265529   0.322   5.976  14.420 -0.5358  0.1607  1.8742
14680TIP3   OH265530   2.950   2.989   4.652  0.5056 -0.2260 -0.0351
14680TIP3    H165531   2.974   3.082   4.658  0.0473 -0.1865  1.5031
14680TIP3    H265532   2.925   2.965   4.741 -0.4345 -1.5521 -0.6334
14681TIP3   OH265533   6.754   0.685   0.582  0.3427  0.2767  0.3453
14681TIP3    H165534   6.723   0.773   0.559 -1.6291 -0.1877  1.0656
14681TIP3    H265535   6.766   0.642   0.497 -0.3796  0.6949  0.0130
14682TIP3   OH265536   0.872   3.945   2.889 -0.1917 -0.2471 -0.1506
14682TIP3    H165537   0.914   3.864   2.917 -1.2511 -0.7648 -0.0097
14682TIP3    H265538   0.849   3.930   2.797 -1.5776 -0.6441  0.2325
14683TIP3   OH265539   6.433   2.626  13.225  0.3692  0.2737  0.0096
14683TIP3    H165540   6.379   2.697  13.189  1.1571  0.4143 -0.9470
14683TIP3    H265541   6.371   2.555  13.242 -0.5361  1.3836  1.5937
14684TIP3   OH265542   1.973   0.888   4.779 -0.1847 -0.0828  0.5366
14684TIP3    H165543   1.882   0.885   4.808  0.1091 -2.9563  1.5076
14684TIP3    H265544   1.968   0.888   4.684 -1.1769  1.0373  0.5655
14685TIP3   OH265545   3.995   4.904  12.957 -0.2267  0.7806 -0.0901
14685TIP3    H165546   3.913   4.855  12.966  0.6614 -0.8430 -0.3632
14685TIP3    H265547   3.975   4.992  12.988 -2.4629  0.8528 -1.5687
14686TIP3   OH265548   6.149   6.844  11.460  0.1848 -0.3056 -0.1241
14686TIP3    H165549   6.072   6.899  11.448  1.0137  0.6960 -1.0186
14686TIP3    H265550   6.169   6.811  11.372  1.0644 -0.1674  0.0149
14687TIP3   OH265551   4.958   0.750  10.842  0.7091  0.4293  0.2818
14687TIP3    H165552   5.033   0.760  10.784  2.5424 -3.6828  1.5492
14687TIP3    H265553   4.918   0.667  10.816 -1.3960  0.8674  1.8242
14688TIP3   OH265554   0.406   1.181   3.821  0.0880 -0.3936  0.2522
14688TIP3    H165555   0.496   1.173   3.791  0.1656 -0.4854  0.5064
14688TIP3    H265556   0.397   1.273   3.847  0.1182 -0.3929  0.2597
14689TIP3   OH265557   3.574   3.627  15.552 -0.4641  0.0447 -0.4792
14689TIP3    H165558   3.667   3.627  15.528 -0.8725  0.5678 -2.2713
14689TIP3    H265559   3.570   3.676  15.634  0.5069  3.1930 -2.1385
14690TIP3   OH265560   3.379   6.228   4.132 -0.9155  0.6597 -0.2169
14690TIP3    H165561   3.330   6.208   4.212 -2.4840 -0.1345 -1.3094
14690TIP3    H265562   3.348   6.163   4.069  1.9796 -0.2251 -0.8684
14691TIP3   OH265563   3.902   5.119   2.139  0.7964  0.3151 -0.0387
14691TIP3    H165564   3.953   5.148   2.063  1.7155  2.5246  1.3013
14691TIP3    H265565   3.965   5.072   2.193  0.4528 -0.2068 -0.0936
14692TIP3   OH265566   2.287   4.121   3.172  0.1746 -0.3510 -0.3831
14692TIP3    H165567   2.352   4.164   3.228 -1.2599 -0.0488  1.1390
14692TIP3    H265568   2.281   4.177   3.095  0.8416  0.2875  0.0113
14693TIP3   OH265569   2.263   5.473  15.392  0.2686 -0.0786  0.0498
14693TIP3    H165570   2.309   5.537  15.446  1.3082  0.6848 -1.6702
14693TIP3    H265571   2.328   5.406  15.373  0.2642  0.2503 -1.1900
14694TIP3   OH265572   1.258   1.155   4.412  0.7234  0.0210  0.3203
14694TIP3    H165573   1.264   1.193   4.324  0.7406  0.8705  0.6745
14694TIP3    H265574   1.238   1.230   4.468  1.7065 -0.3412  1.1781
14695TIP3   OH265575   6.322   3.596  14.697 -0.4008  0.2541 -0.3064
14695TIP3    H165576   6.376   3.659  14.649  0.6512 -0.1456  0.3196
14695TIP3    H265577   6.239   3.641  14.711  0.0937  1.2477 -0.4764
14696TIP3   OH265578   6.386   3.877   4.221 -0.2788 -0.4182  0.1301
14696TIP3    H165579   6.302   3.871   4.176  0.1321  1.0749 -0.8949
14696TIP3    H265580   6.364   3.892   4.313 -1.3191  4.6895 -0.6530
14697TIP3   OH265581   0.571   3.098   3.042 -0.6722  0.0404 -0.0445
14697TIP3    H165582   0.491   3.080   3.093 -0.5702  0.2543  0.1936
14697TIP3    H265583   0.624   3.019   3.053  0.4138  0.9698  2.2076
14698TIP3   OH265584   4.676   0.207   4.964 -0.5827  0.1113  0.0779
14698TIP3    H165585   4.727   0.159   4.898 -0.6521 -0.3136  0.3287
14698TIP3    H265586   4.732   0.208   5.041 -0.8334 -0.1160  0.2681
14699TIP3   OH265587   6.604   1.698  10.770  0.0031  0.1338 -0.0238
14699TIP3    H165588   6.637   1.707  10.681  0.4070 -0.0291  0.1051
14699TIP3    H265589   6.627   1.609  10.796 -0.6919 -0.0394  0.0154
14700TIP3   OH265590   5.446   2.831  16.600 -0.0609  0.3412  0.0537
14700TIP3    H165591   5.515   2.769  16.624  0.2843  1.4571  2.2102
14700TIP3    H265592   5.447   2.832  16.504  2.5901 -0.0856 -0.0046
14701TIP3   OH265593   6.390   4.537   3.110 -0.0718  0.0171 -0.6890
14701TIP3    H165594   6.421   4.477   3.178  0.4566 -0.4677 -1.3490
14701TIP3    H265595   6.350   4.609   3.159  1.0524  0.0924  0.1552
14702TIP3   OH265596   6.582   5.303   3.654 -0.1286 -0.0045  0.2986
14702TIP3    H165597   6.555   5.390   3.684 -2.3628  0.6760 -3.1463
14702TIP3    H265598   6.507   5.247   3.675  0.4516 -0.6409  0.6746
14703TIP3   OH265599   1.799   3.412   4.497  0.1325  0.5297 -0.2664
14703TIP3    H165600   1.772   3.326   4.530 -1.3546  0.7734 -0.8081
14703TIP3    H265601   1.756   3.475   4.555  0.3131  0.9263 -0.5551
14704TIP3   OH265602   4.643   5.585   2.156  0.0213 -0.0110  0.1830
14704TIP3    H165603   4.633   5.597   2.062  0.4459  0.9294  0.2459
14704TIP3    H265604   4.619   5.670   2.193  0.8179 -0.0702  0.8547
14705TIP3   OH265605   3.123   6.297  11.296 -0.5464 -0.3179  0.3441
14705TIP3    H165606   3.063   6.372  11.294 -0.3262 -0.1308 -1.2864
14705TIP3    H265607   3.084   6.234  11.235  0.8292 -0.2352 -0.6710
14706TIP3   OH265608   3.321   4.479   5.263 -0.2028  0.2298  0.1250
14706TIP3    H165609   3.237   4.448   5.297 -0.0558 -1.4948 -0.9753
14706TIP3    H265610   3.362   4.522   5.338 -0.0147 -3.1388  2.1516
14707TIP3   OH265611   1.831   4.975  16.298 -0.2334 -0.0530 -0.1286
14707TIP3    H165612   1.831   4.920  16.376  2.8248  1.5334  1.1363
14707TIP3    H265613   1.830   4.913  16.225 -3.8836 -1.5788  0.9940
14708TIP3   OH265614   5.088   5.922   4.740 -0.1750 -0.1220  0.1750
14708TIP3    H165615   5.028   5.904   4.813  2.0988 -0.1301  2.1364
14708TIP3    H265616   5.077   6.015   4.722 -1.0813 -0.2167  0.1904
14709TIP3   OH265617   5.050   0.459  15.088  0.6193 -0.6261 -0.0732
14709TIP3    H165618   4.974   0.414  15.050  0.7418 -0.4123 -0.5738
14709TIP3    H265619   5.098   0.492  15.013 -0.2064  1.5977  0.3027
14710TIP3   OH265620   1.136   2.694  11.222  0.5093  0.0262 -0.1986
14710TIP3    H165621   1.186   2.652  11.292  0.0890 -1.2328 -0.6089
14710TIP3    H265622   1.066   2.631  11.202 -0.4457  1.1571 -0.5303
14711TIP3   OH265623   5.331   5.629  14.700 -0.4973 -0.1067 -0.2239
14711TIP3    H165624   5.398   5.611  14.766  0.7581 -0.1818 -1.4617
14711TIP3    H265625   5.303   5.719  14.718 -1.8721 -0.8676  1.7964
14712TIP3   OH265626   6.654   2.933   2.832  0.4429  0.0112  0.5854
14712TIP3    H165627   6.588   2.884   2.782 -1.3470  0.2488  2.5856
14712TIP3    H265628   6.735   2.884   2.819 -0.7653 -2.1023  0.5438
14713TIP3   OH265629   4.960   2.249  12.164 -0.2565  0.2263 -0.0533
14713TIP3    H165630   4.942   2.155  12.171 -2.1714  0.5882  0.3030
14713TIP3    H265631   4.989   2.261  12.073  1.0909 -0.8400  0.1979
14714TIP3   OH265632   3.217   2.665  13.192  0.7221 -0.1057  0.6292
14714TIP3    H165633   3.222   2.570  13.200  2.2307 -0.0536  0.7135
14714TIP3    H265634   3.124   2.685  13.193  0.2451 -1.7781 -1.7314
14715TIP3   OH265635   6.666   0.011  15.761  0.8525 -0.2977  0.3744
14715TIP3    H165636   6.704  -0.053  15.700 -0.0200 -2.9430  2.3996
14715TIP3    H265637   6.721   0.004  15.839  1.1963  2.0783  0.3959
14716TIP3   OH265638   4.120   3.675  13.723  0.1110  0.0191  0.3295
14716TIP3    H165639   4.128   3.603  13.661  0.4675  0.2143  0.1494
14716TIP3    H265640   4.208   3.687  13.758  0.1397  0.6401  0.0534
14717TIP3   OH265641   5.027   3.970  15.519 -0.5177 -0.6843  0.2762
14717TIP3    H165642   4.933   3.976  15.537 -0.1539  0.5116  2.0958
14717TIP3    H265643   5.038   4.010  15.433 -1.9617 -3.3328 -1.2617
14718TIP3   OH265644   6.784   1.986   2.347  0.1766 -0.0406 -0.0393
14718TIP3    H165645   6.761   1.905   2.303 -0.1289 -1.2912  2.2492
14718TIP3    H265646   6.700   2.028   2.367  0.2436 -0.1092  0.4103
14719TIP3   OH265647   3.233   4.288   3.552 -0.0369  0.0203 -0.3153
14719TIP3    H165648   3.153   4.254   3.592 -1.6397  3.5278 -0.1598
14719TIP3    H265649   3.287   4.315   3.625  0.0475  0.2556 -0.4641
14720TIP3   OH265650   5.598   3.218  10.791 -0.3746  0.0136  0.6956
14720TIP3    H165651   5.556   3.277  10.728 -0.9993 -2.7507 -1.6677
14720TIP3    H265652   5.525   3.175  10.836 -0.4980 -4.1596 -2.8132
14721TIP3   OH265653   0.999   4.475  14.126  0.0353 -0.5338 -0.7128
14721TIP3    H165654   0.943   4.525  14.066  0.2464 -0.0451 -0.5138
14721TIP3    H265655   1.088   4.503  14.104  0.1635 -0.8833 -0.6458
14722TIP3   OH265656   5.608   5.952   5.068  0.2867 -0.0100 -0.2793
14722TIP3    H165657   5.547   6.021   5.041  1.5916  1.1880 -0.3189
14722TIP3    H265658   5.580   5.875   5.019  0.7140  1.3058 -2.7788
14723TIP3   OH265659   3.873   2.761   0.782 -0.5677  0.4930 -0.2283
14723TIP3    H165660   3.828   2.791   0.704  0.2041  0.4150 -0.7214
14723TIP3    H265661   3.947   2.710   0.749 -1.2577 -1.1139  0.5653
14724TIP3   OH265662   5.903   1.658   2.032 -0.7323  0.1957 -0.3651
14724TIP3    H165663   5.841   1.586   2.023  1.1897 -1.5004 -0.7762
14724TIP3    H265664   5.850   1.737   2.019 -2.4760 -1.2048 -2.5784
14725TIP3   OH265665   2.366   2.886  13.462 -0.1498  0.5523  0.3934
14725TIP3    H165666   2.374   2.981  13.468 -1.3433  0.7472 -0.6468
14725TIP3    H265667   2.371   2.855  13.552  1.2166  1.4968  0.6633
14726TIP3   OH265668   1.637   1.299  12.483 -0.1330  0.5548 -0.2345
14726TIP3    H165669   1.572   1.229  12.486 -1.1252  1.4882  0.7838
14726TIP3    H265670   1.610   1.354  12.410 -0.0650  0.5528 -0.2615
14727TIP3   OH265671   0.420   2.871  12.376  0.7265 -0.0564 -0.1193
14727TIP3    H165672   0.432   2.802  12.441  3.0675  0.5177  0.1533
14727TIP3    H265673   0.375   2.829  12.303 -2.1479 -0.6877  1.8538
14728TIP3   OH265674   4.952   1.876   3.772 -0.5117 -0.6375 -0.4659
14728TIP3    H165675   5.034   1.910   3.738 -1.4030  0.4261 -1.6532
14728TIP3    H265676   4.926   1.937   3.841 -1.3989  0.3460 -1.6274
14729TIP3   OH265677   1.834   5.339  16.217  0.2677  0.2857 -0.3450
14729TIP3    H165678   1.855   5.333  16.123  0.7403  1.2825 -0.3145
14729TIP3    H265679   1.812   5.431  16.231 -0.3316  0.0400  0.4275
14730TIP3   OH265680   2.032   0.369  16.848 -0.0679  0.1163  0.3819
14730TIP3    H165681   2.124   0.384  16.868  1.4655 -1.7283 -4.1811
14730TIP3    H265682   2.005   0.299  16.908  1.8800 -0.2238  0.9090
14731TIP3   OH265683   4.617   1.465  12.809 -0.3164  0.5356  0.0038
14731TIP3    H165684   4.533   1.507  12.827 -0.4379  0.6028 -0.6955
14731TIP3    H265685   4.602   1.415  12.728 -0.2417 -1.0243  0.9234
14732TIP3   OH265686   1.351   6.267   2.534 -0.7240 -1.0247 -0.0827
14732TIP3    H165687   1.268   6.281   2.581 -0.4295 -0.7266  0.3641
14732TIP3    H265688   1.341   6.317   2.453  0.1615  1.6351  1.3104
14733TIP3   OH265689   0.116   2.570  10.081 -0.3938 -0.3004 -0.8326
14733TIP3    H165690   0.123   2.505  10.012  1.1687  0.4218 -1.3927
14733TIP3    H265691   0.028   2.558  10.117 -0.4796 -2.0459 -1.5687
14734TIP3   OH265692   2.504   3.332   3.075 -0.4400 -0.1548  0.1888
14734TIP3    H165693   2.565   3.363   3.141 -1.1172  0.7859  0.3960
14734TIP3    H265694   2.523   3.384   2.997 -0.1648 -0.7114 -0.1174
14735TIP3   OH265695   1.094   0.939   4.412  0.1200 -0.3585  0.4731
14735TIP3    H165696   1.150   1.016   4.412  0.2948 -0.4796 -0.1054
14735TIP3    H265697   1.039   0.948   4.490  0.5612  0.0385  0.7368
14736TIP3   OH265698   5.023   3.762  14.603  0.5696 -0.6401  0.4512
14736TIP3    H165699   4.982   3.847  14.618  0.0834 -0.9928  1.1625
14736TIP3    H265700   5.117   3.780  14.607  0.5177  0.1291 -0.9284
14737TIP3   OH265701   0.698   4.834  16.223 -0.2699 -0.0538 -0.3559
14737TIP3    H165702   0.630   4.834  16.156  0.0965 -1.3486 -0.7559
14737TIP3    H265703   0.744   4.918  16.210 -1.3641  0.5394 -0.4929
14738TIP3   OH265704   4.113   1.031  12.539 -0.2702  0.1262 -0.3200
14738TIP3    H165705   4.110   1.087  12.616  0.0631 -2.7692  1.9386
14738TIP3    H265706   4.022   1.026  12.509 -0.2248  2.2939 -1.0233
14739TIP3   OH265707   4.381   5.729   3.034 -0.3523  0.3273  0.6920
14739TIP3    H165708   4.303   5.762   3.080 -0.2889 -1.0975  1.8731
14739TIP3    H265709   4.444   5.801   3.039 -0.9471  0.8098  1.3492
14740TIP3   OH265710   2.979   6.669  12.259  0.5614  0.3411 -0.3132
14740TIP3    H165711   2.934   6.752  12.274  1.9684  1.0592  0.1093
14740TIP3    H265712   2.947   6.611  12.328  0.8079  1.0648  0.4255
14741TIP3   OH265713   1.647   3.164  16.848  0.0760  0.0313 -0.2939
14741TIP3    H165714   1.559   3.190  16.819 -0.2689  0.1449  0.8127
14741TIP3    H265715   1.704   3.232  16.813 -0.2847 -0.0205 -0.9916
14742TIP3   OH265716   2.691   3.436  15.275  0.3932  0.0080 -0.5487
14742TIP3    H165717   2.760   3.428  15.340  0.5104  1.2519 -0.4892
14742TIP3    H265718   2.658   3.347  15.264  1.7719 -0.5701 -0.3343
14743TIP3   OH265719   5.383   2.462   5.458  0.2116  0.6699 -0.4264
14743TIP3    H165720   5.351   2.372   5.464 -0.5451  0.8315 -1.6697
14743TIP3    H265721   5.448   2.460   5.387  2.2247  0.5833  1.3210
14744TIP3   OH265722   2.394   5.045   0.167  0.1489 -0.0498  0.2858
14744TIP3    H165723   2.434   5.015   0.086  2.1526  2.1482  0.3461
14744TIP3    H265724   2.326   5.106   0.139 -1.0943 -1.4177  0.2461
14745TIP3   OH265725   2.364   3.756  16.080 -0.4352  0.4953  0.3234
14745TIP3    H165726   2.396   3.814  16.010  1.0417 -0.0937  0.4599
14745TIP3    H265727   2.285   3.716  16.044  0.2414  0.2759 -0.9790
14746TIP3   OH265728   4.126   2.417   2.320  0.0287  0.3511  0.1517
14746TIP3    H165729   4.032   2.400   2.315 -0.0940  1.0919 -0.2666
14746TIP3    H265730   4.166   2.354   2.260 -0.2572  0.4193 -0.1090
14747TIP3   OH265731   2.797   5.459  16.380  0.0005 -0.4853 -0.1779
14747TIP3    H165732   2.879   5.505  16.363  1.3718 -2.3277  1.0439
14747TIP3    H265733   2.749   5.518  16.439 -0.2881  1.2699 -2.0332
14748TIP3   OH265734   5.639   0.769   2.046  0.1306 -0.1620  0.2250
14748TIP3    H165735   5.629   0.732   1.958 -1.2462 -0.9320  0.6782
14748TIP3    H265736   5.582   0.845   2.047 -1.5097 -1.3516  1.0732
14749TIP3   OH265737   2.813   4.649   4.991  0.5366 -0.1474  0.3752
14749TIP3    H165738   2.772   4.568   4.961  1.4708 -0.0758 -1.2099
14749TIP3    H265739   2.905   4.639   4.967  1.1929  0.2953  2.5556
14750TIP3   OH265740   1.774   6.101   3.894 -0.3355  0.2555  0.5271
14750TIP3    H165741   1.816   6.083   3.809 -0.4240  2.7944 -0.1437
14750TIP3    H265742   1.832   6.061   3.958  0.7248 -0.1297 -0.6271
14751TIP3   OH265743   6.282   0.098   5.176 -0.3558  0.4560 -0.3589
14751TIP3    H165744   6.351   0.075   5.113  0.7392  0.1922  0.8995
14751TIP3    H265745   6.271   0.019   5.230  0.6347  1.5058  1.4750
14752TIP3   OH265746   3.254   1.666  13.145  1.0926 -0.0504 -0.0850
14752TIP3    H165747   3.188   1.721  13.104  1.4428 -0.0291 -0.6282
14752TIP3    H265748   3.294   1.618  13.073 -0.2009 -2.1453  0.5157
14753TIP3   OH265749   1.553   4.889  11.071  0.3408 -0.2234 -0.5075
14753TIP3    H165750   1.626   4.842  11.111  0.8298  0.7573 -0.2284
14753TIP3    H265751   1.594   4.958  11.019 -0.3951  0.6228  0.0155
14754TIP3   OH265752   4.990   1.679   0.786 -0.2854 -0.0119 -0.8359
14754TIP3    H165753   5.079   1.675   0.751 -0.2526  0.5045 -0.8126
14754TIP3    H265754   5.001   1.705   0.877 -0.3917 -1.0479 -0.5146
14755TIP3   OH265755   5.897   3.925  15.737  0.0605 -0.5037  0.3557
14755TIP3    H165756   5.957   3.908  15.810  0.0062  0.4898  0.6453
14755TIP3    H265757   5.812   3.941  15.779  0.6378  3.2499  0.3976
14756TIP3   OH265758   6.207   5.748   2.150  0.1139 -0.0127  0.4293
14756TIP3    H165759   6.294   5.789   2.148  0.3401 -0.5089 -0.0238
14756TIP3    H265760   6.216   5.669   2.097 -0.8797  0.4327 -0.4405
14757TIP3   OH265761   5.238   2.597   0.842  0.2832  1.0714 -0.8531
14757TIP3    H165762   5.319   2.557   0.874  0.7118  0.0565 -3.0401
14757TIP3    H265763   5.181   2.523   0.823 -0.2452  1.6635 -1.6288
14758TIP3   OH265764   1.471   3.028   0.811  0.0029 -0.8358  0.0094
14758TIP3    H165765   1.562   2.997   0.803 -0.3409 -1.4170 -1.9791
14758TIP3    H265766   1.424   2.953   0.847  0.1524 -0.8089  0.2650
14759TIP3   OH265767   1.411   2.405   3.310 -0.3509  0.0954  0.0504
14759TIP3    H165768   1.324   2.396   3.349  0.1562  0.8665  1.4478
14759TIP3    H265769   1.401   2.476   3.246 -1.2406 -1.3160 -1.4537
14760TIP3   OH265770   1.328   6.278  14.486 -0.2502  0.1317  0.5559
14760TIP3    H165771   1.292   6.253  14.571  0.3401  0.4912  0.9167
14760TIP3    H265772   1.396   6.342  14.506 -0.9645  1.1931 -0.2709
14761TIP3   OH265773   2.794   5.414   4.137 -0.2617  0.1737 -0.1395
14761TIP3    H165774   2.746   5.446   4.213  0.9883  2.1006 -0.1113
14761TIP3    H265775   2.883   5.447   4.148  0.1081  0.0047 -2.1376
14762TIP3   OH265776   6.379   2.964   3.197 -0.3672 -0.2394 -0.1375
14762TIP3    H165777   6.414   2.901   3.260  0.9955 -1.2736 -1.8464
14762TIP3    H265778   6.454   3.017   3.171 -1.0550  0.6595 -0.3488
14763TIP3   OH265779   1.208   3.132   2.269 -0.3174  0.1165  0.0139
14763TIP3    H165780   1.289   3.164   2.308 -0.5106 -0.5373  0.9874
14763TIP3    H265781   1.157   3.211   2.252  1.0008  0.6457 -1.7864
14764TIP3   OH265782   4.386   6.222  15.308 -0.3979  0.5679 -0.1487
14764TIP3    H165783   4.315   6.268  15.354 -0.6497 -0.3711  0.4346
14764TIP3    H265784   4.365   6.129  15.318  0.5269  0.2936 -0.6062
14765TIP3   OH265785   5.045   0.005   3.118  0.6784 -0.0604 -0.1509
14765TIP3    H165786   5.033   0.099   3.104  0.5102 -0.1055 -0.3085
14765TIP3    H265787   5.136  -0.003   3.149  0.5557  0.1985  0.2944
14766TIP3   OH265788   3.058   6.256  11.593 -0.1952 -0.6737  0.5865
14766TIP3    H165789   3.105   6.225  11.516  0.1372 -0.3311  0.6465
14766TIP3    H265790   2.967   6.260  11.566  0.0255  0.3146 -0.0822
14767TIP3   OH265791   1.500   3.880  14.541 -0.0119  0.3892  0.2544
14767TIP3    H165792   1.463   3.874  14.629  1.1744  2.0013  0.9367
14767TIP3    H265793   1.489   3.793  14.504 -2.6973  0.2987  1.0799
14768TIP3   OH265794   1.194   0.851  15.182 -0.3334  0.0623 -0.4945
14768TIP3    H165795   1.232   0.787  15.123  1.0603 -0.2325  0.6743
14768TIP3    H265796   1.259   0.921  15.188 -0.1514 -0.2034  1.1374
14769TIP3   OH265797   3.011   0.814  13.031  0.1118 -0.3926  0.2757
14769TIP3    H165798   2.983   0.837  12.943 -0.9348 -1.1272  0.4079
14769TIP3    H265799   2.955   0.867  13.088  1.5299  0.9293  0.5207
14770TIP3   OH265800   0.163   1.735  13.583 -0.3539  0.8852  0.1079
14770TIP3    H165801   0.111   1.760  13.659 -2.1734  0.5730 -0.9736
14770TIP3    H265802   0.185   1.643  13.598  1.4794  1.4860  1.4034
14771TIP3   OH265803   3.508   5.020  15.060  0.4578  0.2548  0.2499
14771TIP3    H165804   3.471   5.075  14.991 -1.8486  0.8304  1.8105
14771TIP3    H265805   3.487   4.930  15.034 -0.1107  0.4452  0.0277
14772TIP3   OH265806   3.867   2.911  12.672  0.2711 -0.6991 -0.2790
14772TIP3    H165807   3.852   2.888  12.764 -0.6813  0.6362 -0.0685
14772TIP3    H265808   3.847   3.005  12.667  0.7466 -0.6477 -1.7636
14773TIP3   OH265809   0.660   3.030  10.378  0.6164  0.0456 -0.1423
14773TIP3    H165810   0.715   2.967  10.424 -1.2575 -2.0728 -0.5948
14773TIP3    H265811   0.596   2.975  10.331 -2.9749  2.2748  1.7218
14774TIP3   OH265812   0.387   3.832  16.225  0.3709 -0.5644  0.4108
14774TIP3    H165813   0.478   3.860  16.221  0.5855 -1.2882 -2.8222
14774TIP3    H265814   0.340   3.896  16.171 -0.7188 -1.1832  0.5917
14775TIP3   OH265815   6.607   6.107  16.833  0.1523  0.4944  0.3074
14775TIP3    H165816   6.548   6.097  16.758 -0.4818  0.2316  0.8310
14775TIP3    H265817   6.649   6.192  16.820 -0.4779  0.7667  0.0210
14776TIP3   OH265818   1.719   6.236  13.360  0.0860 -0.4518  0.0473
14776TIP3    H165819   1.747   6.233  13.451  1.3780 -0.3984 -0.3195
14776TIP3    H265820   1.638   6.287  13.361  0.6744  0.5147  1.0344
14777TIP3   OH265821   1.640   3.152   0.279 -0.1903  0.3404  0.0658
14777TIP3    H165822   1.724   3.143   0.323 -0.3503 -1.3164  0.0906
14777TIP3    H265823   1.659   3.136   0.186 -0.4466  0.1170  0.0501
14778TIP3   OH265824   2.995   6.827  13.263 -0.0111 -0.7383 -0.2668
14778TIP3    H165825   3.022   6.793  13.177  1.4274  3.3455 -1.6882
14778TIP3    H265826   3.068   6.804  13.321  0.4729 -0.9254 -0.9288
14779TIP3   OH265827   0.316   2.301   6.097 -0.5307  0.2460  0.1461
14779TIP3    H165828   0.276   2.366   6.154 -1.4603 -1.2352  1.2687
14779TIP3    H265829   0.328   2.224   6.153  0.2792 -0.6512 -1.1899
14780TIP3   OH265830   0.821   5.152  14.947 -0.4339  0.0880  0.2436
14780TIP3    H165831   0.889   5.204  14.904 -2.8389 -0.2652 -4.8243
14780TIP3    H265832   0.853   5.062  14.941 -0.6076  0.0749 -0.7103
14781TIP3   OH265833   2.853   2.496  11.440  0.2280  0.0590  0.2161
14781TIP3    H165834   2.895   2.459  11.518 -1.1650 -1.3462  0.3530
14781TIP3    H265835   2.879   2.588  11.440  1.6173 -0.2877  1.3989
14782TIP3   OH265836   0.196   5.530  12.036  0.0937  0.0291  0.3227
14782TIP3    H165837   0.106   5.532  12.070  0.2272 -1.6068  0.8218
14782TIP3    H265838   0.187   5.562  11.946 -1.0505 -0.4937  0.2361
14783TIP3   OH265839   3.117   6.701   5.423  0.5282 -0.2244 -0.1543
14783TIP3    H165840   3.040   6.717   5.478  0.6696  0.1371 -0.0637
14783TIP3    H265841   3.086   6.641   5.355 -0.3784  1.5092 -1.3451
14784TIP3   OH265842   0.517   4.865  10.510 -0.0537  0.1474  0.3397
14784TIP3    H165843   0.488   4.957  10.504 -0.2084  0.0829  0.0600
14784TIP3    H265844   0.577   4.854  10.437  1.4242  0.5353  1.4558
14785TIP3   OH265845   0.840   5.452   2.185  0.3940 -0.1180 -0.5154
14785TIP3    H165846   0.891   5.498   2.251 -0.4383  1.7766 -1.1359
14785TIP3    H265847   0.754   5.440   2.225 -0.1948  1.2773 -1.3242
14786TIP3   OH265848   2.766   1.764   2.655 -0.7347  0.3072  0.2438
14786TIP3    H165849   2.798   1.792   2.569 -1.9741  3.0593  0.5611
14786TIP3    H265850   2.721   1.681   2.638  0.4783 -0.0595 -1.4224
14787TIP3   OH265851   0.406   6.467   2.362 -0.1049  0.5153  0.1493
14787TIP3    H165852   0.448   6.383   2.380  1.5302  0.7564 -2.1366
14787TIP3    H265853   0.316   6.444   2.338 -1.0516 -0.1282  3.6015
14788TIP3   OH265854   6.666   2.046   0.054  0.0715 -0.4363 -0.1084
14788TIP3    H165855   6.640   2.134   0.080  0.4779 -0.7953  1.7011
14788TIP3    H265856   6.732   2.059  -0.014  0.7900  0.7001  0.7752
14789TIP3   OH265857   3.665   4.478  15.238 -0.6131 -0.8277 -0.1195
14789TIP3    H165858   3.653   4.573  15.236 -0.2864 -0.7450  0.9899
14789TIP3    H265859   3.696   4.456  15.150 -0.9587  0.0527 -0.4742
14790TIP3   OH265860   0.290   4.063  16.727  0.4500  0.2299  0.0604
14790TIP3    H165861   0.269   3.971  16.739  1.1888 -0.0151 -0.4014
14790TIP3    H265862   0.332   4.067  16.641 -0.2341  1.1143 -0.2470
14791TIP3   OH265863   1.593   3.367  13.820 -0.1778 -0.3664 -0.1243
14791TIP3    H165864   1.613   3.349  13.728  0.4115  1.7438 -0.4641
14791TIP3    H265865   1.656   3.314  13.869 -0.5754 -1.6069 -0.8980
14792TIP3   OH265866   6.696   5.918   1.317  0.1233  0.1971 -0.5167
14792TIP3    H165867   6.700   5.844   1.256  0.6152 -1.0585  0.9842
14792TIP3    H265868   6.687   5.878   1.403 -0.0695  1.9187  0.3110
14793TIP3   OH265869   3.915   1.466  14.176  0.1878 -0.2548 -0.0564
14793TIP3    H165870   3.843   1.507  14.222  0.4918  0.5872 -0.3091
14793TIP3    H265871   3.876   1.389  14.134 -0.1779 -0.7791  1.2142
14794TIP3   OH265872   6.675   2.612   0.597  0.1493  0.4050  0.2853
14794TIP3    H165873   6.705   2.613   0.688 -0.6263 -0.0972  0.5500
14794TIP3    H265874   6.583   2.637   0.601  0.0589  0.1934 -0.3440
14795TIP3   OH265875   0.436   6.346   5.569  0.3265 -0.3507  0.4521
14795TIP3    H165876   0.522   6.333   5.609  0.2065 -0.4025  0.6957
14795TIP3    H265877   0.424   6.441   5.569  0.0636 -0.3758  1.1110
14796TIP3   OH265878   2.221   3.120   0.893  0.1208  0.0072  0.4540
14796TIP3    H165879   2.253   3.146   0.806  0.3489 -1.5902  0.0267
14796TIP3    H265880   2.300   3.094   0.940 -0.2682 -2.0597  0.0698
14797TIP3   OH265881   2.801   0.885  15.676 -0.5663  0.9087  0.2799
14797TIP3    H165882   2.800   0.859  15.584 -1.2246  1.2016  0.1964
14797TIP3    H265883   2.868   0.953  15.681 -1.2250  1.6213 -0.2042
14798TIP3   OH265884   2.238   4.940  10.631  0.3998 -0.0339  0.5290
14798TIP3    H165885   2.222   4.846  10.625 -0.4306  0.0002  1.8497
14798TIP3    H265886   2.179   4.979  10.567  2.0721 -0.4845 -1.3939
14799TIP3   OH265887   2.488   3.813  11.861 -0.7062 -0.6326 -0.5628
14799TIP3    H165888   2.396   3.837  11.867 -0.4131  0.6167 -0.7315
14799TIP3    H265889   2.488   3.720  11.840 -1.9267 -0.6289 -0.6155
14800TIP3   OH265890   4.114   6.323  12.265 -0.2081  0.8664  0.0508
14800TIP3    H165891   4.112   6.261  12.338 -1.8129 -0.8340 -1.3346
14800TIP3    H265892   4.144   6.405  12.304 -0.5337 -0.0914  2.5024
14801TIP3   OH265893   6.253   4.507   3.493  0.2035  0.1702 -0.3299
14801TIP3    H165894   6.228   4.585   3.443 -0.8378 -0.6553 -1.1405
14801TIP3    H265895   6.343   4.524   3.520 -0.5625  2.4558  1.1074
14802TIP3   OH265896   3.570   3.807  15.777  0.3944  0.0567 -0.2235
14802TIP3    H165897   3.508   3.810  15.850  1.0688 -0.6337  0.3928
14802TIP3    H265898   3.656   3.804  15.818  0.8217  0.4123 -1.0647
14803TIP3   OH265899   4.073   3.547  14.587 -0.2406 -0.8070 -0.4560
14803TIP3    H165900   4.051   3.500  14.668  3.1644  1.0354  1.8155
14803TIP3    H265901   4.011   3.621  14.585 -1.1367 -1.5316 -0.2425
14804TIP3   OH265902   4.143   2.662  15.050 -0.0617 -0.0083  0.4496
14804TIP3    H165903   4.230   2.629  15.028 -0.2093  0.3676 -0.8264
14804TIP3    H265904   4.149   2.756  15.031 -0.5302  0.1477  1.0734
14805TIP3   OH265905   4.929   4.687   5.780 -0.5444 -0.2997  0.2918
14805TIP3    H165906   4.938   4.760   5.841 -1.4845  1.6542 -1.7755
14805TIP3    H265907   5.018   4.663   5.758 -0.2050 -0.4177  1.6751
14806TIP3   OH265908   0.663   4.564  15.382 -0.0245  0.4638 -0.0886
14806TIP3    H165909   0.635   4.502  15.449  2.2550  2.1055  2.6121
14806TIP3    H265910   0.637   4.650  15.416  2.7831  1.5118 -0.3100
14807TIP3   OH265911   0.227   5.110   2.110 -0.1153 -0.2367  0.4506
14807TIP3    H165912   0.175   5.189   2.123 -0.4005 -0.6983  2.5147
14807TIP3    H265913   0.267   5.121   2.024  1.8754  3.3420  1.6154
14808TIP3   OH265914   6.666   4.857  13.941 -0.3249 -0.0794 -0.3255
14808TIP3    H165915   6.735   4.818  13.994 -0.7274 -0.0766  0.2129
14808TIP3    H265916   6.672   4.813  13.856 -0.7303 -1.2774  0.2524
14809TIP3   OH265917   3.274   1.572   2.205 -0.2452 -0.6403 -0.9816
14809TIP3    H165918   3.274   1.480   2.231  0.4073 -0.9469 -1.9836
14809TIP3    H265919   3.189   1.605   2.232  0.0546 -1.1525  0.6656
14810TIP3   OH265920   2.054   2.663   4.564  0.2619 -0.3278 -0.2070
14810TIP3    H165921   2.035   2.741   4.618  1.0111  0.1471 -0.6051
14810TIP3    H265922   2.116   2.613   4.618  1.9622  0.7358 -1.0632
14811TIP3   OH265923   6.108   5.377   2.573  0.6067 -0.5871  0.1496
14811TIP3    H165924   6.023   5.416   2.592  0.4176 -0.8976 -0.0529
14811TIP3    H265925   6.167   5.416   2.638  0.3749 -0.1471  0.1018
14812TIP3   OH265926   5.189   2.197  13.802  0.1882 -0.4368 -0.5861
14812TIP3    H165927   5.160   2.265  13.742  2.0615  0.5177 -0.4920
14812TIP3    H265928   5.207   2.122  13.746 -0.8035 -0.5084 -0.8321
14813TIP3   OH265929   1.745   6.721  10.649 -0.3893  0.0093 -0.5500
14813TIP3    H165930   1.715   6.672  10.726 -0.0520  0.8971  0.1525
14813TIP3    H265931   1.836   6.695  10.639 -0.3015  0.2518 -0.3724
14814TIP3   OH265932   1.307   4.346  14.630 -0.1774  0.1887 -0.2131
14814TIP3    H165933   1.238   4.385  14.684  0.4764 -0.2538  0.9789
14814TIP3    H265934   1.388   4.363  14.678  0.4339 -0.1898 -1.0822
14815TIP3   OH265935   1.205   6.810   3.080 -0.0858  0.1374  0.2721
14815TIP3    H165936   1.187   6.854   3.163 -2.6595  0.9107 -0.6102
14815TIP3    H265937   1.246   6.727   3.105 -1.0761  0.2149  2.3447
14816TIP3   OH265938   2.941   1.511   4.220  0.2391  0.7851  0.3289
14816TIP3    H165939   2.959   1.467   4.137 -0.1619  0.2444  0.5210
14816TIP3    H265940   2.928   1.440   4.283 -0.2939  1.1787  0.6750
14817TIP3   OH265941   4.862   6.391   2.702  0.4044  0.5017 -0.2612
14817TIP3    H165942   4.879   6.425   2.790  0.0894 -0.6451  0.2622
14817TIP3    H265943   4.949   6.375   2.665  0.5454  1.3413 -0.3089
14818TIP3   OH265944   2.991   1.566   2.793 -0.2329  0.4063  0.2620
14818TIP3    H165945   2.986   1.623   2.869 -0.0271 -0.8208  1.2247
14818TIP3    H265946   2.909   1.518   2.792  0.0189 -0.0327  0.0845
14819TIP3   OH265947   2.028   6.868   0.651 -0.0167  0.1951 -0.3371
14819TIP3    H165948   2.083   6.944   0.672 -0.0815 -0.4850  2.6668
14819TIP3    H265949   2.090   6.797   0.634  0.0339  0.3780 -0.9288
14820TIP3   OH265950   6.265   0.793  13.849 -0.1269  0.2541 -0.6322
14820TIP3    H165951   6.171   0.796  13.835 -0.2516  0.9410  0.2149
14820TIP3    H265952   6.294   0.883  13.835  0.1975  0.3114  0.2833
14821TIP3   OH265953   3.482   1.600   1.228 -0.2857  0.2030 -0.3999
14821TIP3    H165954   3.427   1.538   1.277 -1.8994  2.0302  0.2544
14821TIP3    H265955   3.470   1.576   1.137 -1.3747 -0.0975 -0.1934
14822TIP3   OH265956   5.757   1.022   1.814  0.0122 -0.7121 -0.1604
14822TIP3    H165957   5.700   1.031   1.890  0.2465 -1.8643  0.1726
14822TIP3    H265958   5.829   0.968   1.845  0.2580 -0.9524 -1.1253
14823TIP3   OH265959   6.638   3.157  15.827  0.1707  0.4052 -0.2290
14823TIP3    H165960   6.617   3.080  15.774 -0.8710  0.1253  0.5377
14823TIP3    H265961   6.639   3.124  15.917 -2.9757  1.6910  0.4209
14824TIP3   OH265962   3.177   6.865   1.188 -0.0679  0.6040 -0.1835
14824TIP3    H165963   3.082   6.867   1.201  0.1039  0.9699  1.1674
14824TIP3    H265964   3.214   6.877   1.276  1.2289  1.9530 -0.8590
14825TIP3   OH265965   0.845   5.368   5.117  0.2006 -0.7058  0.3790
14825TIP3    H165966   0.934   5.353   5.087  0.6225 -1.4863  1.9355
14825TIP3    H265967   0.849   5.452   5.164 -0.3639  0.3004 -1.2864
14826TIP3   OH265968   5.185   5.851  11.277 -0.2241  0.4396  0.2355
14826TIP3    H165969   5.138   5.831  11.358  0.6935  1.1016  0.9481
14826TIP3    H265970   5.166   5.776  11.220 -0.1397 -0.4994  1.3922
14827TIP3   OH265971   1.954   6.423   1.611  0.8567  0.4115 -0.1880
14827TIP3    H165972   1.888   6.389   1.671  1.0861 -0.1676 -0.2558
14827TIP3    H265973   1.929   6.388   1.526  0.9471  0.6299 -0.3032
14828TIP3   OH265974   6.521   1.935   1.462 -0.5860 -0.1342 -0.4779
14828TIP3    H165975   6.532   1.860   1.405  0.9191 -0.3760  0.0862
14828TIP3    H265976   6.480   2.002   1.407 -1.1998 -1.0891 -1.2014
14829TIP3   OH265977   4.921   1.058   3.941  0.1871  0.2307 -0.7450
14829TIP3    H165978   4.857   0.987   3.939  2.0654 -1.5149 -2.0908
14829TIP3    H265979   4.949   1.068   3.850  1.4959  1.2644 -0.2649
14830TIP3   OH265980   4.354   5.407   2.101 -0.4434 -0.1140 -0.0361
14830TIP3    H165981   4.323   5.368   2.019 -2.0620  0.5017  0.2396
14830TIP3    H265982   4.367   5.499   2.080  1.3285 -0.3649 -0.1502
14831TIP3   OH265983   6.471   4.196  14.726 -0.3614  0.8062 -0.0654
14831TIP3    H165984   6.442   4.110  14.755  1.5165  0.1998  0.1661
14831TIP3    H265985   6.432   4.207  14.639 -0.6151 -0.2682 -0.0997
14832TIP3   OH265986   2.406   1.825   3.162 -0.7353  0.4971 -0.0529
14832TIP3    H165987   2.325   1.874   3.180 -1.7235 -0.3455 -1.9066
14832TIP3    H265988   2.376   1.736   3.142  0.8446 -0.3706  1.1852
14833TIP3   OH265989   1.178   1.869   2.590  0.4402 -0.1332  0.3955
14833TIP3    H165990   1.188   1.944   2.650 -1.3703  0.0288  0.5537
14833TIP3    H265991   1.162   1.794   2.648 -0.2350 -0.1727  0.1677
14834TIP3   OH265992   4.590   0.952  14.606 -0.3326  0.1673 -0.6961
14834TIP3    H165993   4.621   0.872  14.563 -2.1910  0.3613 -2.4893
14834TIP3    H265994   4.667   1.009  14.608  0.5373 -0.9564 -1.0511
14835TIP3   OH265995   1.675   0.960   3.046  0.2770  0.7092 -0.1973
14835TIP3    H165996   1.642   0.895   3.108 -0.5063 -0.2667 -1.5645
14835TIP3    H265997   1.765   0.977   3.074  0.0091  0.1504  1.0700
14836TIP3   OH265998   6.025   0.277  16.809 -0.7703 -0.4824  0.2308
14836TIP3    H165999   5.930   0.288  16.801 -0.3861  3.0127 -1.2882
14836TIP3    H266000   6.052   0.237  16.726 -0.8320 -1.0758  0.4894
14837TIP3   OH266001   2.700   1.553   5.847  0.2826 -0.1603 -0.1653
14837TIP3    H166002   2.715   1.483   5.784 -1.6346 -0.9798  0.2135
14837TIP3    H266003   2.763   1.537   5.917 -1.4783 -2.8708  0.9576
14838TIP3   OH266004   4.215   2.362   1.335 -0.0503 -0.0367 -0.2277
14838TIP3    H166005   4.179   2.391   1.250  0.5951 -0.4320 -0.6444
14838TIP3    H266006   4.246   2.443   1.376 -0.0659  0.1171 -0.5147
14839TIP3   OH266007   3.609   2.538   1.604 -0.1963  0.0097  0.1749
14839TIP3    H166008   3.652   2.564   1.685 -1.3405  1.8257  0.2491
14839TIP3    H266009   3.622   2.612   1.545 -0.2579 -0.8614 -0.9730
14840TIP3   OH266010   6.240   4.868  11.817 -0.4535  0.3776  0.2776
14840TIP3    H166011   6.290   4.928  11.763 -1.1973 -0.1278 -1.0004
14840TIP3    H266012   6.303   4.800  11.843 -0.2546  0.2339 -0.5678
14841TIP3   OH266013   1.386   1.297   6.189  0.0921  0.4358 -0.3109
14841TIP3    H166014   1.296   1.267   6.199  0.5460 -0.2505  2.2946
14841TIP3    H266015   1.412   1.268   6.101 -1.0281 -2.6373  0.2763
14842TIP3   OH266016   4.099   2.916   0.103  0.3138 -0.3097 -0.0585
14842TIP3    H166017   4.179   2.887   0.146  1.0566  0.5164 -0.8413
14842TIP3    H266018   4.068   2.990   0.155  0.9590  0.3973 -0.6662
14843TIP3   OH266019   6.893   1.753   5.011  0.1636  0.5009 -0.2932
14843TIP3    H166020   6.878   1.816   5.081  2.2818  1.1188 -0.3299
14843TIP3    H266021   6.907   1.806   4.933 -0.7933 -0.1418 -0.9225
14844TIP3   OH266022   4.351   6.491  15.573  0.1656 -0.8838 -0.3080
14844TIP3    H166023   4.337   6.586  15.572  1.3485 -0.6753  0.5244
14844TIP3    H266024   4.265   6.454  15.556 -0.3068  0.3401 -0.7043
14845TIP3   OH266025   1.745   3.686  11.254 -0.4941  0.0572 -0.6809
14845TIP3    H166026   1.662   3.726  11.281 -0.9185  0.0175 -1.8619
14845TIP3    H266027   1.720   3.600  11.221 -0.0758  0.2901 -1.6421
14846TIP3   OH266028   6.712   3.382   2.266  0.0411 -0.1210  0.5582
14846TIP3    H166029   6.723   3.404   2.358 -1.8406 -1.3158  1.1191
14846TIP3    H266030   6.743   3.292   2.258 -0.6892 -0.3514  0.2326
14847TIP3   OH266031   5.939   2.489  12.644 -0.2601 -0.9400  0.2782
14847TIP3    H166032   5.993   2.493  12.565  0.6014 -1.0928  0.8488
14847TIP3    H266033   5.901   2.401  12.643 -1.8225 -0.3049 -0.9599
14848TIP3   OH266034   3.625   0.543  12.390 -0.4334 -0.0118  0.3111
14848TIP3    H166035   3.538   0.504  12.398  0.5178 -2.3558  0.1595
14848TIP3    H266036   3.609   0.630  12.355 -2.6304 -0.9364 -1.2205
14849TIP3   OH266037   3.901   0.287  11.934 -0.1679 -0.5822  0.0015
14849TIP3    H166038   3.844   0.302  12.009 -2.5497 -2.5998 -1.2461
14849TIP3    H266039   3.916   0.374  11.898 -0.2368  0.2640  1.9037
14850TIP3   OH266040   3.510   3.221   4.692  0.2876 -0.5136  0.3658
14850TIP3    H166041   3.571   3.285   4.729 -0.0149  0.3853 -0.6253
14850TIP3    H266042   3.537   3.213   4.601 -2.9500  2.4439 -1.1014
14851TIP3   OH266043   1.332   3.870   4.858  0.2755 -0.2703 -0.3934
14851TIP3    H166044   1.289   3.926   4.793 -0.9979  0.8573  1.3121
14851TIP3    H266045   1.412   3.841   4.816  0.1230  1.4520 -1.9942
14852TIP3   OH266046   1.552   3.935   3.729 -0.2210  0.4525 -0.7273
14852TIP3    H166047   1.608   3.919   3.653  0.0621  0.6773 -0.5691
14852TIP3    H266048   1.488   3.999   3.698 -1.1581 -0.6981 -1.2658
14853TIP3   OH266049   6.597   0.433  14.434  0.4293  0.0001 -0.4977
14853TIP3    H166050   6.690   0.455  14.431  0.8210 -1.5277 -0.7355
14853TIP3    H266051   6.588   0.377  14.512 -0.5757  1.2286  0.3096
14854TIP3   OH266052   4.590   3.162   1.132  0.4265 -0.2771 -0.0215
14854TIP3    H166053   4.565   3.128   1.218  0.7362 -2.3413 -0.6828
14854TIP3    H266054   4.669   3.212   1.148  1.7029 -2.3742  0.6759
14855TIP3   OH266055   6.460   4.040  11.517  0.1256 -0.6201  0.3340
14855TIP3    H166056   6.398   4.078  11.455  0.9306  1.7265  0.8564
14855TIP3    H266057   6.425   3.953  11.535 -0.8501 -0.8788 -2.3415
14856TIP3   OH266058   2.454   5.393  12.318  0.6123 -0.1571  0.2107
14856TIP3    H166059   2.445   5.362  12.227  2.2440 -0.1031  0.0046
14856TIP3    H266060   2.528   5.453  12.316 -1.1594  2.1890  1.0384
14857TIP3   OH266061   0.418   0.232   4.962  0.4247  0.2083 -0.3020
14857TIP3    H166062   0.447   0.141   4.969  0.4239  0.0777 -1.6615
14857TIP3    H266063   0.475   0.270   4.895 -0.2693  0.9117 -0.5112
14858TIP3   OH266064   6.741   3.758  13.510  0.5753  0.4850  0.9558
14858TIP3    H166065   6.727   3.802  13.594 -1.2820 -0.0156  0.9585
14858TIP3    H266066   6.693   3.812  13.447  1.5169  0.5665  0.2808
14859TIP3   OH266067   6.729   5.739   3.342 -0.0010 -0.6490 -0.1689
14859TIP3    H166068   6.737   5.758   3.248  1.0448 -1.1978 -0.2056
14859TIP3    H266069   6.639   5.763   3.363 -0.7848 -2.0254 -1.6746
14860TIP3   OH266070   2.962   6.831  16.012  0.2521  0.8648  0.4176
14860TIP3    H166071   2.955   6.749  16.061 -0.0493  1.6821  1.7930
14860TIP3    H266072   3.042   6.872  16.045 -0.2580  1.6909  0.6629
14861TIP3   OH266073   1.758   0.633  11.537 -0.2558  0.0817  0.2811
14861TIP3    H166074   1.795   0.587  11.613  1.1946 -0.6711 -0.8227
14861TIP3    H266075   1.833   0.679  11.498 -1.1763  1.2845 -0.1355
14862TIP3   OH266076   1.052   1.230  15.600  0.4854  0.0171 -0.4829
14862TIP3    H166077   0.967   1.247  15.559 -0.2195 -1.6746  0.1473
14862TIP3    H266078   1.054   1.135  15.611  0.8438  0.2718  2.8396
14863TIP3   OH266079   6.289   1.258   4.021  0.4206 -0.0251  0.3050
14863TIP3    H166080   6.321   1.205   4.095  0.0207 -0.0747  0.4488
14863TIP3    H266081   6.321   1.212   3.943  1.0159  0.1382  0.4490
14864TIP3   OH266082   2.035   1.730   4.038  0.5088 -0.1515  0.9110
14864TIP3    H166083   2.086   1.783   4.099 -0.0460  0.8419  0.5336
14864TIP3    H266084   1.975   1.792   3.997 -1.5605 -1.4013  1.9045
14865TIP3   OH266085   1.873   6.545  15.134  0.2900  0.6161  0.1845
14865TIP3    H166086   1.853   6.543  15.041 -0.7160  1.2897  0.3770
14865TIP3    H266087   1.917   6.462  15.151 -2.2222 -0.9051 -0.2936
14866TIP3   OH266088   1.221   2.512   2.667  0.3701  0.1281 -0.2552
14866TIP3    H166089   1.195   2.456   2.595 -2.4502 -2.0703  2.2208
14866TIP3    H266090   1.298   2.468   2.705  0.8529  0.4045 -0.8882
14867TIP3   OH266091   0.859   4.470  14.608 -0.2664 -0.1155  0.0614
14867TIP3    H166092   0.938   4.473  14.554  0.7429  0.8690  1.5127
14867TIP3    H266093   0.789   4.497  14.549  0.9458  1.8662 -0.5790
14868TIP3   OH266094   5.324   0.070  12.394 -0.1871  1.1677  0.4282
14868TIP3    H166095   5.272   0.102  12.468  0.0681  1.7163  0.3715
14868TIP3    H266096   5.356  -0.015  12.423 -0.3676  1.2305  0.8194
14869TIP3   OH266097   5.170   3.716   0.658  0.5077  0.6740 -0.3547
14869TIP3    H166098   5.195   3.770   0.583  2.7732 -0.8563 -0.7793
14869TIP3    H266099   5.094   3.667   0.628  1.6645 -0.2580 -1.8428
14870TIP3   OH266100   2.432   2.745   1.946 -0.3322  0.5966 -0.1369
14870TIP3    H166101   2.457   2.806   2.015 -0.3464  0.8557 -0.3580
14870TIP3    H266102   2.351   2.705   1.977 -0.5847  1.0476 -0.2061
14871TIP3   OH266103   3.402   2.288   1.058  0.4036  0.4078 -0.1886
14871TIP3    H166104   3.323   2.301   1.006 -1.1081 -2.5878  1.1574
14871TIP3    H266105   3.459   2.236   1.002 -0.7053 -1.7075  0.5195
14872TIP3   OH266106   1.858   4.953   3.705 -0.2873 -0.0471 -0.1417
14872TIP3    H166107   1.946   4.964   3.740 -0.4118  1.6129 -0.2789
14872TIP3    H266108   1.814   4.897   3.769  0.4116  0.3783  0.7363
14873TIP3   OH266109   1.373   0.351   4.327  0.3437 -0.4746  0.0167
14873TIP3    H166110   1.325   0.427   4.361  0.5728 -0.7244  0.9365
14873TIP3    H266111   1.448   0.388   4.282  2.2100 -0.1512  3.1303
14874TIP3   OH266112   6.316   2.097   2.734  0.2570  0.6809 -1.0480
14874TIP3    H166113   6.400   2.112   2.691  1.4084 -0.3410  0.7034
14874TIP3    H266114   6.291   2.008   2.708  0.0295  0.7550 -1.0823
14875TIP3   OH266115   6.668   2.826  14.513  0.0993  0.0032 -0.0469
14875TIP3    H166116   6.741   2.870  14.556 -2.7224  1.4259  3.9004
14875TIP3    H266117   6.661   2.741  14.558  1.2878 -1.7431 -2.8708
14876TIP3   OH266118   0.536   3.611  16.582 -0.2557  0.3965  0.2295
14876TIP3    H166119   0.527   3.584  16.674  1.6899 -0.1863  0.3018
14876TIP3    H266120   0.603   3.553  16.547 -0.0038  1.4981 -1.1953
14877TIP3   OH266121   2.417   0.803  13.609 -0.4949  0.1390 -0.1221
14877TIP3    H166122   2.329   0.785  13.641  0.2566 -0.0964  1.9752
14877TIP3    H266123   2.406   0.873  13.545 -2.6041 -2.3073 -2.6875
14878TIP3   OH266124   1.285   0.789  15.896  0.2471 -0.3596 -0.1951
14878TIP3    H166125   1.274   0.696  15.913  0.8185 -0.5149 -0.6606
14878TIP3    H266126   1.316   0.825  15.979 -0.9706 -0.3938  0.2976
14879TIP3   OH266127   5.083   2.708  13.747 -0.4967 -0.0076  0.1506
14879TIP3    H166128   4.997   2.673  13.770 -0.9390 -0.1677 -1.5983
14879TIP3    H266129   5.067   2.764  13.671  0.9077  0.1152 -0.0827
14880TIP3   OH266130   0.476   5.922   0.381 -0.2770  0.6493 -0.4961
14880TIP3    H166131   0.389   5.886   0.364 -0.0441  0.0094 -0.3723
14880TIP3    H266132   0.514   5.936   0.294  0.2433 -0.9496 -0.5491
14881TIP3   OH266133   5.047   6.832  15.350 -0.7729 -0.0124  0.1141
14881TIP3    H166134   5.123   6.808  15.404  0.1351  1.2104 -0.5601
14881TIP3    H266135   4.972   6.795  15.396  0.3875 -3.2845 -0.3632
14882TIP3   OH266136   3.914   2.111  14.868 -0.0456 -0.9095  0.5519
14882TIP3    H166137   3.904   2.202  14.895 -0.3929  0.3475 -3.2150
14882TIP3    H266138   4.008   2.100  14.857 -0.0714 -0.6685  0.0644
14883TIP3   OH266139   5.191   5.598  14.451  0.1304 -0.2070 -0.1785
14883TIP3    H166140   5.269   5.616  14.503 -0.0346  1.1335 -0.3386
14883TIP3    H266141   5.163   5.511  14.478  0.7038 -0.0133  1.1190
14884TIP3   OH266142   3.007   6.855   3.393  0.5309  0.3160  0.5391
14884TIP3    H166143   3.095   6.860   3.431 -0.3022  0.4636  2.5663
14884TIP3    H266144   3.014   6.899   3.308  2.3064  0.6832  0.8482
14885TIP3   OH266145   4.024   5.175  11.595  0.6438  0.1289  0.1583
14885TIP3    H166146   3.944   5.216  11.562  0.6605 -0.0389 -0.0944
14885TIP3    H266147   4.059   5.238  11.658  0.6328  0.4738 -0.1740
14886TIP3   OH266148   2.532   5.052   0.522  0.2149 -0.4221 -0.2188
14886TIP3    H166149   2.583   4.978   0.555  2.0969  1.6634  1.8533
14886TIP3    H266150   2.595   5.123   0.515 -1.6958  1.2447 -1.3597
14887TIP3   OH266151   3.710   5.818   4.013  0.2497 -0.4001  0.2900
14887TIP3    H166152   3.648   5.891   4.024  1.1725  0.5799 -0.7102
14887TIP3    H266153   3.787   5.858   3.972  1.2885 -1.7203  0.8778
14888TIP3   OH266154   1.663   0.464  13.921 -0.1700  0.2627 -0.0491
14888TIP3    H166155   1.668   0.548  13.875 -0.0687 -0.1134 -0.7372
14888TIP3    H266156   1.569   0.444  13.923 -0.2346  0.6186  0.5350
14889TIP3   OH266157   3.287   0.436   2.352 -0.1204 -0.6397  0.0926
14889TIP3    H166158   3.382   0.430   2.345  0.0951 -0.2493  2.1176
14889TIP3    H266159   3.262   0.503   2.288  1.1740  0.4931  0.7278
14890TIP3   OH266160   1.055   4.856   4.774 -0.3827  0.1732 -0.2694
14890TIP3    H166161   1.055   4.823   4.684  4.0053  0.1883 -0.5288
14890TIP3    H266162   1.043   4.778   4.828  0.0703 -0.3515 -0.9000
14891TIP3   OH266163   1.041   2.226  10.030 -0.5769  0.1075  0.4389
14891TIP3    H166164   1.003   2.144   9.997 -0.0420 -0.1347  0.3984
14891TIP3    H266165   1.121   2.236   9.978 -0.0459  0.0504  1.2313
14892TIP3   OH266166   2.232   6.559   0.244 -0.2008 -0.0969  0.0653
14892TIP3    H166167   2.281   6.486   0.282  0.4872  1.2624  1.9577
14892TIP3    H266168   2.140   6.539   0.264 -0.1348 -0.9635 -0.4368
14893TIP3   OH266169   5.415   4.893  15.193  0.0522  0.1306  0.2635
14893TIP3    H166170   5.508   4.890  15.215  0.3406  0.2896 -0.8634
14893TIP3    H266171   5.371   4.913  15.276  1.0094 -0.0144  0.8216
14894TIP3   OH266172   4.858   2.213   0.788  0.4271 -0.2900  0.5978
14894TIP3    H166173   4.898   2.298   0.810 -0.7211  0.1246  1.1925
14894TIP3    H266174   4.821   2.227   0.701 -1.7841  0.6269  1.6070
14895TIP3   OH266175   0.228   4.946   2.316  0.4664  0.1905 -0.1189
14895TIP3    H166176   0.213   4.998   2.238  1.9282  0.4614 -0.2592
14895TIP3    H266177   0.323   4.936   2.320  0.4493  0.2993  1.6937
14896TIP3   OH266178   1.694   1.761  14.408  0.8330  0.2400  0.2206
14896TIP3    H166179   1.774   1.760  14.461  1.6508 -0.3386 -0.9789
14896TIP3    H266180   1.661   1.671  14.413  1.0678  0.1140 -0.4721
14897TIP3   OH266181   1.615   2.802   5.156  0.4069 -0.5046 -0.4599
14897TIP3    H166182   1.525   2.785   5.126 -0.4615  0.4416  1.4580
14897TIP3    H266183   1.653   2.715   5.166 -0.1232 -0.9122 -1.7375
14898TIP3   OH266184   1.444   2.491   4.235  0.8912 -0.0489 -0.6903
14898TIP3    H166185   1.419   2.583   4.236 -2.7883 -0.8760  0.6171
14898TIP3    H266186   1.408   2.458   4.152  0.3817 -0.6873 -0.2221
14899TIP3   OH266187   6.803   0.850  14.470 -0.8849  0.2984 -0.1715
14899TIP3    H166188   6.808   0.945  14.463  2.1546  0.2178 -0.2153
14899TIP3    H266189   6.802   0.833  14.564 -2.9794  0.3378 -0.1329
14900TIP3   OH266190   0.556   5.537  16.197  0.3091  0.0174 -0.2108
14900TIP3    H166191   0.638   5.547  16.148  0.8799  0.7400  0.8465
14900TIP3    H266192   0.534   5.626  16.224 -0.3213 -0.2894  0.3031
14901TIP3   OH266193   6.230   2.709   2.576  0.0634  0.8490 -0.4738
14901TIP3    H166194   6.281   2.683   2.500  1.0825  0.7172  0.2426
14901TIP3    H266195   6.146   2.663   2.565  0.6786 -0.2222 -0.8409
14902TIP3   OH266196   2.544   0.244  12.277  0.4937  0.8635 -0.0773
14902TIP3    H166197   2.493   0.317  12.314  1.6838  1.4746  0.4111
14902TIP3    H266198   2.507   0.231  12.190  0.1163  1.9065 -0.0902
14903TIP3   OH266199   6.831   1.163   2.456 -0.1847  0.4016  0.0984
14903TIP3    H166200   6.833   1.159   2.551  1.1868  0.1800  0.0754
14903TIP3    H266201   6.821   1.257   2.436 -1.5519  0.3538  0.4378
14904TIP3   OH266202   0.354   2.826   4.245 -0.4225  0.0536  0.0120
14904TIP3    H166203   0.295   2.901   4.237  0.0724  0.2783 -2.9915
14904TIP3    H266204   0.442   2.865   4.246 -0.1199 -0.3900 -2.3530
14905TIP3   OH266205   3.671   6.376  15.654  0.9784 -0.3812  0.6409
14905TIP3    H166206   3.730   6.351  15.725  0.8698 -2.1978  0.1257
14905TIP3    H266207   3.673   6.302  15.594 -1.2150 -0.1537  0.2137
14906TIP3   OH266208   0.868   4.843   3.367 -0.0348  0.2012  0.3098
14906TIP3    H166209   0.924   4.853   3.444 -0.5253 -0.5004  0.7654
14906TIP3    H266210   0.918   4.885   3.296  1.3841 -0.9907  0.5537
14907TIP3   OH266211   3.108   0.899  12.005 -0.3985  0.1921 -0.0831
14907TIP3    H166212   3.166   0.857  12.069  1.8801  0.3719 -1.8771
14907TIP3    H266213   3.058   0.826  11.967  1.8813 -0.7346 -1.5586
14908TIP3   OH266214   6.078   0.702  16.040  0.1204 -0.1266 -0.4300
14908TIP3    H166215   6.072   0.686  16.134 -0.7797 -1.1603 -0.6383
14908TIP3    H266216   6.167   0.678  16.016  0.1645 -0.4532  0.0610
14909TIP3   OH266217   3.316   1.311  15.636 -0.7171  0.6623  0.0169
14909TIP3    H166218   3.339   1.285  15.725 -0.1536  0.4171 -0.1923
14909TIP3    H266219   3.292   1.229  15.592 -0.5758  0.7206 -0.1733
14910TIP3   OH266220   2.612   1.004   1.175  0.2435 -0.3239  0.0004
14910TIP3    H166221   2.624   0.975   1.085 -0.3075 -0.2347 -0.1089
14910TIP3    H266222   2.647   1.092   1.177  1.4653 -0.8002  0.2083
14911TIP3   OH266223   6.499   4.788  11.529 -0.2318  0.4006  0.4329
14911TIP3    H166224   6.570   4.724  11.524 -0.6274  0.0171 -1.0243
14911TIP3    H266225   6.497   4.816  11.620  1.7287  0.3684  0.5208
14912TIP3   OH266226   4.236   6.141   1.314  0.4941  0.5070 -0.2478
14912TIP3    H166227   4.258   6.142   1.407  0.6972 -1.5831 -0.2410
14912TIP3    H266228   4.320   6.126   1.270  0.3409  1.1009 -0.7637
14913TIP3   OH266229   0.273   0.028   1.799  0.0751  0.5004  0.3513
14913TIP3    H166230   0.189  -0.018   1.792 -0.7656  2.0230 -0.0535
14913TIP3    H266231   0.337  -0.041   1.814 -0.5403 -1.3273 -3.9781
14914TIP3   OH266232   6.618   2.295   1.305  0.3373 -0.5362 -0.9025
14914TIP3    H166233   6.661   2.233   1.365  0.8269  2.0770  1.6508
14914TIP3    H266234   6.528   2.300   1.336  0.5142  0.6077 -0.5183
14915TIP3   OH266235   5.451   2.635   0.006  0.0639 -0.3392  0.4356
14915TIP3    H166236   5.373   2.689  -0.007  0.2130 -0.1835  0.1793
14915TIP3    H266237   5.509   2.690   0.059 -0.1562 -0.6076  0.9732
14916TIP3   OH266238   4.198   3.121  12.942  0.3053  0.4805  0.3052
14916TIP3    H166239   4.141   3.192  12.913 -0.7818  0.5268  2.3218
14916TIP3    H266240   4.286   3.148  12.916  0.1622  3.4642  2.4270
14917TIP3   OH266241   2.750   2.868   4.497  0.6421  0.6727  0.2816
14917TIP3    H166242   2.766   2.815   4.419  0.4392 -1.2497  1.4688
14917TIP3    H266243   2.837   2.879   4.537  0.6170  0.7985  0.3021
14918TIP3   OH266244   6.513   0.709   4.735 -0.3499 -0.1319  0.1784
14918TIP3    H166245   6.558   0.644   4.681 -1.0666 -0.3928 -0.1219
14918TIP3    H266246   6.550   0.697   4.823  0.0427 -0.4475 -0.0250
14919TIP3   OH266247   0.336   2.075  12.045 -0.6626  0.6043  0.5887
14919TIP3    H166248   0.430   2.073  12.032 -0.8704  0.3573 -1.0183
14919TIP3    H266249   0.311   2.166  12.027 -0.9539  0.2649 -0.7842
14920TIP3   OH266250   4.982   2.535   2.666 -0.5007  0.6152  0.2756
14920TIP3    H166251   5.016   2.599   2.602 -0.0421  0.5052  0.4060
14920TIP3    H266252   5.013   2.450   2.634 -0.6823  0.5089  0.3798
14921TIP3   OH266253   3.653   4.754  13.246  0.3234  0.0732 -0.3095
14921TIP3    H166254   3.713   4.696  13.292  0.3619  0.8289  0.6171
14921TIP3    H266255   3.575   4.757  13.301  0.4431  1.1447 -0.1675
14922TIP3   OH266256   3.400   5.790   1.102  0.1872  0.4110  0.7698
14922TIP3    H166257   3.333   5.727   1.128  0.9611  0.7042  3.7959
14922TIP3    H266258   3.434   5.756   1.019 -2.2027 -0.8649  0.2246
14923TIP3   OH266259   0.294   3.618  14.631  0.4921  0.3335 -0.5602
14923TIP3    H166260   0.367   3.637  14.573  0.2255  1.0522 -0.6745
14923TIP3    H266261   0.311   3.670  14.710 -0.0383  0.7313 -0.7029
14924TIP3   OH266262   5.670   1.416   5.681 -0.3161  0.1887 -0.3156
14924TIP3    H166263   5.583   1.382   5.701 -0.3851  0.2496 -0.5059
14924TIP3    H266264   5.675   1.499   5.727  1.1993 -1.6718  3.2158
14925TIP3   OH266265   0.365   0.102  12.397  0.3430 -0.1839  0.4194
14925TIP3    H166266   0.293   0.098  12.334 -1.8205 -0.6120  2.7462
14925TIP3    H266267   0.382   0.011  12.420  1.8683 -0.1083 -0.2979
14926TIP3   OH266268   2.897   1.835  16.247  0.0214  0.7358  0.0001
14926TIP3    H166269   2.839   1.851  16.321 -0.5575 -1.6644  0.1596
14926TIP3    H266270   2.860   1.757  16.205  2.4610 -0.1739 -0.6059
14927TIP3   OH266271   4.655   0.711  13.989  0.5939  0.0440 -0.0799
14927TIP3    H166272   4.674   0.617  13.991  0.7461  0.0520 -0.9254
14927TIP3    H266273   4.741   0.752  13.980  0.5791  0.3014  0.8215
14928TIP3   OH266274   2.596   5.928   1.903  0.3129  0.3838 -0.3131
14928TIP3    H166275   2.530   5.859   1.895  0.4632  0.2633 -0.5470
14928TIP3    H266276   2.546   6.010   1.898  0.0925  0.2961  0.3542
14929TIP3   OH266277   2.269   2.527   0.108  0.3208  0.0162  0.4497
14929TIP3    H166278   2.225   2.608   0.080 -0.3326  0.3169  2.1763
14929TIP3    H266279   2.340   2.515   0.045 -0.6449  0.9624 -0.8840
14930TIP3   OH266280   0.214   3.932   4.153 -0.4176  0.6528 -0.0918
14930TIP3    H166281   0.150   3.935   4.225 -2.0843 -0.7880 -1.4219
14930TIP3    H266282   0.215   4.021   4.119 -0.9891  0.9236  0.5688
14931TIP3   OH266283   3.453   4.145   1.215 -0.0201 -0.1795  0.0693
14931TIP3    H166284   3.547   4.162   1.218 -0.0597 -0.0496  1.2289
14931TIP3    H266285   3.419   4.210   1.153  0.5990  0.0220 -0.0722
14932TIP3   OH266286   1.687   2.492   1.718 -0.2404  0.4378 -0.9490
14932TIP3    H166287   1.679   2.404   1.681  1.1431 -0.3446  0.4353
14932TIP3    H266288   1.739   2.541   1.654 -2.3139  0.7666 -2.4583
14933TIP3   OH266289   6.436   3.364   3.262 -0.4649 -0.1832 -0.4115
14933TIP3    H166290   6.521   3.319   3.266  1.0705  2.4974  0.1864
14933TIP3    H266291   6.436   3.407   3.176 -0.2691  1.3699  0.3180
14934TIP3   OH266292   2.241   1.314  13.589 -0.0954  0.2904  0.2185
14934TIP3    H166293   2.270   1.296  13.499 -0.9662  0.1500 -0.0383
14934TIP3    H266294   2.249   1.229  13.634  1.5099  0.6224  0.6207
14935TIP3   OH266295   2.621   6.713   0.662 -0.1969  0.7639  0.2703
14935TIP3    H166296   2.592   6.701   0.753 -0.4692  1.4488  0.2740
14935TIP3    H266297   2.584   6.638   0.616  2.0090 -1.0151  1.1709
14936TIP3   OH266298   2.218   3.893   0.530 -0.3884  0.2289 -0.1768
14936TIP3    H166299   2.131   3.904   0.493 -0.7708 -1.7062  0.0452
14936TIP3    H266300   2.238   3.800   0.518  1.4537  0.5248  0.2038
14937TIP3   OH266301   0.087   4.278   3.847  0.2909 -0.7016 -0.1053
14937TIP3    H166302   0.051   4.211   3.906 -1.1345  1.1334  1.2360
14937TIP3    H266303   0.180   4.283   3.869  0.2917 -1.7874  0.1905
14938TIP3   OH266304   3.804   3.322  15.378 -0.0891 -0.5357  0.5141
14938TIP3    H166305   3.790   3.395  15.318 -1.0645 -0.6649  0.5699
14938TIP3    H266306   3.883   3.279  15.346  0.1095  0.1454  0.0783
14939TIP3   OH266307   1.663   6.864  11.436 -0.7737  0.3832 -0.2814
14939TIP3    H166308   1.649   6.776  11.472 -0.0901  0.8066  1.1176
14939TIP3    H266309   1.626   6.860  11.348  0.8952 -1.8681 -0.9974
14940TIP3   OH266310   0.756   2.409   2.512  0.3483 -0.0272  0.0926
14940TIP3    H166311   0.844   2.446   2.506  0.3996 -0.0104  0.7676
14940TIP3    H266312   0.759   2.352   2.589  0.2442 -1.4071 -0.8858
14941TIP3   OH266313   6.237   3.475  12.946  0.5149  0.2475 -0.2679
14941TIP3    H166314   6.295   3.548  12.965  2.9124 -1.6641  0.3232
14941TIP3    H266315   6.224   3.431  13.030  1.9824 -1.8823 -1.0477
14942TIP3   OH266316   2.951   0.178  12.739  0.7751 -0.1480 -0.3964
14942TIP3    H166317   2.859   0.165  12.719  0.6427  1.3227 -0.8941
14942TIP3    H266318   2.993   0.096  12.716 -0.3050 -0.5962 -0.8297
14943TIP3   OH266319   5.340   0.289   4.898  0.3921  0.6725  0.0269
14943TIP3    H166320   5.385   0.324   4.976  1.1053 -0.0349 -0.0570
14943TIP3    H266321   5.292   0.364   4.863  0.5065  1.1389  0.8359
14944TIP3   OH266322   3.762   6.433  13.973  0.6882 -0.3085 -0.2683
14944TIP3    H166323   3.809   6.496  13.918  2.0153 -0.9118  0.1431
14944TIP3    H266324   3.751   6.477  14.057  0.5332 -0.1846 -0.3514
14945TIP3   OH266325   4.932   2.900  12.946  0.9713 -0.0972  0.0331
14945TIP3    H166326   4.995   2.844  12.900 -0.1071 -0.8079 -0.6277
14945TIP3    H266327   4.895   2.955  12.876  0.6925  0.1517  0.3757
14946TIP3   OH266328   3.107   5.969   4.003 -0.3342 -0.2289  0.3725
14946TIP3    H166329   3.164   6.010   3.938 -2.5288  1.3921 -0.6811
14946TIP3    H266330   3.073   6.043   4.054 -2.2276 -1.0123  0.3082
14947TIP3   OH266331   5.592   5.945  16.842  0.2084  0.2084 -0.4341
14947TIP3    H166332   5.631   6.032  16.829  0.1222  0.2114 -0.6821
14947TIP3    H266333   5.597   5.904  16.756 -1.7914  0.8098 -0.9003
14948TIP3   OH266334   3.864   6.467   4.285  0.5799  0.6032  0.0530
14948TIP3    H166335   3.850   6.424   4.370  1.8331  0.0563  0.0143
14948TIP3    H266336   3.813   6.415   4.223  1.0628 -0.0781  0.2131
14949TIP3   OH266337   3.278   4.175   0.973 -0.0434 -0.2435  0.1861
14949TIP3    H166338   3.258   4.122   1.051 -0.0974 -0.5174 -0.0120
14949TIP3    H266339   3.194   4.183   0.928 -0.0400  0.0345  0.2293
14950TIP3   OH266340   2.241   3.997  16.635  0.3384 -0.2398  0.6108
14950TIP3    H166341   2.269   4.068  16.577  0.5262 -0.8890 -0.1193
14950TIP3    H266342   2.301   3.925  16.615 -1.3250 -1.4154 -0.4220
14951TIP3   OH266343   3.660   2.438  15.555  0.8439 -0.1361 -0.6848
14951TIP3    H166344   3.723   2.389  15.607  0.3814  0.8076  0.8176
14951TIP3    H266345   3.576   2.421  15.597  0.1589 -0.7576 -2.1975
14952TIP3   OH266346   5.712   2.494  12.929 -0.0754  0.1246 -0.4725
14952TIP3    H166347   5.674   2.411  12.902  0.0253  0.3480 -1.3290
14952TIP3    H266348   5.786   2.470  12.984 -0.9352 -0.3243  0.5453
14953TIP3   OH266349   5.293   0.807  12.859 -0.0604  0.2247  0.2671
14953TIP3    H166350   5.277   0.874  12.793  2.2898  1.1726  0.5544
14953TIP3    H266351   5.250   0.728  12.826 -1.6814  1.4932 -0.7649
14954TIP3   OH266352   5.794   1.101   3.298  0.2864  0.2570 -0.0624
14954TIP3    H166353   5.783   1.196   3.297 -2.9378  0.0099 -1.2192
14954TIP3    H266354   5.747   1.072   3.376 -1.2784 -0.5183 -1.2355
14955TIP3   OH266355   5.009   6.280   3.438  0.6317  0.7383 -0.3804
14955TIP3    H166356   4.927   6.286   3.488 -0.0736  0.2965 -1.4606
14955TIP3    H266357   5.058   6.358   3.464 -0.0663  0.9396  0.3936
14956TIP3   OH266358   2.609   1.321  12.826  0.2441  0.1235  0.0159
14956TIP3    H166359   2.642   1.259  12.761  0.6410  0.4308 -0.0853
14956TIP3    H266360   2.530   1.280  12.861  0.4771 -0.4170 -0.0773
14957TIP3   OH266361   6.206   2.056   3.392 -0.0443  0.4713  0.3637
14957TIP3    H166362   6.148   2.115   3.441  0.6514  1.3719  0.1501
14957TIP3    H266363   6.287   2.056   3.443 -0.4474 -1.4156  1.1029
14958TIP3   OH266364   1.437   5.510   0.232  0.2429 -0.2291 -0.1174
14958TIP3    H166365   1.352   5.483   0.265  0.9030 -0.8385  1.1657
14958TIP3    H266366   1.444   5.603   0.255  0.4823 -0.5220  1.0466
14959TIP3   OH266367   5.888   6.598   5.427 -0.2795  0.1323  0.1224
14959TIP3    H166368   5.923   6.598   5.517 -2.4782 -1.4653  1.0613
14959TIP3    H266369   5.946   6.539   5.379  2.9657  3.4362 -0.5549
14960TIP3   OH266370   0.102   2.845   1.770  0.1111 -0.0659  0.2836
14960TIP3    H166371   0.123   2.838   1.863  1.2711 -1.7452 -0.0565
14960TIP3    H266372   0.007   2.856   1.767 -0.2327 -2.0939  1.6277
14961TIP3   OH266373   4.387   2.186  11.367  0.2879  0.2461 -0.4729
14961TIP3    H166374   4.441   2.221  11.438  1.3148  1.1554 -1.6562
14961TIP3    H266375   4.307   2.157  11.410  0.7745  1.0104  1.0210
14962TIP3   OH266376   2.852   4.263   2.909  0.2617 -0.2801 -0.4034
14962TIP3    H166377   2.769   4.311   2.900 -0.8465 -1.8037  0.9550
14962TIP3    H266378   2.871   4.232   2.821 -0.5576  0.1645 -0.7538
14963TIP3   OH266379   1.341   6.803   3.578  0.8101 -0.0821 -0.0724
14963TIP3    H166380   1.427   6.795   3.618  0.3366 -0.4198  0.9292
14963TIP3    H266381   1.291   6.728   3.613  0.0734  0.1852 -0.5206
14964TIP3   OH266382   2.999   0.796   5.062 -0.3353 -0.4775  0.6074
14964TIP3    H166383   3.094   0.800   5.068 -0.3392 -0.3360  0.5910
14964TIP3    H266384   2.982   0.773   4.970 -0.3367  0.8513  0.2522
14965TIP3   OH266385   4.635   0.231   4.241 -0.1258  0.3666  0.2376
14965TIP3    H166386   4.652   0.274   4.157 -0.2019 -0.6002 -0.2856
14965TIP3    H266387   4.709   0.257   4.296  1.2856 -0.9753 -0.9169
14966TIP3   OH266388   0.873   1.943  13.569  0.5592 -0.3076 -0.4101
14966TIP3    H166389   0.935   1.870  13.564 -0.7503 -1.7456  2.3945
14966TIP3    H266390   0.891   1.984  13.654 -2.2295 -0.7778  0.5157
14967TIP3   OH266391   3.006   4.773   5.484  0.1989 -0.4541 -0.4800
14967TIP3    H166392   3.057   4.699   5.450 -0.0146 -0.7746 -0.1223
14967TIP3    H266393   2.918   4.761   5.446  0.6888  0.8195 -2.1427
14968TIP3   OH266394   2.243   0.384  11.896 -0.7232  0.0133 -0.1299
14968TIP3    H166395   2.174   0.392  11.962 -1.6818 -1.3327 -0.9307
14968TIP3    H266396   2.219   0.446  11.828 -0.6935  0.1239 -0.0412
14969TIP3   OH266397   1.385   6.569   5.333 -0.1129 -0.6323  0.0322
14969TIP3    H166398   1.408   6.500   5.271 -0.2877 -0.8679  0.2266
14969TIP3    H266399   1.349   6.523   5.409 -1.2233 -0.2788 -0.2586
14970TIP3   OH266400   0.497   0.342   1.516  0.2311 -0.1572  0.7008
14970TIP3    H166401   0.456   0.329   1.601  0.8600 -0.7591  0.9223
14970TIP3    H266402   0.426   0.334   1.453 -0.1536 -0.2096  1.1349
14971TIP3   OH266403   5.370   1.710  13.065 -0.3264  0.7457 -0.5603
14971TIP3    H166404   5.338   1.716  12.974 -3.0519  2.2040  0.3701
14971TIP3    H266405   5.405   1.798  13.083 -0.7933  0.8068  0.0945
14972TIP3   OH266406   2.686   4.821  12.139 -0.1993 -0.1375  0.2269
14972TIP3    H166407   2.727   4.891  12.088  1.0948 -0.4681  0.7893
14972TIP3    H266408   2.609   4.796  12.087 -1.1467  2.2079  0.3960
14973TIP3   OH266409   1.888   1.802  14.608  0.0814  0.7908  0.7600
14973TIP3    H166410   1.828   1.803  14.682 -1.9428 -1.4860 -0.6812
14973TIP3    H266411   1.966   1.846  14.640 -0.4509 -0.5618  4.4111
14974TIP3   OH266412   0.526   4.371  13.350  0.2078 -0.3564  0.5858
14974TIP3    H166413   0.495   4.453  13.389  0.4648 -0.9782  2.1793
14974TIP3    H266414   0.448   4.315  13.347  0.3870 -0.6330  1.0810
14975TIP3   OH266415   4.338   6.057   3.762  0.1005 -0.4976 -0.0348
14975TIP3    H166416   4.323   6.103   3.845  0.0426 -1.0852  0.2863
14975TIP3    H266417   4.405   6.109   3.718  2.0492 -1.5594  1.5195
14976TIP3   OH266418   5.114   0.159  12.830 -0.1326 -0.4655 -0.3877
14976TIP3    H166419   5.161   0.242  12.839 -0.1368 -0.6204  1.3567
14976TIP3    H266420   5.183   0.092  12.834 -0.1186 -0.5797 -1.8788
14977TIP3   OH266421   6.518   1.086   1.929 -0.6693  0.3496 -0.4817
14977TIP3    H166422   6.500   1.010   1.985 -2.0561  0.1446 -1.1588
14977TIP3    H266423   6.613   1.095   1.931 -0.5807 -0.5106  0.7691
14978TIP3   OH266424   3.654   5.611   2.049  0.2278 -0.5772 -0.0971
14978TIP3    H166425   3.567   5.625   2.085  0.2467  1.6764 -0.7646
14978TIP3    H266426   3.712   5.661   2.106  0.7513 -0.1174 -1.0085
14979TIP3   OH266427   2.009   0.666  15.677  0.2919  0.0570  1.0589
14979TIP3    H166428   2.057   0.743  15.708 -1.7420  2.2720 -0.8745
14979TIP3    H266429   1.925   0.701  15.647 -1.1339 -3.1049  0.9920
14980TIP3   OH266430   0.645   4.893   0.714 -0.4321  0.1465 -0.0618
14980TIP3    H166431   0.610   4.812   0.676  0.2637 -0.2494  0.1138
14980TIP3    H266432   0.721   4.864   0.765  0.3150  1.0074 -0.6514
14981TIP3   OH266433   0.150   1.454   0.756  0.3393  0.1081  0.2561
14981TIP3    H166434   0.082   1.517   0.779 -0.0146  0.5773 -1.8300
14981TIP3    H266435   0.110   1.369   0.770  0.0822  0.3579  1.0817
14982TIP3   OH266436   1.979   2.290  12.579 -0.5620  0.8533 -0.0903
14982TIP3    H166437   1.984   2.195  12.565 -1.9868  0.7807 -0.2133
14982TIP3    H266438   2.027   2.328  12.505  2.1162  0.2248  1.1821
14983TIP3   OH266439   3.632   0.181  10.972 -0.0706  0.3936 -0.0833
14983TIP3    H166440   3.702   0.191  10.907  0.8880 -0.4499  0.7962
14983TIP3    H266441   3.611   0.088  10.971 -1.1709  0.6319 -0.3060
14984TIP3   OH266442   3.254   5.022   1.930  0.2204 -0.1004 -0.4489
14984TIP3    H166443   3.217   5.099   1.889  0.0654  1.3797  2.2292
14984TIP3    H266444   3.298   4.975   1.860 -0.2425  2.0738 -2.2741
14985TIP3   OH266445   2.748   6.806  14.750  0.3053  0.3843 -0.8033
14985TIP3    H166446   2.656   6.832  14.753  0.1923 -0.0628  0.6683
14985TIP3    H266447   2.796   6.883  14.780  0.2372  0.0121  0.3070
14986TIP3   OH266448   2.948   5.705  16.328 -0.8982 -0.2672 -0.1159
14986TIP3    H166449   2.946   5.778  16.389  0.7400 -0.0829 -0.2417
14986TIP3    H266450   2.899   5.736  16.252 -1.4469  0.1508  0.4017
14987TIP3   OH266451   4.392   4.246  12.673  0.0662  0.4853 -0.5902
14987TIP3    H166452   4.481   4.273  12.649 -0.1766  0.6840 -1.2812
14987TIP3    H266453   4.393   4.245  12.768  1.4767 -1.6760 -0.5501
14988TIP3   OH266454   5.763   0.305  14.333 -0.5596 -0.2767 -0.1155
14988TIP3    H166455   5.804   0.323  14.417 -0.6312  0.6186 -0.2564
14988TIP3    H266456   5.829   0.331  14.268 -1.2708  1.0590 -0.3402
14989TIP3   OH266457   2.628   3.568   0.916 -0.5450  0.0962 -0.0144
14989TIP3    H166458   2.653   3.609   0.833  0.1715  0.9454  0.6142
14989TIP3    H266459   2.568   3.630   0.957 -2.1596 -1.0103 -0.5718
14990TIP3   OH266460   1.935   2.633  15.957  0.3248 -0.3676  0.1193
14990TIP3    H166461   1.937   2.666  15.868  0.1607 -1.1131 -0.1714
14990TIP3    H266462   1.957   2.540  15.949  1.6597 -0.1621  1.0073
14991TIP3   OH266463   0.013   0.296  11.520  0.5997  0.4145 -0.1080
14991TIP3    H166464   0.005   0.232  11.449  1.6100 -0.1236  0.2488
14991TIP3    H266465  -0.069   0.346  11.516 -0.3790 -1.1187 -0.1797
14992TIP3   OH266466   0.498   4.901  12.767  0.0461  0.0189 -0.5582
14992TIP3    H166467   0.516   4.873  12.857  1.4025  1.6295 -0.2825
14992TIP3    H266468   0.492   4.819  12.717 -2.0258 -0.9994  1.1606
14993TIP3   OH266469   1.819   5.341  11.226  0.0817  0.4999 -0.3428
14993TIP3    H166470   1.805   5.272  11.292 -0.1740  1.5116  0.6846
14993TIP3    H266471   1.784   5.303  11.145 -2.0882  0.2274  0.6506
14994TIP3   OH266472   4.377   4.700   3.934 -0.0226 -0.1543  0.5565
14994TIP3    H166473   4.348   4.620   3.889 -0.5271  0.7519 -0.7967
14994TIP3    H266474   4.353   4.771   3.874 -1.7797  1.2449  2.7681
14995TIP3   OH266475   0.712   0.925  12.778  0.2356  0.1796 -0.4138
14995TIP3    H166476   0.732   0.997  12.838 -1.1075 -0.1835  0.5069
14995TIP3    H266477   0.714   0.964  12.691  1.6308  0.8481 -0.1037
14996TIP3   OH266478   5.989   2.486  13.059  0.0050  0.3852 -0.0686
14996TIP3    H166479   6.020   2.409  13.011 -0.1325 -0.1463  0.6688
14996TIP3    H266480   5.971   2.453  13.147 -0.8130  1.0992  0.0418
14997TIP3   OH266481   0.360   3.399  11.255 -0.4230  0.2692 -0.1601
14997TIP3    H166482   0.290   3.339  11.228 -0.6838  0.7549 -0.5835
14997TIP3    H266483   0.427   3.388  11.187 -0.6878  0.8232 -0.5145
14998TIP3   OH266484   5.918   4.311   0.880  0.4339 -0.4642  0.1430
14998TIP3    H166485   5.891   4.252   0.951 -1.0352 -0.2143 -0.1866
14998TIP3    H266486   6.008   4.334   0.902  0.5106 -1.5802  1.1227
14999TIP3   OH266487   3.549   0.002   3.793  0.3605 -0.8486  0.7847
14999TIP3    H166488   3.520   0.064   3.727 -0.2538 -1.1034  0.8034
14999TIP3    H266489   3.468  -0.033   3.830  0.6980 -1.4485  0.9712
15000TIP3   OH266490   3.716   6.138  15.469  0.7554  0.4924  0.0192
15000TIP3    H166491   3.644   6.137  15.407 -0.5555 -0.6789  1.4946
15000TIP3    H266492   3.755   6.051  15.462 -0.3929 -0.2325  1.8679
15001TIP3   OH266493   5.911   1.472   3.252 -0.2980  0.3877  0.7252
15001TIP3    H166494   5.970   1.397   3.250 -0.5931  0.1638  0.0185
15001TIP3    H266495   5.828   1.437   3.284 -0.2557  0.5478  1.0119
15002TIP3   OH266496   6.828   1.560   0.355 -0.2375  0.3430  0.0586
15002TIP3    H166497   6.873   1.476   0.356  0.7607  0.8723  0.1643
15002TIP3    H266498   6.799   1.571   0.264 -0.2624 -0.0490  0.0179
15003TIP3   OH266499   1.596   4.685  16.486 -0.3235  0.1712  0.5927
15003TIP3    H166500   1.661   4.746  16.520  1.0325 -0.6533 -0.4356
15003TIP3    H266501   1.563   4.726  16.406 -1.7263  0.9729  1.5364
15004TIP3   OH266502   4.336   5.060  13.703  0.4017  0.5001 -0.3987
15004TIP3    H166503   4.375   5.129  13.756  0.7003  1.0609 -1.3260
15004TIP3    H266504   4.251   5.042  13.744  0.5475  1.0556  0.1428
15005TIP3   OH266505   4.837   3.435  12.387  0.0079  0.2877 -0.6133
15005TIP3    H166506   4.912   3.486  12.356 -0.3222  0.7635 -0.6280
15005TIP3    H266507   4.832   3.362  12.325  0.3299  0.3647 -0.7371
15006TIP3   OH266508   6.027   6.141   1.743 -0.1974 -0.4422  0.2031
15006TIP3    H166509   6.048   6.070   1.682  2.1942  0.2260  0.1706
15006TIP3    H266510   6.101   6.145   1.803 -1.2176  0.7327  1.4623
15007TIP3   OH266511   0.678   3.434  12.121 -0.4540 -0.2966  0.2800
15007TIP3    H166512   0.583   3.438  12.128 -0.5480 -2.2208  0.5814
15007TIP3    H266513   0.709   3.509  12.172 -1.8065  1.5006 -1.3948
15008TIP3   OH266514   2.895   0.840  13.394  0.1609  0.0450 -0.5487
15008TIP3    H166515   2.912   0.894  13.471  1.1659  1.3243 -1.6227
15008TIP3    H266516   2.888   0.902  13.321 -0.5214 -1.1453 -1.5423
15009TIP3   OH266517   0.362   5.909  11.895  0.4921  0.0253  0.4231
15009TIP3    H166518   0.340   5.823  11.858  0.1828  0.1203  0.3818
15009TIP3    H266519   0.312   5.913  11.976  1.3870 -0.2962  0.9999
15010TIP3   OH266520   3.049   1.358   0.759 -0.4291  0.4068 -0.3446
15010TIP3    H166521   3.091   1.277   0.786 -0.5758  0.5696  0.4025
15010TIP3    H266522   3.017   1.341   0.670 -1.0604 -0.5810  0.0562
15011TIP3   OH266523   5.089   3.549  15.914  0.1140 -0.6989  0.1908
15011TIP3    H166524   5.094   3.601  15.834 -1.3305  1.7928  1.6130
15011TIP3    H266525   5.155   3.586  15.972 -0.6509 -0.7093  1.0918
15012TIP3   OH266526   1.202   4.179  13.396 -0.1519 -0.6405  0.0115
15012TIP3    H166527   1.225   4.086  13.392 -0.1532 -0.6237 -0.4040
15012TIP3    H266528   1.279   4.224  13.361  0.4807 -0.3825  1.6544
15013TIP3   OH266529   4.332   6.873   3.406 -0.9422 -0.4868 -0.2187
15013TIP3    H166530   4.413   6.824   3.419 -0.1197  0.9794  0.3522
15013TIP3    H266531   4.302   6.895   3.495 -1.4603 -0.2160 -0.4543
15014TIP3   OH266532   5.664   3.786   0.452  0.3297  0.0743  0.5285
15014TIP3    H166533   5.654   3.757   0.542 -1.2918 -0.0432  0.3462
15014TIP3    H266534   5.633   3.711   0.400  0.4745  0.4449 -0.1005
15015TIP3   OH266535   2.999   4.767   0.879 -0.2141  0.6737  0.1771
15015TIP3    H166536   3.067   4.774   0.812 -0.3666  0.7549  0.0296
15015TIP3    H266537   2.964   4.678   0.867 -1.1481  1.1435 -0.7352
15016TIP3   OH266538   6.807   5.922  14.045 -0.3875  0.1044 -0.3600
15016TIP3    H166539   6.884   5.890  14.091 -0.4771  0.2973 -0.0791
15016TIP3    H266540   6.758   5.971  14.110 -0.3253  0.6935 -0.7492
15017TIP3   OH266541   5.649   2.601  11.512  0.4054  0.6614 -0.2428
15017TIP3    H166542   5.713   2.537  11.478 -1.3099 -1.1500 -0.2598
15017TIP3    H266543   5.643   2.667  11.444  2.1864  0.8379 -0.2719
15018TIP3   OH266544   4.317   6.849  12.118 -0.1910  0.0600 -0.8355
15018TIP3    H166545   4.330   6.895  12.201 -0.0696 -1.9904  0.3487
15018TIP3    H266546   4.388   6.880  12.062  1.5895 -0.7478  0.8795
15019TIP3   OH266547   4.973   4.163  13.297  0.3991  0.3364 -0.5034
15019TIP3    H166548   4.888   4.186  13.259 -0.7655 -1.7233  0.6654
15019TIP3    H266549   4.992   4.076  13.263  0.4451 -0.5892  1.6998
15020TIP3   OH266550   1.624   6.519  11.590  0.1420  0.3546  0.1588
15020TIP3    H166551   1.656   6.433  11.565 -2.2763 -0.1611 -1.4905
15020TIP3    H266552   1.581   6.552  11.511  0.4945  2.8558  0.9267
15021TIP3   OH266553   1.461   4.268   0.716 -0.0165  0.2480 -0.0500
15021TIP3    H166554   1.437   4.359   0.698  0.9470  0.2686 -1.3659
15021TIP3    H266555   1.498   4.236   0.634 -2.0685 -1.9583 -0.2359
15022TIP3   OH266556   1.953   6.335  13.229 -0.0775  0.4873 -0.3945
15022TIP3    H166557   1.869   6.302  13.263 -0.2913  0.9724 -0.4358
15022TIP3    H266558   2.019   6.292  13.282 -0.3866  0.7517  0.2247
15023TIP3   OH266559   2.483   4.037  11.295  0.1747 -0.6365 -0.4612
15023TIP3    H166560   2.455   3.946  11.292 -2.2556 -0.0841  2.0002
15023TIP3    H266561   2.548   4.040  11.366 -0.9047 -0.2316  0.5372
15024TIP3   OH266562   2.207   4.209   2.413  0.0344 -0.5173 -0.0883
15024TIP3    H166563   2.122   4.204   2.457 -0.8590 -0.3122 -1.6934
15024TIP3    H266564   2.215   4.301   2.387  0.7325 -0.5466  0.0107
15025TIP3   OH266565   3.472   6.726   4.799 -0.1834 -0.0172  0.0086
15025TIP3    H166566   3.546   6.711   4.741  0.5671  1.3784  0.5460
15025TIP3    H266567   3.422   6.796   4.757 -1.4332 -1.1944 -0.5349
15026TIP3   OH266568   4.056   3.592   0.853 -1.2617  0.1422  0.0270
15026TIP3    H166569   4.013   3.659   0.906 -1.4847  0.0247 -0.0048
15026TIP3    H266570   3.990   3.523   0.843 -0.0389 -1.5818  2.7235
15027TIP3   OH266571   5.284   4.840  10.325  0.0502 -0.0401  0.2265
15027TIP3    H166572   5.194   4.852  10.296 -1.0700 -0.6508  3.1438
15027TIP3    H266573   5.309   4.754  10.292 -0.7980 -0.2989  0.2360
15028TIP3   OH266574   0.171   4.675  16.232 -0.3893 -0.8289 -0.7565
15028TIP3    H166575   0.172   4.579  16.224 -0.2332 -0.8317 -0.7073
15028TIP3    H266576   0.192   4.706  16.144  1.0694 -0.8568 -0.4554
15029TIP3   OH266577   3.172   4.535   2.191  0.0496 -0.3530  0.0988
15029TIP3    H166578   3.228   4.475   2.142  0.5706 -1.5563  2.0497
15029TIP3    H266579   3.181   4.619   2.146  1.8693 -0.9715 -0.7917
15030TIP3   OH266580   3.673   2.823  14.308 -0.6390 -1.0643 -0.4737
15030TIP3    H166581   3.600   2.779  14.352 -0.3167 -1.2985 -0.1602
15030TIP3    H266582   3.641   2.911  14.291 -0.2424 -0.4379  1.6876
15031TIP3   OH266583   2.735   6.414  16.154  0.0614 -0.2707  0.3410
15031TIP3    H166584   2.706   6.465  16.078  0.4284  1.7839  1.5079
15031TIP3    H266585   2.688   6.331  16.146  0.7806 -0.5300 -2.6064
15032TIP3   OH266586   5.496   2.538   0.919  0.4266  0.1946  0.2731
15032TIP3    H166587   5.487   2.618   0.972  0.8638  0.8028 -0.5420
15032TIP3    H266588   5.555   2.482   0.970 -1.4917 -0.5129  1.8514
15033TIP3   OH266589   5.338   5.649  12.283  0.1141  0.1937 -0.7503
15033TIP3    H166590   5.271   5.584  12.260 -0.4624 -0.5902  2.6610
15033TIP3    H266591   5.290   5.721  12.322  1.1391  0.1170  0.7282
15034TIP3   OH266592   0.989   5.810   3.444 -0.0592  0.0235 -0.0766
15034TIP3    H166593   0.937   5.871   3.496 -0.6575 -1.5363  1.2465
15034TIP3    H266594   1.063   5.788   3.501  0.8334  0.4414 -1.0355
15035TIP3   OH266595   1.013   6.419   3.340  0.1387 -0.1253  0.4573
15035TIP3    H166596   1.048   6.375   3.418 -0.6762 -1.4274  0.1171
15035TIP3    H266597   0.953   6.356   3.302 -0.3935  0.9643 -0.5714
15036TIP3   OH266598   6.664   2.126  15.227 -0.4422  0.3194  0.6607
15036TIP3    H166599   6.663   2.036  15.261 -0.0943 -0.8782 -2.1932
15036TIP3    H266600   6.751   2.136  15.189 -1.8116  0.1737 -2.9122
15037TIP3   OH266601   1.098   4.234  12.075  0.2094 -0.4967 -0.2079
15037TIP3    H166602   1.041   4.288  12.130  1.0102 -0.7772  0.9375
15037TIP3    H266603   1.065   4.246  11.986 -2.8612 -2.1412  0.5764
15038TIP3   OH266604   3.649   0.037  15.762  0.4756  0.1806  0.2461
15038TIP3    H166605   3.580   0.011  15.824 -0.3407 -0.0960 -0.7541
15038TIP3    H266606   3.697   0.106  15.808 -1.4810  1.5394  0.3635
15039TIP3   OH266607   6.570   3.107   3.056 -0.9701 -0.9365 -0.1031
15039TIP3    H166608   6.548   3.183   3.003  1.3825  0.0558  0.2530
15039TIP3    H266609   6.556   3.032   2.997 -2.9202 -0.2693 -0.5763
15040TIP3   OH266610   4.957   4.361  10.835  0.7822  0.1221  0.1681
15040TIP3    H166611   4.904   4.361  10.755  1.8060  0.0057 -0.5331
15040TIP3    H266612   4.974   4.268  10.852 -2.1400 -0.1095  2.4170
15041TIP3   OH266613   2.259   4.495  12.223 -0.0371  0.3000 -0.1469
15041TIP3    H166614   2.175   4.475  12.266  0.0956 -0.0617 -0.0520
15041TIP3    H266615   2.325   4.452  12.278  0.2492  0.9196 -0.0001
15042TIP3   OH266616   2.534   5.368  11.441  0.5450 -0.3891 -0.2811
15042TIP3    H166617   2.442   5.352  11.463  0.1935  0.5241 -0.9993
15042TIP3    H266618   2.554   5.301  11.375  0.3659 -0.5191 -0.2070
15043TIP3   OH266619   2.452   5.803  14.332  0.4523  0.0415 -0.5680
15043TIP3    H166620   2.398   5.804  14.411  1.3835 -0.8576  0.1046
15043TIP3    H266621   2.424   5.880  14.283 -1.4610 -0.4208 -0.2715
15044TIP3   OH266622   3.721   1.619   2.212  0.5089 -0.7703  0.1456
15044TIP3    H166623   3.647   1.657   2.164 -1.1145 -2.2412  1.3707
15044TIP3    H266624   3.716   1.525   2.195  1.7146 -0.9782  0.7969
15045TIP3   OH266625   4.339   2.905  14.665  0.2367 -0.2194  0.4290
15045TIP3    H166626   4.344   2.999  14.647 -0.9006  0.0604  1.4753
15045TIP3    H266627   4.388   2.864  14.593  0.0334  1.1139 -0.4964
15046TIP3   OH266628   3.003   4.030   5.057 -0.0873 -0.3525  0.0411
15046TIP3    H166629   2.911   4.012   5.075 -0.6290  1.7350 -0.4496
15046TIP3    H266630   3.025   3.969   4.986 -0.5526 -2.0794  1.3078
15047TIP3   OH266631   1.441   4.180   3.679 -0.5417  0.1799 -0.1038
15047TIP3    H166632   1.369   4.221   3.630  0.4583 -0.7500 -2.5146
15047TIP3    H266633   1.411   4.181   3.770 -1.8341  3.4430 -0.4327
15048TIP3   OH266634   2.299   5.263   2.324 -0.3040  0.5602 -0.3371
15048TIP3    H166635   2.244   5.219   2.389  0.2138  0.5713  0.1142
15048TIP3    H266636   2.380   5.283   2.370  0.3407 -0.0425 -1.1829
15049TIP3   OH266637   2.180   0.829  15.812 -0.0808  0.2137 -0.1862
15049TIP3    H166638   2.267   0.789  15.820 -0.8072 -1.2933  0.7138
15049TIP3    H266639   2.184   0.906  15.869  0.2975 -0.5566  0.8669
15050TIP3   OH266640   1.730   2.403   2.168 -0.0388 -0.0137  0.2814
15050TIP3    H166641   1.822   2.375   2.166  0.2353  0.8495  0.3498
15050TIP3    H266642   1.722   2.451   2.251 -0.2354  0.9223 -0.2612
15051TIP3   OH266643   4.133   0.836   0.535  0.3419  0.0273 -0.8761
15051TIP3    H166644   4.091   0.917   0.507 -0.3898  0.2470  0.7384
15051TIP3    H266645   4.100   0.821   0.623  4.0434  0.5329  0.8019
15052TIP3   OH266646   6.822   5.581  16.122 -0.4095  0.4992 -0.4438
15052TIP3    H166647   6.773   5.518  16.069  0.9285 -0.4896 -0.5697
15052TIP3    H266648   6.903   5.596  16.073 -0.1610  1.3481  0.2017
15053TIP3   OH266649   4.428   4.816  15.840  0.0517  0.2299 -0.0929
15053TIP3    H166650   4.462   4.770  15.764  3.0454  2.5228 -0.3119
15053TIP3    H266651   4.461   4.766  15.915  0.2428  0.0581 -0.2914
15054TIP3   OH266652   1.022   3.267   2.696 -0.1657 -0.0397  0.5670
15054TIP3    H166653   0.954   3.334   2.706 -0.2116 -0.1172  0.7628
15054TIP3    H266654   1.095   3.313   2.655  0.3539  0.4871  2.0213
15055TIP3   OH266655   2.798   0.002  10.040  0.2774  0.1430 -0.2455
15055TIP3    H166656   2.840   0.085  10.059  0.6032 -0.1045  0.1353
15055TIP3    H266657   2.781   0.004   9.946  1.1995  0.2168 -0.4125
15056TIP3   OH266658   6.177   5.072  16.506  0.0610 -0.3583  0.4034
15056TIP3    H166659   6.136   5.158  16.509  0.0807 -0.1633 -2.5683
15056TIP3    H266660   6.270   5.089  16.521  0.0597  0.1329 -0.1486
15057TIP3   OH266661   1.948   0.098   1.630 -0.0701 -0.1282  0.1542
15057TIP3    H166662   1.874   0.067   1.681 -0.4934  0.7013  0.0608
15057TIP3    H266663   2.020   0.039   1.653 -0.9567 -1.4862 -0.4007
15058TIP3   OH266664   0.396   5.471  15.377 -0.0311  0.0717 -0.2890
15058TIP3    H166665   0.429   5.553  15.339  2.2969 -0.7215 -0.1520
15058TIP3    H266666   0.456   5.404  15.344 -1.3090 -1.4408  0.3626
15059TIP3   OH266667   6.719   5.161  16.505  0.5953  0.7159  0.2897
15059TIP3    H166668   6.785   5.137  16.571 -0.5492 -1.5697  0.6919
15059TIP3    H266669   6.767   5.213  16.442  2.7896 -0.7175  0.6615
15060TIP3   OH266670   3.997   2.325   0.853  0.5674  0.0420  0.6273
15060TIP3    H166671   3.978   2.273   0.775  1.4674  0.4309  0.1278
15060TIP3    H266672   4.087   2.355   0.839  0.9030 -0.2619  2.0335
15061TIP3   OH266673   3.684   2.497  14.344 -0.0756  0.0267 -0.5104
15061TIP3    H166674   3.753   2.564  14.342 -1.7613  1.8390 -0.8790
15061TIP3    H266675   3.679   2.471  14.436  0.4366  0.6136 -0.3106
15062TIP3   OH266676   6.620   1.091   1.334 -0.2774 -0.1681 -0.5949
15062TIP3    H166677   6.634   0.999   1.353  0.3340 -0.3136 -1.6967
15062TIP3    H266678   6.628   1.135   1.419 -4.7650 -1.5217  0.8017
15063TIP3   OH266679   3.168   3.221   2.872  0.3677  0.1018 -0.3456
15063TIP3    H166680   3.169   3.126   2.886  0.9519  0.1781  0.1839
15063TIP3    H266681   3.220   3.234   2.792  0.7850  0.0175 -0.0924
15064TIP3   OH266682   2.808   2.325  14.728  0.1443  0.0447  0.3997
15064TIP3    H166683   2.832   2.368  14.810  1.2608  0.0633  0.0740
15064TIP3    H266684   2.885   2.272  14.705 -0.2365 -0.1229 -0.5295
15065TIP3   OH266685   4.041   4.693   4.200  0.1965  0.4746 -0.3259
15065TIP3    H166686   4.021   4.604   4.229 -1.1849  1.1955  1.0743
15065TIP3    H266687   3.958   4.726   4.164  0.0238  1.9497  1.2831
15066TIP3   OH266688   1.912   1.945  15.681  0.2797  0.5144  0.1303
15066TIP3    H166689   1.953   1.865  15.649  0.6238  0.8264 -0.2122
15066TIP3    H266690   1.818   1.930  15.670  0.2649 -0.3842  1.3444
15067TIP3   OH266691   4.818   6.042   4.857 -0.4054 -0.5604  0.1842
15067TIP3    H166692   4.812   5.957   4.901 -1.6128 -0.2605  0.6460
15067TIP3    H266693   4.841   6.103   4.928  2.9130 -0.7953 -0.5389
15068TIP3   OH266694   6.835   5.682   0.744  0.1818 -0.0817  0.0113
15068TIP3    H166695   6.796   5.681   0.657  1.3185  1.5967 -0.5625
15068TIP3    H266696   6.909   5.622   0.737  0.8012  0.7189 -0.4675
15069TIP3   OH266697   2.003   0.594   4.769 -0.1938  0.1718  0.3445
15069TIP3    H166698   1.912   0.572   4.791 -0.5581  0.8085 -0.4785
15069TIP3    H266699   2.004   0.689   4.760  0.8492  0.3088  1.5567
15070TIP3   OH266700   2.257   6.144  15.565  0.0688  0.0893 -0.0320
15070TIP3    H166701   2.304   6.226  15.580  1.0927 -0.4349 -0.3347
15070TIP3    H266702   2.203   6.133  15.644 -0.2723  1.1660 -0.0974
15071TIP3   OH266703   6.038   2.840  11.724  0.0459  0.2178  0.0811
15071TIP3    H166704   5.966   2.818  11.782  0.0319 -0.6443 -0.2516
15071TIP3    H266705   6.044   2.936  11.728 -1.1170  0.3002  0.1017
15072TIP3   OH266706   5.002   6.488  12.025  0.1307  0.3536 -0.4847
15072TIP3    H166707   4.950   6.415  12.059  2.0715 -0.4002  1.0802
15072TIP3    H266708   4.942   6.536  11.967 -1.4260 -2.0368 -0.9857
15073TIP3   OH266709   3.561   0.665  13.165  0.0465 -0.7137  0.0748
15073TIP3    H166710   3.496   0.660  13.094  0.1522  0.8863 -0.1735
15073TIP3    H266711   3.508   0.667  13.245 -0.0554 -3.3062  0.1613
15074TIP3   OH266712   6.046   1.048  11.783 -0.0805  0.7965  0.1490
15074TIP3    H166713   6.080   1.057  11.694 -2.0607  1.1286 -0.6014
15074TIP3    H266714   6.101   0.980  11.822  3.4938  3.3421  0.0857
15075TIP3   OH266715   4.080   1.197  12.772  0.3795  0.2102  0.4304
15075TIP3    H166716   4.062   1.272  12.828  0.2110 -1.0557  2.1892
15075TIP3    H266717   4.130   1.137  12.828  0.7482 -0.8852 -0.9934
15076TIP3   OH266718   4.467   2.542  12.075  0.2819  0.1382  0.8490
15076TIP3    H166719   4.559   2.532  12.099  0.9799 -2.6811 -2.1924
15076TIP3    H266720   4.426   2.460  12.104 -0.5438  0.0636 -0.4422
15077TIP3   OH266721   6.667   1.463   0.548 -0.2182 -0.2168 -0.1157
15077TIP3    H166722   6.640   1.538   0.601 -0.5406  0.2492 -0.9054
15077TIP3    H266723   6.745   1.494   0.502 -0.1164 -0.5073 -0.1385
15078TIP3   OH266724   2.680   6.423   2.578 -0.2508 -0.4990  0.3513
15078TIP3    H166725   2.665   6.505   2.626  0.1608 -0.7892  0.9870
15078TIP3    H266726   2.630   6.357   2.627  0.3672 -0.8420  0.5381
15079TIP3   OH266727   6.466   1.177  15.178  0.2290 -0.0674 -0.0710
15079TIP3    H166728   6.430   1.110  15.236  0.5430 -1.9412 -1.9140
15079TIP3    H266729   6.390   1.208  15.129  0.4053 -0.7236 -0.7769
15080TIP3   OH266730   2.596   4.211   2.284 -0.0650  0.2948 -0.0138
15080TIP3    H166731   2.667   4.272   2.308  1.0384 -0.2328 -1.7971
15080TIP3    H266732   2.589   4.153   2.360  1.0298  0.7132  0.4355
15081TIP3   OH266733   4.454   4.419   5.590 -1.0302 -0.6683  0.5357
15081TIP3    H166734   4.376   4.419   5.535 -0.8955 -2.2982  0.2894
15081TIP3    H266735   4.420   4.432   5.679 -1.4489 -0.0589  0.2921
15082TIP3   OH266736   1.491   1.670   4.594 -0.2593 -0.4835 -0.3722
15082TIP3    H166737   1.402   1.642   4.618 -0.4472  0.0859 -0.3890
15082TIP3    H266738   1.493   1.763   4.617  0.7658 -0.7946  0.8885
15083TIP3   OH266739   0.508   3.135   1.663 -0.0848 -0.6379 -0.2874
15083TIP3    H166740   0.550   3.122   1.748  1.0713 -1.7349 -0.9812
15083TIP3    H266741   0.415   3.141   1.683  0.2946  0.9681  1.2229
15084TIP3   OH266742   0.085   6.689   4.273  0.2627 -0.7025 -0.0631
15084TIP3    H166743   0.001   6.644   4.278 -0.2762  0.3375  0.5415
15084TIP3    H266744   0.063   6.779   4.249  1.1378 -0.2330  0.8404
15085TIP3   OH266745   3.376   1.196   6.129  0.2174  0.0625 -0.6247
15085TIP3    H166746   3.438   1.131   6.160  0.4664 -0.6569 -2.5217
15085TIP3    H266747   3.405   1.278   6.169  2.2254 -0.3002 -1.2320
15086TIP3   OH266748   3.510   2.675   3.570  0.4782 -0.1011  0.3643
15086TIP3    H166749   3.603   2.697   3.581  0.7556 -0.5341 -0.9416
15086TIP3    H266750   3.469   2.759   3.548  0.5109  0.1211  1.0981
15087TIP3   OH266751   3.721   4.091  16.148  0.2837 -0.4085  0.0019
15087TIP3    H166752   3.679   4.157  16.202 -0.4144 -1.5909  0.9731
15087TIP3    H266753   3.724   4.129  16.060  0.3337  1.0710  0.6294
15088TIP3   OH266754   3.520   5.691   5.591  0.4263  0.1381 -0.3286
15088TIP3    H166755   3.532   5.754   5.520 -1.0255  2.6566  1.4493
15088TIP3    H266756   3.561   5.733   5.667 -0.3192 -1.2366  0.8845
15089TIP3   OH266757   5.387   5.710  10.014  0.6443  0.2216 -0.3175
15089TIP3    H166758   5.302   5.666  10.002 -0.0105  1.1208  0.8145
15089TIP3    H266759   5.451   5.649   9.976 -0.5236 -0.3550 -1.4410
15090TIP3   OH266760   1.924   2.327   5.262  0.3611 -0.5194  0.1409
15090TIP3    H166761   1.996   2.387   5.244  0.0400 -0.0936  0.2438
15090TIP3    H266762   1.927   2.264   5.191  1.9359 -1.5807  1.0797
15091TIP3   OH266763   4.073   1.454   5.064 -0.2524 -0.6102 -0.1614
15091TIP3    H166764   4.065   1.544   5.034 -2.3612 -0.5909  0.3343
15091TIP3    H266765   4.137   1.457   5.135 -0.2860  0.4852 -0.1704
15092TIP3   OH266766   4.557   5.739   1.627 -0.3598 -0.4126 -0.0681
15092TIP3    H166767   4.594   5.818   1.589 -0.1123 -0.3923  0.2122
15092TIP3    H266768   4.475   5.768   1.668 -0.0392 -0.2086  0.4413
15093TIP3   OH266769   6.470   3.908   1.292  0.0345  0.6204 -0.1212
15093TIP3    H166770   6.432   3.996   1.295  0.1956  0.6942  2.6313
15093TIP3    H266771   6.394   3.849   1.297  0.0179  0.7078  1.1512
15094TIP3   OH266772   1.475   1.292  13.346 -0.2353  0.3490  0.4041
15094TIP3    H166773   1.509   1.207  13.374  0.5543  1.1137  1.9074
15094TIP3    H266774   1.545   1.354  13.369 -0.1490  1.2623 -2.0096
15095TIP3   OH266775   3.191   5.585  13.732  0.7039 -0.1099  0.3818
15095TIP3    H166776   3.140   5.527  13.788  0.3271  0.7342  0.9377
15095TIP3    H266777   3.135   5.662  13.719  0.6363 -0.4087 -1.4458
15096TIP3   OH266778   5.493   0.779   4.413 -0.6268 -0.4912  0.4788
15096TIP3    H166779   5.562   0.754   4.476  1.1337  1.0601 -0.7427
15096TIP3    H266780   5.448   0.852   4.455 -0.2748 -0.2790  0.4970
15097TIP3   OH266781   1.752   2.583  10.494  0.3661  0.1213  0.6259
15097TIP3    H166782   1.684   2.574  10.428  1.7012 -2.1741 -0.5945
15097TIP3    H266783   1.827   2.618  10.446  1.3322 -1.5057  0.8665
15098TIP3   OH266784   1.113   0.771  15.458  0.2974 -0.6102  0.2500
15098TIP3    H166785   1.153   0.783  15.372  0.0497 -0.4997  0.1483
15098TIP3    H266786   1.177   0.807  15.520 -0.7909  2.1946 -0.0986
15099TIP3   OH266787   0.516   2.474   1.348  0.5601  0.2370  0.1981
15099TIP3    H166788   0.605   2.508   1.351  0.4717  0.4023  1.4001
15099TIP3    H266789   0.487   2.489   1.258  1.1438  1.7307  0.2336
15100TIP3   OH266790   5.194   1.205   0.528  0.0088 -0.0908  0.0105
15100TIP3    H166791   5.210   1.146   0.601  1.1069 -0.9483 -0.8824
15100TIP3    H266792   5.218   1.154   0.450  1.9424  1.8248 -0.7448
15101TIP3   OH266793   1.781   0.730   2.820  0.1342 -0.3541 -0.0433
15101TIP3    H166794   1.749   0.764   2.903  0.3044 -0.1031 -0.0765
15101TIP3    H266795   1.816   0.643   2.841  0.3437 -0.2179  0.1847
15102TIP3   OH266796   3.451   6.281   0.957  0.1837  0.3493  0.1424
15102TIP3    H166797   3.480   6.262   0.868  1.1325  0.3492  0.4333
15102TIP3    H266798   3.419   6.371   0.953 -2.5339 -0.5794 -0.8159
15103TIP3   OH266799   2.740   6.497   5.490  0.4514 -0.3414 -0.6839
15103TIP3    H166800   2.675   6.454   5.545 -1.3614  2.1430 -0.7367
15103TIP3    H266801   2.791   6.552   5.550 -0.0049  0.5899 -1.1229
15104TIP3   OH266802   0.099   0.450   0.623 -0.3150  0.1178 -0.1646
15104TIP3    H166803   0.044   0.393   0.676  0.6169  1.6053  2.5843
15104TIP3    H266804   0.068   0.539   0.641  1.2680  0.8088 -0.5877
15105TIP3   OH266805   5.523   5.478   2.304  0.1743  0.3387 -0.2076
15105TIP3    H166806   5.551   5.413   2.367  0.2013  0.2411 -0.3207
15105TIP3    H266807   5.601   5.495   2.250  0.7185  1.7922  0.9428
15106TIP3   OH266808   4.892   2.493   3.495  0.0831  0.6879 -0.5037
15106TIP3    H166809   4.837   2.520   3.422 -0.3289  1.4230  0.0623
15106TIP3    H266810   4.891   2.568   3.555  1.6408  0.7054 -0.4428
15107TIP3   OH266811   1.306   1.839  15.894  0.2267  0.1723  0.0541
15107TIP3    H166812   1.364   1.822  15.819  0.8626 -2.3979  1.0198
15107TIP3    H266813   1.220   1.855  15.855  0.8823  0.5770 -1.2734
15108TIP3   OH266814   4.960   2.143  11.285 -0.1158 -0.3475  0.1583
15108TIP3    H166815   4.909   2.085  11.229  1.4555 -0.6034 -1.0732
15108TIP3    H266816   4.912   2.226  11.283 -0.0458 -0.3101 -1.6975
15109TIP3   OH266817   6.797   6.003  15.565 -0.4226  0.3300  0.6399
15109TIP3    H166818   6.890   5.993  15.587 -0.4001 -1.1164  0.0139
15109TIP3    H266819   6.750   5.964  15.639 -0.6442  2.7458  1.8648
15110TIP3   OH266820   6.322   5.430  10.656 -0.0475  0.1167  0.8175
15110TIP3    H166821   6.302   5.343  10.691 -0.1602  0.0296  0.5425
15110TIP3    H266822   6.371   5.474  10.725 -0.0603 -0.1389  0.9876
15111TIP3   OH266823   1.748   2.687  13.119  0.6234  0.6586 -0.3197
15111TIP3    H166824   1.767   2.619  13.054 -0.3613 -0.0048  0.0655
15111TIP3    H266825   1.696   2.752  13.071  1.6099  1.1788 -0.7020
15112TIP3   OH266826   0.296   3.840  14.843 -0.2756 -0.0049 -0.0172
15112TIP3    H166827   0.328   3.875  14.759  3.7776  2.3811  2.2102
15112TIP3    H266828   0.228   3.903  14.870  0.6091  1.0344 -0.1344
15113TIP3   OH266829   6.406   6.535  13.438  0.1429  1.1961  0.5519
15113TIP3    H166830   6.471   6.606  13.445  2.2983 -0.5188 -0.7959
15113TIP3    H266831   6.388   6.510  13.529  0.3282  2.5774  0.9969
15114TIP3   OH266832   1.746   2.578   0.984  0.4641 -0.1534  0.1212
15114TIP3    H166833   1.660   2.536   0.985  0.4984 -0.2493  1.6776
15114TIP3    H266834   1.765   2.593   0.892 -0.0043 -2.6204 -0.4390
15115TIP3   OH266835   5.706   5.215   3.795  0.0003  0.3904  0.0332
15115TIP3    H166836   5.632   5.167   3.832  1.1475 -2.0363 -0.6323
15115TIP3    H266837   5.673   5.305   3.785 -2.5819 -0.4207  0.4252
15116TIP3   OH266838   1.571   0.453  11.501 -0.1582 -0.4855  0.1009
15116TIP3    H166839   1.617   0.377  11.466 -0.9278 -0.7829 -0.2945
15116TIP3    H266840   1.639   0.518  11.514  0.4853 -1.1649  0.2417
15117TIP3   OH266841   1.789   6.856  13.263  0.1992 -0.2220 -0.2870
15117TIP3    H166842   1.885   6.865  13.266  0.1555  0.9239 -1.5767
15117TIP3    H266843   1.774   6.762  13.273  1.5535 -0.6435 -1.8162
15118TIP3   OH266844   6.662   2.521  10.838 -0.0087  0.0645  0.0058
15118TIP3    H166845   6.594   2.547  10.899 -1.7822 -0.3706 -1.6906
15118TIP3    H266846   6.716   2.600  10.827  0.3579  0.1545  2.0359
15119TIP3   OH266847   4.889   3.264  16.367 -0.5597  0.2644 -0.4335
15119TIP3    H166848   4.962   3.203  16.354  0.2331  0.5892  2.0637
15119TIP3    H266849   4.813   3.207  16.377 -0.5813 -0.1047 -2.2836
15120TIP3   OH266850   3.493   5.710  14.778 -0.1169 -0.2112  0.0694
15120TIP3    H166851   3.507   5.694  14.684  1.2409 -0.3389  0.2800
15120TIP3    H266852   3.543   5.789  14.796 -1.5173  0.6345  0.4175
15121TIP3   OH266853   0.267   3.834  11.587 -0.6141 -0.6284  0.1333
15121TIP3    H166854   0.253   3.923  11.553 -0.4086 -0.7912 -0.3800
15121TIP3    H266855   0.211   3.779  11.533 -0.0999 -0.9194 -0.1181
15122TIP3   OH266856   1.871   5.267   0.217 -0.3792 -0.6159 -0.4457
15122TIP3    H166857   1.856   5.221   0.300 -1.3589  0.1431 -0.1722
15122TIP3    H266858   1.939   5.216   0.173  1.3311 -0.1625  1.5017
15123TIP3   OH266859   3.200   0.957   3.367  0.9125  0.0167  0.7476
15123TIP3    H166860   3.277   0.905   3.343  0.4792 -0.6011  0.6666
15123TIP3    H266861   3.166   0.915   3.446  0.9444  0.5948  1.0782
15124TIP3   OH266862   1.847   3.384  12.014  0.0775  0.3522 -0.0682
15124TIP3    H166863   1.909   3.415  12.080 -1.5925 -0.3803  1.9666
15124TIP3    H266864   1.847   3.288  12.025 -0.1051  0.1966 -1.2878
15125TIP3   OH266865   2.712   6.443   1.284  0.3391  0.0840 -0.2513
15125TIP3    H166866   2.768   6.506   1.238  1.9598 -1.8381 -1.0583
15125TIP3    H266867   2.730   6.458   1.376  0.0583  1.3419 -0.3836
15126TIP3   OH266868   5.176   4.744   0.545  0.2824  0.0337 -0.0608
15126TIP3    H166869   5.158   4.759   0.638  0.4605  0.4181 -0.0853
15126TIP3    H266870   5.096   4.704   0.511 -0.0863  0.6204  0.0908
15127TIP3   OH266871   0.200   5.365   5.881  0.0813 -0.2789  0.0017
15127TIP3    H166872   0.232   5.362   5.791 -0.1668 -0.9697 -0.0693
15127TIP3    H266873   0.256   5.305   5.929 -0.9359 -1.3467 -0.0831
15128TIP3   OH266874   0.850   3.091  12.473  0.2497 -0.1881  0.2005
15128TIP3    H166875   0.892   3.157  12.417  2.0453 -2.5179 -1.4000
15128TIP3    H266876   0.768   3.071  12.427  1.1798 -1.2681 -1.0433
15129TIP3   OH266877   5.966   2.426   4.101 -0.4017  0.2878  0.8183
15129TIP3    H166878   5.963   2.345   4.152 -0.3006 -0.7356 -0.7434
15129TIP3    H266879   6.003   2.490   4.161  1.2834 -1.2628  1.5328
15130TIP3   OH266880   5.969   6.679  11.002 -0.2735 -0.2377 -0.2756
15130TIP3    H166881   6.025   6.738  10.952  2.2622 -0.6021  1.9416
15130TIP3    H266882   5.977   6.595  10.957  1.6075 -0.4593  0.4155
15131TIP3   OH266883   1.222   5.426   4.770  0.0174  0.0888 -0.1624
15131TIP3    H166884   1.300   5.430   4.716 -0.9907  0.7410 -1.6439
15131TIP3    H266885   1.182   5.341   4.749 -0.7281  0.6244 -1.0161
15132TIP3   OH266886   1.386   2.327   2.846  0.6725  0.2721 -0.2834
15132TIP3    H166887   1.432   2.260   2.794  0.5066 -1.4229  1.6249
15132TIP3    H266888   1.321   2.278   2.896 -1.6174  2.3003 -1.0473
15133TIP3   OH266889   5.035   0.736  12.729 -0.1483 -0.0995 -0.2666
15133TIP3    H166890   5.014   0.682  12.653 -0.6663 -0.2913  0.0047
15133TIP3    H266891   4.967   0.715  12.793 -1.0689  1.7519 -0.5869
15134TIP3   OH266892   6.448   6.683  11.636  0.4126 -0.3619 -0.1033
15134TIP3    H166893   6.539   6.682  11.666  0.4024 -1.9210 -0.0301
15134TIP3    H266894   6.437   6.599  11.592 -1.2503 -0.5799  0.6578
15135TIP3   OH266895   5.638   2.153  10.262  0.0859  0.2197  0.1480
15135TIP3    H166896   5.731   2.150  10.242 -0.1124 -0.6777 -0.7605
15135TIP3    H266897   5.605   2.228  10.211  0.2162  0.1792  0.0028
15136TIP3   OH266898   5.816   0.532   4.233  0.4779  0.0402  0.1769
15136TIP3    H166899   5.911   0.529   4.249  0.4825 -0.9153 -0.0101
15136TIP3    H266900   5.808   0.572   4.146  0.7199 -0.0344  0.1184
15137TIP3   OH266901   1.788   1.071  11.664  0.1717  0.1904  0.4761
15137TIP3    H166902   1.816   1.124  11.589  0.7095 -0.5218  0.1547
15137TIP3    H266903   1.693   1.082  11.668 -0.1484 -1.1904 -1.4720
15138TIP3   OH266904   1.572   0.457   3.916  0.2466  0.0082  0.0131
15138TIP3    H166905   1.597   0.368   3.890  1.3151  0.3504 -0.1806
15138TIP3    H266906   1.510   0.486   3.849  0.0198 -0.5206 -0.0139
15139TIP3   OH266907   2.167   5.598   5.793  0.5792  0.4699 -0.1763
15139TIP3    H166908   2.255   5.616   5.759  0.6565  0.8364  0.2056
15139TIP3    H266909   2.176   5.608   5.888  0.1364  0.4577 -0.1329
15140TIP3   OH266910   2.045   3.294   1.512  0.1436  0.0821  0.0994
15140TIP3    H166911   2.038   3.204   1.483 -0.6311  0.3351 -0.5211
15140TIP3    H266912   2.026   3.346   1.434  0.1583  0.7829  0.5541
15141TIP3   OH266913   3.856   3.119   2.448 -0.5916  0.6346  0.2146
15141TIP3    H166914   3.772   3.092   2.486  0.2127  0.0131  1.6115
15141TIP3    H266915   3.887   3.043   2.400 -1.4544  1.3171 -1.5223
15142TIP3   OH266916   1.569   0.885   3.737 -0.4910 -0.1429 -0.3014
15142TIP3    H166917   1.593   0.898   3.829 -2.8790  0.5287  0.2967
15142TIP3    H266918   1.623   0.811   3.709  0.4930 -0.2081  1.5550
15143TIP3   OH266919   4.123   3.502  13.521  0.0390 -0.2032  0.2565
15143TIP3    H166920   4.072   3.549  13.456 -0.6105 -0.1966  0.7546
15143TIP3    H266921   4.109   3.410  13.501 -2.3460 -0.3003  1.9409
15144TIP3   OH266922   3.584   1.395   4.534 -0.0474  0.3536  0.0405
15144TIP3    H166923   3.648   1.327   4.555 -1.4551 -1.2104 -0.4023
15144TIP3    H266924   3.569   1.386   4.440  1.8782  3.3260 -0.6727
15145TIP3   OH266925   0.126   1.020  11.245 -0.0399  0.6759  0.2652
15145TIP3    H166926   0.137   0.980  11.159 -3.0927  0.6122 -0.2060
15145TIP3    H266927   0.059   1.087  11.231 -1.1014  0.2178  2.6929
15146TIP3   OH266928   3.973   1.828  16.019  0.0452  0.2556 -0.0106
15146TIP3    H166929   3.921   1.838  16.099  0.2588  2.5270 -0.0791
15146TIP3    H266930   3.965   1.913  15.975  2.1118 -0.0482 -1.0792
15147TIP3   OH266931   3.340   1.800  11.966  0.0424 -0.3446 -0.1095
15147TIP3    H166932   3.320   1.827  11.876 -0.1450 -0.4086 -0.0865
15147TIP3    H266933   3.402   1.728  11.956  1.1749  0.6077 -0.1570
15148TIP3   OH266934   5.665   1.164   5.410  0.2955  0.1885 -0.2851
15148TIP3    H166935   5.625   1.121   5.334  1.1879  1.3516 -1.4409
15148TIP3    H266936   5.669   1.095   5.476 -1.4949 -0.5777 -0.8919
15149TIP3   OH266937   2.308   6.835  11.900  0.2678 -0.0754  0.4879
15149TIP3    H166938   2.268   6.889  11.968  0.0018 -2.1069  2.0488
15149TIP3    H266939   2.249   6.760  11.892  0.8895 -0.4213 -1.2135
15150TIP3   OH266940   3.138   4.329   2.977  0.1350  0.3754 -0.6346
15150TIP3    H166941   3.138   4.415   2.935 -1.2289  1.3608  1.2449
15150TIP3    H266942   3.048   4.298   2.965  0.2014 -0.0875  0.0736
15151TIP3   OH266943   1.305   2.206   1.963  0.5261 -0.0252  0.3682
15151TIP3    H166944   1.364   2.254   2.020  0.1195 -1.0734  1.7241
15151TIP3    H266945   1.324   2.114   1.981 -2.3062 -0.4265  1.7529
15152TIP3   OH266946   1.313   0.925   2.737  0.1754 -0.0011 -0.4237
15152TIP3    H166947   1.333   0.910   2.829  0.1065  1.1681 -0.2029
15152TIP3    H266948   1.357   0.854   2.691  2.1055  0.6401  0.3283
15153TIP3   OH266949   0.022   5.484  14.951  0.3023 -0.1670  0.0939
15153TIP3    H166950  -0.045   5.518  14.891  0.1044  1.5657  1.2242
15153TIP3    H266951   0.000   5.391  14.961 -0.5590 -0.1457 -1.3151
15154TIP3   OH266952   0.952   2.084   4.748 -0.4214 -0.4389 -0.4588
15154TIP3    H166953   0.880   2.041   4.793 -1.1586  0.6545 -0.5702
15154TIP3    H266954   1.026   2.076   4.808 -0.5922 -1.6543 -0.3885
15155TIP3   OH266955   5.877   3.334   1.086 -0.3211  0.3754 -0.1155
15155TIP3    H166956   5.900   3.290   1.004  2.3837 -0.5047  0.9950
15155TIP3    H266957   5.921   3.419   1.081 -2.4555  1.5229 -0.6705
15156TIP3   OH266958   4.355   4.662  14.894 -0.1034  0.2853 -0.7019
15156TIP3    H166959   4.407   4.641  14.817  1.3440 -0.2411  0.3908
15156TIP3    H266960   4.299   4.585  14.907  1.3751 -0.6754  0.1661
15157TIP3   OH266961   2.460   5.011  15.642 -0.3872 -0.1199 -0.4714
15157TIP3    H166962   2.429   4.924  15.617 -0.5617 -0.2332  0.1459
15157TIP3    H266963   2.421   5.070  15.577 -2.1057 -0.2189  0.4361
15158TIP3   OH266964   3.054   5.130  11.688 -0.0435  0.2887  0.1186
15158TIP3    H166965   2.989   5.127  11.617 -0.9457  2.2793  0.7825
15158TIP3    H266966   3.099   5.046  11.683 -2.0967 -0.8193 -0.9314
15159TIP3   OH266967   3.178   6.369  14.309  0.8424  0.4575 -0.0804
15159TIP3    H166968   3.267   6.357  14.277  1.6796 -0.8547  2.4118
15159TIP3    H266969   3.186   6.363  14.405 -2.3601 -3.6416  0.2258
15160TIP3   OH266970   0.944   5.678  11.935 -0.3643  0.0690 -0.7296
15160TIP3    H166971   0.858   5.699  11.970 -0.3508 -0.2731 -0.4813
15160TIP3    H266972   0.983   5.620  12.001  0.1339  0.3878 -0.7375
15161TIP3   OH266973   0.084   6.800   5.344  0.2039  0.4169 -0.1061
15161TIP3    H166974   0.159   6.857   5.324 -0.2220  0.5873 -1.3281
15161TIP3    H266975   0.028   6.807   5.266 -2.0840  1.8688  1.5410
15162TIP3   OH266976   5.757   4.836   4.679 -1.0278 -0.0271 -0.3615
15162TIP3    H166977   5.676   4.784   4.679 -2.3783  1.9456  0.5429
15162TIP3    H266978   5.744   4.900   4.610 -0.6001  0.8314  0.3375
15163TIP3   OH266979   6.607   2.581   2.086 -0.1549 -0.2125 -0.4060
15163TIP3    H166980   6.644   2.570   2.174  0.0823  1.6102 -0.2456
15163TIP3    H266981   6.651   2.658   2.050 -1.6648  0.2644 -1.3565
15164TIP3   OH266982   5.093   2.975   1.581  0.7496  0.4940  0.0522
15164TIP3    H166983   5.188   2.970   1.567  0.8735 -2.0009  1.3107
15164TIP3    H266984   5.064   2.884   1.583 -1.5742  1.1841  0.4814
15165TIP3   OH266985   2.468   6.237   1.558 -0.1672  0.2216 -0.6787
15165TIP3    H166986   2.459   6.151   1.517 -1.4566 -0.1541  0.3004
15165TIP3    H266987   2.487   6.218   1.650 -1.5163  0.9215 -0.2177
15166TIP3   OH266988   3.631   3.666  13.122 -0.0974 -0.5080 -0.1075
15166TIP3    H166989   3.544   3.681  13.158 -0.2820  0.5977 -0.9585
15166TIP3    H266990   3.691   3.707  13.184 -0.2402 -0.5359  0.0491
15167TIP3   OH266991   2.109   2.406  10.408  0.0895 -0.3588  0.0384
15167TIP3    H166992   2.041   2.426  10.473 -0.7222 -0.3542 -0.7877
15167TIP3    H266993   2.135   2.316  10.429  1.7248  0.4999  1.9849
15168TIP3   OH266994   3.760   0.351  11.192 -0.2394 -0.0060  0.0584
15168TIP3    H166995   3.796   0.399  11.118  2.4424  0.2533  1.3885
15168TIP3    H266996   3.745   0.263  11.159  0.2706  0.2780 -0.9815
15169TIP3   OH266997   1.502   1.034  10.627 -0.6057  0.3176  0.1529
15169TIP3    H166998   1.527   1.119  10.664  0.9118 -0.9266  2.1979
15169TIP3    H266999   1.472   0.983  10.702  0.4199 -1.6004 -0.6730
15170TIP3   OH267000   0.763   0.206  14.473  0.2256 -0.4084 -1.0648
15170TIP3    H167001   0.826   0.276  14.459  3.0992 -2.0062  2.3458
15170TIP3    H267002   0.813   0.126  14.465 -1.7414 -1.8729  0.2104
15171TIP3   OH267003   1.582   2.228   1.517  0.1559  0.3286  0.8105
15171TIP3    H167004   1.498   2.273   1.508 -0.3289 -0.7377 -0.4125
15171TIP3    H267005   1.562   2.136   1.497  1.5479  0.0032  0.8086
15172TIP3   OH267006   4.288   2.948   4.465 -0.0774 -0.0246 -0.2325
15172TIP3    H167007   4.212   2.980   4.513  1.2355 -0.8849  2.6887
15172TIP3    H267008   4.339   3.027   4.446 -1.3180  0.4829 -1.5973
15173TIP3   OH267009   0.294   4.917  11.852  0.0511  0.1297  0.7095
15173TIP3    H167010   0.341   4.856  11.909  0.4627  0.4659  0.7346
15173TIP3    H267011   0.214   4.938  11.901 -0.2029 -0.5549  0.6032
15174TIP3   OH267012   1.670   1.523   3.300  0.0227  0.0677 -0.7492
15174TIP3    H167013   1.585   1.480   3.302  0.0067  0.0912 -0.9490
15174TIP3    H267014   1.707   1.500   3.215  0.4826 -0.4648 -0.4180
15175TIP3   OH267015   5.248   5.410  11.352 -0.0491  0.1662 -0.2522
15175TIP3    H167016   5.231   5.316  11.360  2.7686 -0.5475 -1.5600
15175TIP3    H267017   5.161   5.450  11.350 -1.3662 -2.5112 -0.9321
15176TIP3   OH267018   5.563   1.136  15.086  0.1237 -0.4304 -0.4018
15176TIP3    H167019   5.524   1.066  15.035 -1.5773  2.3486 -3.3195
15176TIP3    H267020   5.541   1.116  15.176 -1.5214 -2.8643 -1.2511
15177TIP3   OH267021   6.177   2.168  14.336 -0.5361 -0.1880 -0.4986
15177TIP3    H167022   6.253   2.208  14.293  0.9908 -0.4094  1.8171
15177TIP3    H267023   6.190   2.187  14.429 -1.2555 -3.5492  0.4217
15178TIP3   OH267024   4.971   2.409  13.218 -0.3003 -0.8647  0.5710
15178TIP3    H167025   5.053   2.399  13.266 -1.2325 -1.9429  2.0368
15178TIP3    H267026   4.979   2.349  13.144  1.4077  1.2677 -1.1267
15179TIP3   OH267027   2.294   6.247  10.728 -0.3066  0.0824  0.6048
15179TIP3    H167028   2.289   6.171  10.671  0.4299  0.3918  0.1084
15179TIP3    H267029   2.231   6.310  10.690  1.4478  0.9869 -0.9930
15180TIP3   OH267030   5.689   4.598   3.196  0.2667 -0.2308 -0.3458
15180TIP3    H167031   5.708   4.647   3.116  0.3054 -1.6224 -1.2287
15180TIP3    H267032   5.615   4.542   3.172  0.2477 -0.6327  0.6181
15181TIP3   OH267033   1.204   3.887   0.116  0.1973  0.5302  0.0934
15181TIP3    H167034   1.181   3.976   0.143 -1.0451  0.2107  0.1635
15181TIP3    H267035   1.233   3.845   0.197  0.1342  0.6836  0.1982
15182TIP3   OH267036   5.405   5.163   5.660  0.3720  0.3739  0.0138
15182TIP3    H167037   5.464   5.089   5.675  0.7637  0.4600 -1.0492
15182TIP3    H267038   5.398   5.170   5.565 -1.0736  0.5975  0.1103
15183TIP3   OH267039   2.495   1.684   4.501 -0.5221  0.3621 -0.0794
15183TIP3    H167040   2.483   1.779   4.502 -0.3852  0.3760  0.2025
15183TIP3    H267041   2.441   1.655   4.428 -0.2614  0.6947 -0.4068
15184TIP3   OH267042   5.756   4.290  11.710 -0.1614 -0.1892 -0.6207
15184TIP3    H167043   5.823   4.355  11.688 -0.7095  0.9093  0.7491
15184TIP3    H267044   5.696   4.290  11.635 -0.9478  2.0079 -0.0703
15185TIP3   OH267045   4.061   3.148   1.299  0.4628 -0.3491 -0.4617
15185TIP3    H167046   4.050   3.236   1.261  0.6414 -0.8158 -1.6411
15185TIP3    H267047   4.115   3.102   1.236  1.1544 -1.0392  0.6040
15186TIP3   OH267048   0.026   4.281   4.505  0.1827  0.0089  1.0170
15186TIP3    H167049   0.025   4.195   4.463  0.3855 -0.6437  2.3144
15186TIP3    H267050  -0.034   4.334   4.452  0.1137 -0.9032  0.1585
15187TIP3   OH267051   6.278   5.574   1.945 -0.1000 -0.2634 -0.2987
15187TIP3    H167052   6.254   5.501   2.002  0.2709 -0.0254  0.1662
15187TIP3    H267053   6.373   5.578   1.950  0.1007 -1.2591 -2.2076
15188TIP3   OH267054   3.056   1.745   2.233  0.4596 -0.4930 -0.0404
15188TIP3    H167055   3.008   1.668   2.261 -1.0233  0.6125  0.6081
15188TIP3    H267056   3.003   1.782   2.162  1.3740 -0.2952 -0.6450
15189TIP3   OH267057   2.681   2.740   3.622 -0.3037 -0.5104 -0.2242
15189TIP3    H167058   2.668   2.707   3.533  1.7647  0.7336 -1.0402
15189TIP3    H267059   2.601   2.789   3.641 -0.1476  0.5443 -2.0450
15190TIP3   OH267060   6.806   0.694   3.095 -0.0142  0.3240  0.7355
15190TIP3    H167061   6.745   0.751   3.142 -1.8831 -1.5142  0.7254
15190TIP3    H267062   6.856   0.650   3.163 -1.5641 -1.1062  1.0242
15191TIP3   OH267063   6.822   2.222   4.358 -0.2714 -0.3798 -0.1229
15191TIP3    H167064   6.757   2.272   4.309 -0.1078  0.5333  0.5543
15191TIP3    H267065   6.884   2.191   4.293 -1.7777 -1.9214 -0.8915
15192TIP3   OH267066   5.339   0.081   5.770  0.0117  0.0221 -0.1808
15192TIP3    H167067   5.346   0.034   5.853 -3.6116 -2.3076 -0.9970
15192TIP3    H267068   5.301   0.166   5.793  1.9004  0.6908  0.7465
15193TIP3   OH267069   5.709   1.458   2.026 -0.7156 -0.2528  0.2307
15193TIP3    H167070   5.620   1.424   2.035 -0.5336 -0.9441 -0.4616
15193TIP3    H267071   5.759   1.385   1.989  0.0185  0.3094  0.0842
15194TIP3   OH267072   1.868   1.096   3.184  0.0904  0.0705  0.6308
15194TIP3    H167073   1.943   1.134   3.229 -0.1104 -0.1604  1.1629
15194TIP3    H267074   1.793   1.147   3.215 -0.1820 -0.7691  1.3550
15195TIP3   OH267075   0.058   1.289   0.425 -0.0083  0.4046 -0.1186
15195TIP3    H167076   0.122   1.321   0.490 -0.2935  0.5475  0.0970
15195TIP3    H267077   0.002   1.230   0.475  0.4022 -0.2924 -0.4781
15196TIP3   OH267078   4.712   4.526  10.424 -0.2281 -0.4030 -0.7344
15196TIP3    H167079   4.616   4.527  10.418 -0.1957  0.1404 -1.2933
15196TIP3    H267080   4.736   4.619  10.423  0.3286 -0.5496 -1.1125
15197TIP3   OH267081   2.238   3.292   9.978  0.1804  0.5755  0.7774
15197TIP3    H167082   2.209   3.356  10.043 -2.2987  0.5658 -0.2362
15197TIP3    H267083   2.168   3.290   9.913  1.0115 -1.8857 -0.1400
15198TIP3   OH267084   2.019   4.619  11.096  0.1691 -0.5027 -0.0636
15198TIP3    H167085   2.086   4.682  11.068  1.5798 -3.0530 -3.1265
15198TIP3    H267086   2.063   4.566  11.162  0.6678 -1.1093 -0.8536
15199TIP3   OH267087   5.998   4.648   3.080  0.2860  0.1209 -0.1449
15199TIP3    H167088   5.956   4.730   3.056  1.1774  0.1042 -1.9001
15199TIP3    H267089   5.929   4.582   3.072  0.4431  0.1800 -2.4330
15200TIP3   OH267090   4.537   3.019   4.583  0.1214  0.2862  1.1562
15200TIP3    H167091   4.613   2.981   4.628  0.4723  0.0057  0.3431
15200TIP3    H267092   4.475   2.946   4.576  0.5377  0.0080  0.1660
15201TIP3   OH267093   0.098   1.018  12.101 -0.1750  0.0560  0.1553
15201TIP3    H167094   0.190   0.993  12.109 -0.2605 -0.1354  0.5731
15201TIP3    H267095   0.085   1.032  12.007  0.0170 -0.9595 -0.0416
15202TIP3   OH267096   2.638   6.034  12.222  0.2915  0.2499  0.1663
15202TIP3    H167097   2.544   6.017  12.227  0.4570 -0.9478 -0.5020
15202TIP3    H267098   2.644   6.125  12.192 -0.6463  0.3570  0.2762
15203TIP3   OH267099   4.264   4.415  12.190  0.3117  0.5844  0.3306
15203TIP3    H167100   4.220   4.420  12.105  0.9592 -0.4278 -0.0861
15203TIP3    H267101   4.275   4.506  12.216 -0.3896  0.9002 -0.4085
15204TIP3   OH267102   0.942   6.775   1.336  0.2948 -0.2452  0.5251
15204TIP3    H167103   0.917   6.819   1.255  0.0580 -1.5664 -0.1461
15204TIP3    H267104   0.898   6.825   1.405  0.0581  0.5743 -0.1968
15205TIP3   OH267105   4.743   3.194  11.794  0.3669 -0.0312 -0.1012
15205TIP3    H167106   4.779   3.220  11.879  2.1013  1.1606 -1.1331
15205TIP3    H267107   4.681   3.263  11.771 -0.7158 -0.7637  0.5098
15206TIP3   OH267108   5.211   5.327  16.238  0.0848  0.0745  0.3181
15206TIP3    H167109   5.248   5.410  16.266 -0.7320  0.3165  0.7142
15206TIP3    H267110   5.242   5.315  16.148 -1.5325  1.8992 -0.5569
15207TIP3   OH267111   6.282   4.843  10.582  0.2697 -0.3558  0.7823
15207TIP3    H167112   6.204   4.865  10.531  1.1063  3.0522  0.7016
15207TIP3    H267113   6.320   4.767  10.537 -0.9058  0.3474 -1.5548
15208TIP3   OH267114   6.331   3.026   4.202 -0.7363 -0.2163  0.0903
15208TIP3    H167115   6.286   3.061   4.279  0.3136  1.2502  0.0803
15208TIP3    H267116   6.424   3.033   4.224 -0.4489 -0.9490 -0.8381
15209TIP3   OH267117   2.118   2.979   0.503 -0.1500 -0.1168 -0.2736
15209TIP3    H167118   2.201   3.024   0.488  0.2584 -0.4661  0.8603
15209TIP3    H267119   2.052   3.040   0.471  0.5813 -0.3401 -2.3237
15210TIP3   OH267120   2.134   2.556   3.376 -0.1695  0.1771  0.2945
15210TIP3    H167121   2.042   2.580   3.379  0.0272  0.8999  0.6931
15210TIP3    H267122   2.146   2.519   3.288 -0.7087  0.6037  0.0362
15211TIP3   OH267123   1.463   5.607   3.382  0.2708  0.2061 -0.0419
15211TIP3    H167124   1.426   5.680   3.332 -0.4550  1.1258  1.7498
15211TIP3    H267125   1.553   5.635   3.402  0.5832 -0.1899 -0.8227
15212TIP3   OH267126   6.128   0.214  16.555 -0.6714  0.5978 -0.0929
15212TIP3    H167127   6.109   0.204  16.461 -0.8218  0.8134 -0.0863
15212TIP3    H267128   6.207   0.268  16.557  0.3056 -0.7955 -0.1274
15213TIP3   OH267129   1.875   6.001  11.441 -0.2886  0.3340 -0.5160
15213TIP3    H167130   1.826   6.078  11.413 -0.2627  0.2596 -0.7631
15213TIP3    H267131   1.967   6.028  11.436 -0.0669 -0.7148 -3.7159
15214TIP3   OH267132   5.457   0.512  14.804 -0.0420  0.1589 -0.4539
15214TIP3    H167133   5.431   0.436  14.856 -3.1939 -0.1721 -2.2591
15214TIP3    H267134   5.433   0.587  14.858 -3.9113 -0.1648 -1.3749
15215TIP3   OH267135   5.052   6.264  12.746  0.2875 -0.0324 -0.4744
15215TIP3    H167136   4.988   6.328  12.715 -0.2331 -0.9054 -1.2624
15215TIP3    H267137   5.136   6.301  12.721  0.0607  0.7910 -0.0658
15216TIP3   OH267138   1.933   1.281  10.089  0.3367  0.1078  0.5932
15216TIP3    H167139   1.886   1.235  10.158  0.3277  0.5622  0.8850
15216TIP3    H267140   1.924   1.374  10.109 -0.0228  0.2669 -0.2502
15217TIP3   OH267141   5.833   3.050  11.425  0.0243 -0.6344 -0.8651
15217TIP3    H167142   5.775   2.999  11.481  0.1257 -0.1725 -0.3384
15217TIP3    H267143   5.894   3.093  11.485 -1.0538  1.3729 -1.1592
15218TIP3   OH267144   6.293   5.823   1.825 -0.1822  0.3333 -0.0321
15218TIP3    H167145   6.353   5.797   1.755  0.8267 -0.0459  0.9318
15218TIP3    H267146   6.272   5.740   1.870 -3.5073  0.0162 -1.8476
15219TIP3   OH267147   4.822   5.731   5.646 -0.4281 -0.2959 -0.2566
15219TIP3    H167148   4.891   5.796   5.642  2.1630 -2.1014  5.2194
15219TIP3    H267149   4.859   5.653   5.604 -1.4029  0.1302 -2.0136
15220TIP3   OH267150   2.780   0.156   0.298 -0.1515 -0.2469  0.0815
15220TIP3    H167151   2.760   0.231   0.243  1.9542 -1.1375 -2.0519
15220TIP3    H267152   2.694   0.119   0.320 -1.0986  0.8645 -1.5554
15221TIP3   OH267153   0.207   0.254   3.739  0.5444  0.1651  0.4531
15221TIP3    H167154   0.208   0.262   3.644  1.0780 -2.7250  0.1449
15221TIP3    H267155   0.177   0.165   3.756 -0.9874  1.0536  3.0820
15222TIP3   OH267156   0.907   4.843   0.806 -0.3648  0.1334  0.3817
15222TIP3    H167157   0.906   4.921   0.751 -0.5000 -0.7638 -0.9231
15222TIP3    H267158   1.000   4.820   0.815 -0.3786 -0.0759 -0.0000
15223TIP3   OH267159   2.192   5.090  14.257 -0.2129  0.2028  0.6368
15223TIP3    H167160   2.247   5.158  14.296  1.3990 -0.1734 -0.8418
15223TIP3    H267161   2.234   5.071  14.173 -2.8299  0.1319 -0.7571
15224TIP3   OH267162   1.118   1.451  12.228  0.5086 -0.2196 -0.6946
15224TIP3    H167163   1.166   1.376  12.262  2.1538 -0.3174 -3.0176
15224TIP3    H267164   1.081   1.493  12.306  1.6486 -1.9825  0.8852
15225TIP3   OH267165   0.263   5.708   3.429 -0.7562 -0.0957  0.3387
15225TIP3    H167166   0.306   5.705   3.343 -2.0553  1.1865 -0.4061
15225TIP3    H267167   0.208   5.630   3.431 -0.8426 -0.0496 -0.0791
15226TIP3   OH267168   4.088   4.151  11.349  0.4914  0.1544  0.4637
15226TIP3    H167169   4.177   4.152  11.314  0.0370  0.3763 -0.7397
15226TIP3    H267170   4.042   4.084  11.299 -0.0560  0.1108  0.9982
15227TIP3   OH267171   5.328   3.241  16.143  0.4773 -0.3680 -0.2858
15227TIP3    H167172   5.365   3.325  16.115  1.8000 -0.6815  0.4052
15227TIP3    H267173   5.275   3.263  16.220 -0.0653 -0.0283 -0.7508
15228TIP3   OH267174   6.001   1.265   2.862  0.7499  0.2223  0.0386
15228TIP3    H167175   5.928   1.301   2.911  1.1233  0.9223  0.0863
15228TIP3    H267176   6.073   1.325   2.878  1.2791 -0.3409 -0.1858
15229TIP3   OH267177   5.150   4.076   6.438 -0.5205  0.0361 -0.3128
15229TIP3    H167178   5.203   4.131   6.495  3.4885  1.6139 -4.8122
15229TIP3    H267179   5.187   3.988   6.447 -1.3203 -0.2013  0.8717
15230TIP3   OH267180   6.352   1.349  15.437 -0.6187  0.9740  0.0694
15230TIP3    H167181   6.330   1.257  15.421  1.5064  0.3773  0.2725
15230TIP3    H267182   6.267   1.392  15.446 -1.7015 -0.7715 -0.9986
15231TIP3   OH267183   1.781   4.926   3.378 -0.0962 -0.0332  0.2756
15231TIP3    H167184   1.722   4.852   3.392 -0.5907  0.5523  1.4137
15231TIP3    H267185   1.771   4.980   3.456  0.3601  1.1745 -0.4743
15232TIP3   OH267186   0.435   0.477   6.343  0.1676  0.3284 -0.3373
15232TIP3    H167187   0.373   0.488   6.414 -0.4389 -0.5214 -0.7071
15232TIP3    H267188   0.414   0.547   6.281 -1.2947 -0.6582 -1.0420
15233TIP3   OH267189   3.574   0.418  14.722 -0.3534  0.8013 -0.6463
15233TIP3    H167190   3.638   0.435  14.792  1.3471  1.0274 -2.1932
15233TIP3    H267191   3.596   0.481  14.654 -1.9740  0.5797 -1.4172
15234TIP3   OH267192   1.999   1.375  12.756  0.0352  0.3322 -0.1023
15234TIP3    H167193   1.949   1.401  12.833 -0.6440 -0.4356 -0.2637
15234TIP3    H267194   1.975   1.439  12.689  0.8675  1.1898  0.3895
15235TIP3   OH267195   3.663   5.078   5.645 -0.1684  0.0793  0.2281
15235TIP3    H167196   3.691   5.069   5.553  1.2863  1.5923  0.4825
15235TIP3    H267197   3.691   4.996   5.686 -1.3398 -0.8676 -0.7631
15236TIP3   OH267198   5.209   4.248  15.501  0.0237  0.2017 -0.0571
15236TIP3    H167199   5.259   4.170  15.478  1.3811  1.1247 -0.3945
15236TIP3    H267200   5.156   4.222  15.576  3.0996 -0.1595  2.2082
15237TIP3   OH267201   2.781   0.028   3.030  0.2454 -0.5799 -0.1040
15237TIP3    H167202   2.740  -0.025   3.098 -1.0686 -0.2669 -0.6167
15237TIP3    H267203   2.801  -0.035   2.960  0.4483 -0.7002  0.0609
15238TIP3   OH267204   3.416   6.106  10.557 -0.0834 -0.6465  0.2046
15238TIP3    H167205   3.332   6.152  10.550  0.1802 -0.0844  0.6579
15238TIP3    H267206   3.429   6.067  10.471 -1.6654 -2.2520  0.6174
15239TIP3   OH267207   3.732   2.067  13.117 -0.2558  0.2532 -0.5487
15239TIP3    H167208   3.655   2.012  13.128  0.5000 -0.9318 -1.0356
15239TIP3    H267209   3.783   2.054  13.197 -0.0665  0.2372 -0.6711
15240TIP3   OH267210   6.615   0.864  13.747 -0.8734 -0.1892 -0.0553
15240TIP3    H167211   6.628   0.947  13.794 -2.0479  0.4343 -0.7970
15240TIP3    H267212   6.691   0.811  13.772  0.4643  1.4820 -0.3888
15241TIP3   OH267213   5.584   4.975  11.024  0.3324  0.1987 -0.0691
15241TIP3    H167214   5.670   4.969  11.065  0.5174 -0.9983 -0.6165
15241TIP3    H267215   5.525   4.996  11.096  0.9254 -0.0335  0.4920
15242TIP3   OH267216   1.677   6.479   3.686 -0.0233  0.3832 -0.2439
15242TIP3    H167217   1.726   6.401   3.663  0.5206  1.2234 -2.0692
15242TIP3    H267218   1.663   6.471   3.781  0.5541 -1.5879 -0.2811
15243TIP3   OH267219   6.411   1.652   2.360  0.8422 -0.4454 -0.4333
15243TIP3    H167220   6.384   1.711   2.431  0.6920  0.3346 -1.1293
15243TIP3    H267221   6.410   1.565   2.400 -1.3592 -0.2942 -0.0252
15244TIP3   OH267222   6.125   1.564  14.697 -0.3525  0.1500 -0.4316
15244TIP3    H167223   6.217   1.560  14.670 -0.0319 -0.6814  0.6985
15244TIP3    H267224   6.076   1.571  14.615  0.7159  0.6324 -1.0495
15245TIP3   OH267225   5.731   1.052  16.467 -0.3755  0.3962 -0.0108
15245TIP3    H167226   5.749   1.070  16.375  0.6556  0.1520  0.1370
15245TIP3    H267227   5.762   0.963  16.481 -0.3912  0.4798  0.6131
15246TIP3   OH267228   6.463   2.110   3.471  0.5364  0.1676  0.2415
15246TIP3    H167229   6.517   2.036   3.443 -0.4324 -0.6171  0.3484
15246TIP3    H267230   6.484   2.180   3.411  0.3547 -0.6908 -0.8598
15247TIP3   OH267231   3.065   3.870   2.583 -0.5789 -0.3239 -0.3544
15247TIP3    H167232   3.104   3.848   2.498 -0.6660 -0.2797 -0.4055
15247TIP3    H267233   3.079   3.792   2.637 -1.4264 -0.7364 -0.7210
15248TIP3   OH267234   6.408   6.513  13.767 -0.2759  0.4838 -0.2370
15248TIP3    H167235   6.317   6.509  13.796 -1.0183 -0.2494 -2.4446
15248TIP3    H267236   6.459   6.486  13.843 -1.8930  0.7489  1.0011
15249TIP3   OH267237   4.343   3.862   4.852  0.1206 -0.3156  0.2402
15249TIP3    H167238   4.426   3.839   4.812 -0.8263 -1.2386 -1.3032
15249TIP3    H267239   4.322   3.948   4.817  0.2466 -0.2466  0.3342
15250TIP3   OH267240   1.592   3.609   1.034 -0.1389 -0.3955  0.8304
15250TIP3    H167241   1.510   3.611   0.986 -0.5777  1.8502  1.5866
15250TIP3    H267242   1.569   3.575   1.121 -0.3978  0.7226  1.2134
15251TIP3   OH267243   3.170   6.108   4.287 -0.4247  0.0186 -1.0431
15251TIP3    H167244   3.130   6.033   4.330  0.4546 -0.7489 -1.5296
15251TIP3    H267245   3.104   6.137   4.224 -0.6612 -0.5417 -1.0586
15252TIP3   OH267246   4.565   4.420   3.953 -0.3959  0.0100  0.5928
15252TIP3    H167247   4.479   4.380   3.942 -0.7090  0.2802  1.8911
15252TIP3    H267248   4.591   4.445   3.864 -1.4718 -0.4369  0.1320
15253TIP3   OH267249   5.009   4.280  15.801  0.1233  0.7612 -0.8889
15253TIP3    H167250   4.927   4.314  15.766 -1.2915 -1.7202 -0.1749
15253TIP3    H267251   4.984   4.202  15.850  2.9624 -0.3453 -1.0301
15254TIP3   OH267252   6.572   3.443   5.230 -0.2172 -0.2141 -0.3013
15254TIP3    H167253   6.517   3.479   5.300 -0.8373 -0.6594 -0.5470
15254TIP3    H267254   6.621   3.518   5.197  1.3069 -0.2576  1.6643
15255TIP3   OH267255   2.012   1.895  11.758  0.3358 -0.0922 -0.0467
15255TIP3    H167256   2.092   1.922  11.713 -0.1316  1.7001  0.1249
15255TIP3    H267257   1.941   1.938  11.711 -0.2485  1.0817  1.7705
15256TIP3   OH267258   1.514   6.898  12.054 -0.3347  0.0271  0.7842
15256TIP3    H167259   1.580   6.879  11.987 -1.1010 -0.6920  0.2176
15256TIP3    H267260   1.437   6.925  12.005 -0.4091  1.1018  1.4540
15257TIP3   OH267261   6.225   3.747  11.180 -0.2646 -0.2539 -0.8019
15257TIP3    H167262   6.199   3.705  11.262  1.2326  1.9927  0.9390
15257TIP3    H267263   6.188   3.835  11.186  1.0221  0.3948 -1.8997
15258TIP3   OH267264   3.005   0.053   1.524 -0.6334  0.3689 -0.0124
15258TIP3    H167265   2.909   0.055   1.531 -0.6754  1.1652 -0.6486
15258TIP3    H267266   3.023   0.087   1.436  0.2283  0.0311  0.0283
15259TIP3   OH267267   1.220   4.550  13.999 -0.1269 -0.4094 -0.1146
15259TIP3    H167268   1.190   4.578  13.913 -0.9397 -1.9037 -0.3486
15259TIP3    H267269   1.266   4.626  14.035 -1.6374  0.9458 -0.9653
15260TIP3   OH267270   2.176   0.692  15.432  0.2608 -0.6258  0.3841
15260TIP3    H167271   2.084   0.706  15.454  0.2503 -0.4026  0.1978
15260TIP3    H267272   2.218   0.775  15.451  0.8793 -1.3758  2.7375
15261TIP3   OH267273   6.896   1.945  13.015 -0.0775  0.0619  0.1773
15261TIP3    H167274   6.884   1.867  12.962  0.3009 -1.4308  2.1799
15261TIP3    H267275   6.991   1.953  13.025 -0.1155  0.7180  0.0814
15262TIP3   OH267276   6.808   1.644   4.391 -0.2779 -0.2296 -0.2727
15262TIP3    H167277   6.797   1.729   4.433 -0.3847 -0.6090  0.4645
15262TIP3    H267278   6.769   1.656   4.304  0.6246  0.7781 -0.5613
15263TIP3   OH267279   5.951   5.509  12.192  0.4295 -0.0431  0.4552
15263TIP3    H167280   6.030   5.553  12.225  0.0659  0.2635  0.9245
15263TIP3    H267281   5.895   5.580  12.162 -0.0643 -0.1981  1.0028
15264TIP3   OH267282   2.127   5.628  14.199 -1.0133  0.0612  0.3213
15264TIP3    H167283   2.038   5.604  14.222 -0.5663 -0.2154  1.8337
15264TIP3    H267284   2.152   5.694  14.264 -0.2506  0.4246 -0.3231
15265TIP3   OH267285   6.675   5.293   2.400  0.2433 -0.2901 -0.0444
15265TIP3    H167286   6.661   5.222   2.338 -0.2343  1.6024 -2.2338
15265TIP3    H267287   6.594   5.296   2.452 -0.7285  0.0810 -1.5118
15266TIP3   OH267288   6.408   1.397  16.508  0.3063  0.1298 -0.2038
15266TIP3    H167289   6.383   1.337  16.578  0.2865 -0.3833 -0.6382
15266TIP3    H267290   6.430   1.479  16.552 -1.3094  0.3437  0.2793
15267TIP3   OH267291   5.915   4.642   4.995 -0.0302 -0.2525 -0.3681
15267TIP3    H167292   5.988   4.600   5.039 -0.6182 -0.8962 -0.0016
15267TIP3    H267293   5.857   4.571   4.969 -1.1075  0.3075  0.3837
15268TIP3   OH267294   2.829   3.118   1.842  0.1869  0.2444 -0.2997
15268TIP3    H167295   2.902   3.148   1.788  1.7385 -1.2366  0.8964
15268TIP3    H267296   2.812   3.029   1.813  1.1646 -0.6491  1.6586
15269TIP3   OH267297   2.934   0.403   0.967 -0.1613  0.4200 -0.0074
15269TIP3    H167298   2.886   0.406   1.050 -0.1545 -2.9290  0.2676
15269TIP3    H267299   2.866   0.403   0.900 -0.4065 -0.7358  0.2196
15270TIP3   OH267300   5.307   3.912   0.531 -0.3099 -0.2036 -0.0240
15270TIP3    H167301   5.344   3.995   0.561  0.2623 -0.6795  0.6255
15270TIP3    H267302   5.337   3.903   0.441  1.9868 -1.0093  0.7601
15271TIP3   OH267303   3.836   4.611   1.924 -0.3567 -0.2670 -0.2379
15271TIP3    H167304   3.806   4.574   2.007  0.9721 -0.5298  0.1500
15271TIP3    H267305   3.828   4.706   1.935  2.0778 -0.1444  1.1662
15272TIP3   OH267306   4.792   6.053   0.416  0.5448  0.0125  0.3360
15272TIP3    H167307   4.733   6.000   0.470  0.3171 -0.3495 -0.2580
15272TIP3    H267308   4.795   6.008   0.332  0.2606  1.0022 -0.2195
15273TIP3   OH267309   6.291   4.385  10.669 -0.6531  0.2325  0.7356
15273TIP3    H167310   6.377   4.413  10.638 -0.3315 -0.5087  0.9289
15273TIP3    H267311   6.243   4.360  10.589 -1.2110  1.9896  0.4844
15274TIP3   OH267312   4.158   4.868  15.194  0.9341 -0.3825 -0.5125
15274TIP3    H167313   4.082   4.813  15.172  0.4597 -0.1721  0.5300
15274TIP3    H267314   4.192   4.897  15.110 -0.7313  0.3026 -0.9892
15275TIP3   OH267315   3.501   2.340  12.674 -0.3219  0.4985 -0.7629
15275TIP3    H167316   3.474   2.429  12.694 -0.2275  0.4071 -0.1872
15275TIP3    H267317   3.509   2.298  12.760  1.0798  0.3689 -0.9217
15276TIP3   OH267318   4.124   3.107  12.642  0.7347 -0.0817  0.1458
15276TIP3    H167319   4.165   3.185  12.679 -1.2861  0.5185  1.2406
15276TIP3    H267320   4.138   3.039  12.708  0.9454 -0.1774  0.0034
15277TIP3   OH267321   3.510   2.495  11.479  0.0564  0.0524  0.0628
15277TIP3    H167322   3.523   2.587  11.503 -0.8798  0.2365 -0.1163
15277TIP3    H267323   3.539   2.446  11.556  1.1093  0.4650 -0.0573
15278TIP3   OH267324   4.024   4.997   2.815  0.2648 -0.5433  0.1144
15278TIP3    H167325   4.108   5.032   2.846 -0.1525  1.0678 -0.4841
15278TIP3    H267326   4.000   5.055   2.742 -0.7438 -1.7760 -0.5561
15279TIP3   OH267327   0.598   2.795  14.576  0.1728  0.6824  1.0122
15279TIP3    H167328   0.638   2.873  14.614  1.3243 -0.8370  3.0942
15279TIP3    H267329   0.552   2.827  14.498  1.0196  3.3283  1.5157
15280TIP3   OH267330   5.002   3.244   0.894 -0.7677 -1.0825  0.2229
15280TIP3    H167331   4.919   3.282   0.866 -1.2102 -0.9169  1.6780
15280TIP3    H267332   5.027   3.294   0.971  0.5553 -1.3115 -0.0306
15281TIP3   OH267333   5.146   5.745  13.117 -0.5576  0.2785 -0.1043
15281TIP3    H167334   5.118   5.768  13.029 -0.3340 -0.4344 -0.3709
15281TIP3    H267335   5.227   5.695  13.104  1.1862  2.7236  0.6574
15282TIP3   OH267336   2.641   0.138  12.756 -0.1732  0.8232  0.5149
15282TIP3    H167337   2.561   0.111  12.711  0.4594  1.2970 -0.9331
15282TIP3    H267338   2.610   0.176  12.838 -1.4211  0.8501  0.0528
15283TIP3   OH267339   0.006   3.426  11.185 -0.0146  0.0772 -0.4011
15283TIP3    H167340   0.042   3.515  11.179 -1.2345  0.5296 -1.4145
15283TIP3    H267341   0.073   3.371  11.144  0.5161  0.5975 -0.2503
15284TIP3   OH267342   5.991   1.541   2.554  0.4010  0.4716  0.0267
15284TIP3    H167343   6.069   1.574   2.508  0.0894  1.3761  0.1263
15284TIP3    H267344   6.021   1.461   2.598  2.1610  2.3452  2.5711
15285TIP3   OH267345   1.863   2.207   1.069 -0.3229 -0.6418 -0.3777
15285TIP3    H167346   1.917   2.128   1.079 -0.2364 -0.5672 -0.2551
15285TIP3    H267347   1.830   2.225   1.157  0.7737  0.2524 -0.1235
15286TIP3   OH267348   1.269   1.534  13.716 -0.1001  0.1144 -0.3503
15286TIP3    H167349   1.363   1.517  13.723  0.2228  1.2568 -1.6248
15286TIP3    H267350   1.252   1.602  13.781 -0.6338 -1.9712  1.8658
15287TIP3   OH267351   4.659   2.388  14.852 -0.0550  0.0360 -0.4970
15287TIP3    H167352   4.726   2.419  14.912  0.9170 -1.3111 -0.8383
15287TIP3    H267353   4.639   2.299  14.881 -0.7018 -0.0718 -1.2221
15288TIP3   OH267354   2.395   3.517   5.288 -0.2201  0.1226  0.0190
15288TIP3    H167355   2.364   3.533   5.199 -0.6772 -0.4501  0.0697
15288TIP3    H267356   2.487   3.542   5.286 -0.1935 -0.0144 -0.6485
15289TIP3   OH267357   1.607   3.104  13.332 -0.4390  0.6453  0.7051
15289TIP3    H167358   1.681   3.056  13.296 -0.0828  2.3039 -0.8645
15289TIP3    H267359   1.549   3.120  13.258 -1.3270  1.2528  1.4935
15290TIP3   OH267360   2.162   6.665  15.952  0.0040 -0.5753  0.0180
15290TIP3    H167361   2.167   6.726  16.025 -1.8362  0.7981 -0.9060
15290TIP3    H267362   2.132   6.718  15.878 -1.2529 -2.4911 -0.9448
15291TIP3   OH267363   0.974   0.815  11.076  0.0040  0.0346  0.2810
15291TIP3    H167364   0.920   0.891  11.052  0.4905  0.6486  1.0779
15291TIP3    H267365   0.927   0.775  11.149 -1.1689 -1.4866 -1.2254
15292TIP3   OH267366   0.195   3.210  11.128  0.3166  0.2654  0.4106
15292TIP3    H167367   0.239   3.126  11.141  2.4258  0.7750 -2.2638
15292TIP3    H267368   0.132   3.194  11.058  0.3487  0.7792  0.2584
15293TIP3   OH267369   6.383   6.620   5.463  0.2924 -0.0157 -0.1671
15293TIP3    H167370   6.358   6.572   5.542  1.7910  0.9770  0.9574
15293TIP3    H267371   6.476   6.637   5.474  0.3345  0.9399 -1.7427
15294TIP3   OH267372   6.883   0.405  14.442  0.9186 -0.2726  0.1762
15294TIP3    H167373   6.919   0.480  14.395 -1.0030  1.0631  0.7216
15294TIP3    H267374   6.887   0.333  14.379  0.7188  0.8482 -1.1746
15295TIP3   OH267375   2.173   3.724  14.973 -0.3692 -0.4430  0.4739
15295TIP3    H167376   2.199   3.810  14.939  0.3624 -0.5984  0.6052
15295TIP3    H267377   2.084   3.712  14.942  0.6822 -1.1828 -2.6596
15296TIP3   OH267378   1.479   5.183   3.497  0.1725 -1.2950 -0.2578
15296TIP3    H167379   1.449   5.207   3.409 -1.4159 -1.1969  0.2669
15296TIP3    H267380   1.419   5.230   3.556  2.2278 -0.0295  0.9300
15297TIP3   OH267381   1.199   5.820   1.218  0.4292 -0.0305 -0.7345
15297TIP3    H167382   1.205   5.887   1.149  0.0406 -1.1298 -1.8844
15297TIP3    H267383   1.184   5.739   1.170 -2.1788 -0.5214  0.7397
15298TIP3   OH267384   4.052   4.265  13.568  0.3429  0.4002  0.0260
15298TIP3    H167385   3.969   4.304  13.541  1.0025  1.7672 -0.1290
15298TIP3    H267386   4.056   4.280  13.662  0.3992  0.3419  0.0330
15299TIP3   OH267387   2.233   1.843   0.702  0.6141 -0.2006 -0.0406
15299TIP3    H167388   2.270   1.779   0.642 -0.4568 -0.5514 -0.3438
15299TIP3    H267389   2.284   1.923   0.686  0.2084 -0.2240 -1.5741
15300TIP3   OH267390   4.789   1.274   0.899  0.0922  0.9720 -0.5305
15300TIP3    H167391   4.776   1.196   0.952  2.4651  0.0086 -1.2179
15300TIP3    H267392   4.802   1.345   0.963  0.4876  0.3046  0.1448
15301TIP3   OH267393   1.959   5.430   5.831 -0.8727 -0.3003  0.3987
15301TIP3    H167394   1.898   5.462   5.897 -0.7346  0.1267  0.3195
15301TIP3    H267395   2.032   5.492   5.832 -0.0156 -1.2796  1.0988
15302TIP3   OH267396   5.609   6.207   0.632  0.3335  0.1151 -0.7990
15302TIP3    H167397   5.524   6.237   0.600  0.7349  0.6652 -1.3626
15302TIP3    H267398   5.588   6.152   0.707 -0.6021 -0.7496 -1.6639
15303TIP3   OH267399   4.725   0.895   2.937  0.2245 -0.0215  0.8120
15303TIP3    H167400   4.666   0.874   3.011  0.7861 -1.9314  0.7725
15303TIP3    H267401   4.813   0.881   2.972  0.5382  0.0329  0.0563
15304TIP3   OH267402   1.071   0.567   0.795 -0.0444  0.0845  0.0217
15304TIP3    H167403   1.027   0.558   0.879  1.9206  0.6925  1.1914
15304TIP3    H267404   1.163   0.547   0.814  0.4168  0.0165 -2.0401
15305TIP3   OH267405   3.941   4.048   0.966 -0.4126 -0.1817  0.0427
15305TIP3    H167406   3.909   4.015   1.050 -0.6299 -0.6225 -0.2139
15305TIP3    H267407   4.030   4.013   0.959  0.0757  0.8722  0.6580
15306TIP3   OH267408   6.761   0.016   6.012  0.6416  0.2976 -0.3871
15306TIP3    H167409   6.850   0.017   6.047  0.5924  0.7017 -0.2645
15306TIP3    H267410   6.717   0.088   6.057  0.5927  0.8648 -1.3122
15307TIP3   OH267411   6.328   3.773   1.803 -0.9714  0.0077  0.2224
15307TIP3    H167412   6.358   3.729   1.882  3.2474 -0.9079 -1.6361
15307TIP3    H267413   6.385   3.849   1.795 -2.5820  1.1554 -1.0357
15308TIP3   OH267414   3.062   3.651  11.974 -0.8185  0.3866 -0.0788
15308TIP3    H167415   3.009   3.599  11.913 -0.3726 -0.3980  0.1838
15308TIP3    H267416   3.132   3.687  11.920 -0.8564  0.3181 -0.1738
15309TIP3   OH267417   3.557   6.361   5.163 -0.6430  0.4944  0.3887
15309TIP3    H167418   3.491   6.360   5.094 -2.0467 -0.2751  1.6859
15309TIP3    H267419   3.538   6.284   5.216  1.4564  0.1174  0.6960
15310TIP3   OH267420   1.423   0.645  11.343  0.1409  0.4925  0.1186
15310TIP3    H167421   1.498   0.676  11.293  1.2311 -1.2742  0.5623
15310TIP3    H267422   1.459   0.579  11.401 -1.6242  0.2714  1.0272
15311TIP3   OH267423   4.274   5.001  12.076  0.0617 -0.7587  0.2425
15311TIP3    H167424   4.313   5.054  12.145 -0.7064 -0.2848  0.3290
15311TIP3    H267425   4.343   4.991  12.011  0.5871 -0.6676  0.7789
15312TIP3   OH267426   1.311   4.957   0.660 -0.1339  0.1734 -0.0081
15312TIP3    H167427   1.256   5.004   0.723  1.9800  3.0947 -0.1488
15312TIP3    H267428   1.401   4.978   0.686  0.8515 -0.9168 -2.2756
15313TIP3   OH267429   5.097   5.664   2.528 -0.5764 -0.1226  0.1441
15313TIP3    H167430   5.084   5.686   2.435 -0.5677 -0.4176  0.0733
15313TIP3    H267431   5.052   5.734   2.575 -1.6907 -0.6592 -0.0974
15314TIP3   OH267432   4.114   4.366  12.470  0.3819  0.3218  0.3691
15314TIP3    H167433   4.062   4.420  12.410 -0.3547 -0.5563  0.1984
15314TIP3    H267434   4.204   4.375  12.437  0.2789  1.4221  0.3404
15315TIP3   OH267435   2.891   6.851   1.261 -0.5794 -0.0207 -0.0054
15315TIP3    H167436   2.830   6.887   1.196 -0.2373 -0.0170 -0.3251
15315TIP3    H267437   2.835   6.802   1.321 -0.8630 -0.3094 -0.4970
15316TIP3   OH267438   6.091   5.731  12.309 -0.2667  0.6085 -0.3205
15316TIP3    H167439   6.024   5.796  12.329 -0.5696  0.6108 -1.2921
15316TIP3    H267440   6.161   5.780  12.265  0.1362  0.5142  0.2084
15317TIP3   OH267441   0.847   2.285  10.950  0.0558  0.4791  0.0382
15317TIP3    H167442   0.755   2.299  10.975 -0.0480 -0.7946  0.4093
15317TIP3    H267443   0.843   2.257  10.858  0.2331  2.2358 -0.5516
15318TIP3   OH267444   5.361   3.450   3.063  0.3928 -0.2841 -0.5015
15318TIP3    H167445   5.332   3.486   2.979 -1.2651  0.3513  0.2905
15318TIP3    H267446   5.305   3.373   3.077  1.1559 -0.8133 -0.3158
15319TIP3   OH267447   2.722   0.714   1.796  0.1452 -0.1157  0.2607
15319TIP3    H167448   2.771   0.779   1.745  1.9342  0.9358  3.1138
15319TIP3    H267449   2.780   0.638   1.800  0.5661  0.2562  1.6663
15320TIP3   OH267450   2.082   2.154  13.061 -0.6325 -0.3418 -0.0014
15320TIP3    H167451   2.167   2.113  13.048 -0.7688 -0.5533 -0.2107
15320TIP3    H267452   2.082   2.178  13.154 -0.6616 -1.0513  0.1857
15321TIP3   OH267453   5.157   5.072   1.619  0.5086  0.7559  0.6493
15321TIP3    H167454   5.146   5.157   1.662 -0.2519 -0.4884  3.1113
15321TIP3    H267455   5.069   5.035   1.616  1.1209 -1.0006  2.0901
15322TIP3   OH267456   2.846   6.407  12.943  0.0850  0.0253  0.2581
15322TIP3    H167457   2.801   6.462  13.008  0.8233 -1.1469  1.8427
15322TIP3    H267458   2.933   6.446  12.936 -0.6772  1.5077 -1.8157
15323TIP3   OH267459   5.885   5.023   3.743  0.3425  0.1991 -0.4586
15323TIP3    H167460   5.892   4.961   3.816 -2.5903 -1.3756 -1.3594
15323TIP3    H267461   5.840   5.098   3.780 -0.1634 -0.1398 -0.3771
15324TIP3   OH267462   5.899   0.785  14.853  0.9394 -0.0610  0.2255
15324TIP3    H167463   5.847   0.765  14.931 -1.8091  0.2637 -1.3930
15324TIP3    H267464   5.955   0.858  14.880 -1.0258  1.0657  1.5216
15325TIP3   OH267465   3.313   0.872   2.857  0.5252 -0.0413  0.9086
15325TIP3    H167466   3.240   0.811   2.845  0.3540  0.2465  0.4418
15325TIP3    H267467   3.356   0.876   2.771  0.6035  0.4013  0.9624
15326TIP3   OH267468   2.364   3.430  11.656 -0.5813 -0.4320  0.2376
15326TIP3    H167469   2.347   3.413  11.563  0.0437  0.9674 -0.1475
15326TIP3    H267470   2.437   3.372  11.677  0.1974  0.2356 -0.5282
15327TIP3   OH267471   3.857   4.850   2.428 -0.7270 -0.5543 -0.5314
15327TIP3    H167472   3.778   4.888   2.390 -0.3722 -0.8507 -1.5956
15327TIP3    H267473   3.920   4.846   2.355  0.5473  0.4139  0.4678
15328TIP3   OH267474   0.134   0.485   2.425 -0.3335 -0.4463 -0.1158
15328TIP3    H167475   0.133   0.562   2.481 -0.3995 -0.5413  0.0144
15328TIP3    H267476   0.146   0.411   2.486 -1.1440 -0.6148 -0.1552
15329TIP3   OH267477   0.255   0.285   9.522 -0.2416 -0.7538 -0.5764
15329TIP3    H167478   0.207   0.260   9.601  1.3492  0.4437  0.8245
15329TIP3    H267479   0.347   0.270   9.544  0.2484 -0.0999 -2.0921
15330TIP3   OH267480   4.300   4.815   4.195  0.2309  0.3326 -0.0513
15330TIP3    H167481   4.311   4.793   4.103  1.3278  0.2127  0.0932
15330TIP3    H267482   4.208   4.798   4.213  0.3664 -1.2668 -0.7053
15331TIP3   OH267483   3.732   4.983  15.550 -0.5692  0.6602  0.2202
15331TIP3    H167484   3.729   5.011  15.459  2.6795  1.6824  0.3029
15331TIP3    H267485   3.811   4.929  15.556 -0.0729  1.5207  2.6311
15332TIP3   OH267486   4.629   0.356   1.390 -0.1750  0.1167 -0.0323
15332TIP3    H167487   4.567   0.338   1.320  0.5002 -2.5133 -0.0698
15332TIP3    H267488   4.598   0.304   1.464  2.1270 -1.6017 -0.1772
15333TIP3   OH267489   0.941   0.820   5.498  0.0927  0.3098  0.2868
15333TIP3    H167490   1.034   0.800   5.484 -0.3395 -0.7461 -1.4445
15333TIP3    H267491   0.900   0.803   5.413 -1.6697  0.9286  0.9648
15334TIP3   OH267492   4.762   6.380  11.113 -0.3104 -0.2603  0.1587
15334TIP3    H167493   4.768   6.412  11.024 -0.1152 -1.2528 -0.2011
15334TIP3    H267494   4.721   6.451  11.162  1.9949  1.3688 -0.1250
15335TIP3   OH267495   0.623   0.814   1.343 -0.0502 -0.2095  0.2760
15335TIP3    H167496   0.637   0.771   1.259 -1.8780  4.3011 -2.6606
15335TIP3    H267497   0.535   0.787   1.370  0.0946 -0.7764  0.1963
15336TIP3   OH267498   1.865   1.141  12.580  0.1315  0.0091 -0.6942
15336TIP3    H167499   1.927   1.212  12.594  0.0390  0.0492 -0.4932
15336TIP3    H267500   1.790   1.183  12.537 -0.1445  0.1303 -0.0967
15337TIP3   OH267501   5.536   1.825   4.269  0.2591  0.5606 -0.6194
15337TIP3    H167502   5.593   1.761   4.310  1.9340  1.8755 -0.7370
15337TIP3    H267503   5.486   1.864   4.341  1.0161  0.8014 -0.2166
15338TIP3   OH267504   1.571   5.167  11.311  0.4040 -0.3027  0.3586
15338TIP3    H167505   1.507   5.162  11.382  0.7065  0.8049  0.7212
15338TIP3    H267506   1.654   5.145  11.352  0.4885 -0.2354  0.2219
15339TIP3   OH267507   5.058   1.819  14.501 -0.4494 -0.6394 -0.6669
15339TIP3    H167508   4.963   1.806  14.496 -0.1777 -2.3686 -2.0446
15339TIP3    H267509   5.074   1.899  14.451 -1.0876 -0.9337 -1.3620
15340TIP3   OH267510   5.043   6.250  16.084  0.5235  0.0186  0.2387
15340TIP3    H167511   5.036   6.186  16.014 -0.0367 -1.2473  1.3964
15340TIP3    H267512   5.134   6.280  16.081  0.5753 -0.2209 -0.8318
15341TIP3   OH267513   2.176   3.653   1.410 -0.0677  0.1540 -0.2079
15341TIP3    H167514   2.183   3.743   1.377 -0.0184 -0.8464 -3.2414
15341TIP3    H267515   2.152   3.663   1.502 -1.7510  3.2710 -0.8399
15342TIP3   OH267516   4.261   4.157  14.630  0.4190  0.4117 -0.5195
15342TIP3    H167517   4.328   4.221  14.608  1.5240 -0.8255 -0.8291
15342TIP3    H267518   4.248   4.167  14.724  0.8297  0.8564 -0.5077
15343TIP3   OH267519   6.409   0.092  11.986 -0.2926  0.5049  0.2854
15343TIP3    H167520   6.470   0.125  11.921  0.8682 -0.2304  0.9824
15343TIP3    H267521   6.454   0.104  12.070 -0.6642 -0.9793  0.7276
15344TIP3   OH267522   6.124   3.888  13.014  0.2069  0.0045  0.3776
15344TIP3    H167523   6.153   3.978  13.030  0.3462 -0.1962  1.2851
15344TIP3    H267524   6.029   3.891  13.029  0.1720  0.0496  0.1563
15345TIP3   OH267525   0.117   5.582  16.864 -0.2248 -0.1354 -0.2880
15345TIP3    H167526   0.094   5.671  16.890  1.1885  0.4491 -0.9209
15345TIP3    H267527   0.195   5.592  16.810 -0.6539 -1.6768 -1.2773
15346TIP3   OH267528   1.863   0.655   1.647 -0.1417  0.0352  0.1323
15346TIP3    H167529   1.946   0.669   1.693  0.6580  0.3344 -1.3325
15346TIP3    H267530   1.827   0.743   1.636 -1.1952 -0.1645  1.6462
15347TIP3   OH267531   3.781   0.323   1.830  0.0332 -0.2901  0.3253
15347TIP3    H167532   3.760   0.400   1.777 -2.4262 -0.3762  1.0734
15347TIP3    H267533   3.809   0.257   1.767 -1.0698  0.1780 -0.6836
15348TIP3   OH267534   0.551   0.040  12.122  0.1006 -0.1126 -0.1345
15348TIP3    H167535   0.641   0.064  12.144  0.0379  1.5463 -1.5101
15348TIP3    H267536   0.498   0.083  12.190  0.3194 -1.4662  0.9462
15349TIP3   OH267537   0.114   2.776  12.030  0.1478 -0.4249 -0.2818
15349TIP3    H167538   0.037   2.751  12.081  0.4475 -0.2440  0.2625
15349TIP3    H267539   0.186   2.726  12.069  0.3726 -0.3211 -0.5564
15350TIP3   OH267540   3.240   3.748  11.744  0.2997  0.0905  0.2449
15350TIP3    H167541   3.204   3.826  11.702  1.5399 -0.3063 -1.6582
15350TIP3    H267542   3.300   3.782  11.810  0.6023  0.7470 -0.3627
15351TIP3   OH267543   0.981   0.116  13.843  0.1034 -0.4306 -0.0422
15351TIP3    H167544   1.034   0.187  13.807 -1.6028  1.1802  0.5183
15351TIP3    H267545   0.928   0.086  13.769 -1.5794  1.1752  0.4661
15352TIP3   OH267546   6.055   2.433  10.930 -0.1579  0.1109 -0.0257
15352TIP3    H167547   6.098   2.362  10.881 -0.2367  0.1199 -0.1078
15352TIP3    H267548   6.005   2.389  10.998 -0.4240  0.0691 -0.2439
15353TIP3   OH267549   2.631   6.756   5.994  0.6361  0.3635  0.1617
15353TIP3    H167550   2.701   6.797   6.046  1.4187 -0.5744 -0.1065
15353TIP3    H267551   2.554   6.760   6.050  0.7634  1.8983  0.2573
15354TIP3   OH267552   4.978   1.612   3.782 -0.3444  0.1763  0.3151
15354TIP3    H167553   5.072   1.598   3.769 -0.5877  0.0766 -1.6702
15354TIP3    H267554   4.967   1.707   3.778 -0.5594  0.1177 -1.8299
15355TIP3   OH267555   4.235   4.739  16.849 -0.3979  0.1572 -0.5187
15355TIP3    H167556   4.279   4.811  16.804 -2.5165  0.4416 -2.2452
15355TIP3    H267557   4.197   4.779  16.927  0.7337  0.2972 -0.0225
15356TIP3   OH267558   6.670   2.474  14.012 -0.4332  0.4557  0.4452
15356TIP3    H167559   6.698   2.443  13.926  0.5543  1.7245  0.2874
15356TIP3    H267560   6.690   2.401  14.071 -1.5234 -0.5944 -0.4418
15357TIP3   OH267561   1.258   0.477   3.966  0.0454  0.4162  0.4786
15357TIP3    H167562   1.257   0.401   3.908 -0.3994 -0.1637  1.2312
15357TIP3    H267563   1.201   0.541   3.924 -0.6051 -0.1592  0.4877
15358TIP3   OH267564   5.956   0.377  13.798  0.4727  0.0795  0.0846
15358TIP3    H167565   5.918   0.455  13.838 -1.0289  0.0105 -1.1090
15358TIP3    H267566   5.895   0.306  13.820  1.0737 -0.4810 -0.0291
15359TIP3   OH267567   6.520   4.720  14.132  0.2837 -0.6734  0.4359
15359TIP3    H167568   6.579   4.644  14.142  3.4393  1.7700  2.6420
15359TIP3    H267569   6.560   4.772  14.063 -0.4984  0.0762  0.5375
15360TIP3   OH267570   3.709   6.448   5.390  0.0876  0.4408 -0.0445
15360TIP3    H167571   3.671   6.456   5.303  0.2734  2.2777 -0.0034
15360TIP3    H267572   3.682   6.361   5.420 -0.1115 -0.1630 -1.8494
15361TIP3   OH267573   0.787   5.347   4.839  0.2633  0.4637  0.3475
15361TIP3    H167574   0.786   5.321   4.931  0.3154  0.9759  0.4997
15361TIP3    H267575   0.762   5.268   4.791  0.3773  0.1548  0.7905
15362TIP3   OH267576   0.629   4.288  15.436 -0.1145 -0.1955  0.3138
15362TIP3    H167577   0.591   4.264  15.352  0.9077 -0.8895  0.0404
15362TIP3    H267578   0.708   4.337  15.414  2.2779 -3.5328  0.7233
15363TIP3   OH267579   6.316   6.379  15.999 -0.7009 -0.5410  0.8766
15363TIP3    H167580   6.334   6.435  15.924 -3.1428  1.3280  1.5098
15363TIP3    H267581   6.334   6.290  15.969 -1.3016  0.1598 -1.8172
15364TIP3   OH267582   3.724   5.493  15.591  0.7126  0.3902  0.0535
15364TIP3    H167583   3.700   5.585  15.576 -0.2685  0.1525  0.1261
15364TIP3    H267584   3.708   5.450  15.507 -0.9490 -0.1400  0.6005
15365TIP3   OH267585   6.239   3.771  12.339  0.0595  0.2677  0.0418
15365TIP3    H167586   6.214   3.795  12.250 -0.9962 -0.8139  0.0232
15365TIP3    H267587   6.324   3.727  12.328  1.0152  2.0371 -0.1422
15366TIP3   OH267588   1.153   1.660  12.742 -0.3231 -0.3418  0.4220
15366TIP3    H167589   1.167   1.565  12.741  0.2704 -0.2620  0.8759
15366TIP3    H267590   1.180   1.688  12.829  1.3905  0.5113 -0.3390
15367TIP3   OH267591   5.220   4.728   3.846  0.4979  0.0790 -0.0626
15367TIP3    H167592   5.315   4.726   3.857  0.6438  0.4895 -1.1421
15367TIP3    H267593   5.192   4.638   3.865  1.1911 -0.2297 -0.4473
15368TIP3   OH267594   3.877   5.499   1.881  0.0371 -0.3447  0.8725
15368TIP3    H167595   3.867   5.413   1.840 -2.1918  0.5996 -0.7422
15368TIP3    H267596   3.816   5.497   1.955  0.0630 -0.2020  0.8985
15369TIP3   OH267597   3.735   1.111  15.773 -0.5367 -0.2765  0.0893
15369TIP3    H167598   3.754   1.138  15.863 -1.4694  0.6078  0.0427
15369TIP3    H267599   3.641   1.092  15.773 -0.2284 -1.8833 -0.3094
15370TIP3   OH267600   5.493   5.260  15.371  0.3003 -0.0905  0.4417
15370TIP3    H167601   5.515   5.181  15.420  0.5914  0.1974  0.7741
15370TIP3    H267602   5.409   5.288  15.407 -0.0757 -0.5593 -0.0602
15371TIP3   OH267603   3.534   5.729   3.041 -0.2311  0.1115 -0.0033
15371TIP3    H167604   3.484   5.771   3.110 -1.2903  1.6614 -1.6267
15371TIP3    H267605   3.559   5.801   2.982  1.4657 -1.0158 -0.7471
15372TIP3   OH267606   6.345   5.401   0.635  0.0363  0.3198 -0.3237
15372TIP3    H167607   6.273   5.347   0.669  0.1098  2.2853  3.5483
15372TIP3    H267608   6.303   5.458   0.570 -1.2497 -0.5633 -0.3013
15373TIP3   OH267609   4.796   6.032  12.309  0.7463 -0.0619 -0.6301
15373TIP3    H167610   4.825   6.054  12.398  1.1949  0.0119 -0.7942
15373TIP3    H267611   4.746   5.951  12.320 -0.4054  0.6988 -0.1068
15374TIP3   OH267612   1.108   4.499   2.426 -0.7969 -0.1358  0.1725
15374TIP3    H167613   1.027   4.496   2.476 -0.4685 -0.7713  0.6717
15374TIP3    H267614   1.088   4.449   2.346 -0.4017 -1.7943  1.0565
15375TIP3   OH267615   5.626   5.336   3.056  0.3632  0.3490  1.0403
15375TIP3    H167616   5.545   5.378   3.084 -0.0136 -0.3853  1.0629
15375TIP3    H267617   5.602   5.245   3.036  0.3673  0.9850 -2.5956
15376TIP3   OH267618   3.442   1.616  14.641 -0.4918  0.6423  0.2282
15376TIP3    H167619   3.374   1.662  14.591  0.8844  0.7475 -1.6578
15376TIP3    H267620   3.511   1.599  14.577  0.3232 -1.4348  1.5555
15377TIP3   OH267621   5.976   5.533  16.851 -0.6671 -0.2683  0.4589
15377TIP3    H167622   5.929   5.616  16.859 -1.2536 -0.6367  0.9340
15377TIP3    H267623   5.911   5.466  16.874  0.3812 -0.7278  2.2513
15378TIP3   OH267624   3.584   1.879   3.256  0.4078  0.3347  0.3528
15378TIP3    H167625   3.585   1.974   3.262 -0.6279  0.2567  2.4357
15378TIP3    H267626   3.645   1.850   3.324  1.3298 -0.5024 -0.7974
15379TIP3   OH267627   6.157   3.535  11.811  0.3364  0.2531  0.0436
15379TIP3    H167628   6.141   3.524  11.717  0.6916  3.1812 -0.4601
15379TIP3    H267629   6.222   3.468  11.832  0.6483 -0.1348 -1.9258
15380TIP3   OH267630   3.164   0.276  15.533 -0.0826  0.2499 -0.5574
15380TIP3    H167631   3.178   0.295  15.626  1.5506 -2.5842 -0.1086
15380TIP3    H267632   3.225   0.335  15.487  1.3269 -0.3912  0.4119
15381TIP3   OH267633   1.163   4.571  16.317  0.0251 -0.2242 -0.3192
15381TIP3    H167634   1.070   4.589  16.307  0.0606 -0.4942 -1.3291
15381TIP3    H267635   1.205   4.656  16.304 -0.1529  0.3155  2.1941
15382TIP3   OH267636   0.331   3.012   3.164 -0.4253 -0.7544  0.0366
15382TIP3    H167637   0.264   2.967   3.215  0.1709 -1.4951  0.1854
15382TIP3    H267638   0.285   3.043   3.086 -0.9568 -1.1834  0.1727
15383TIP3   OH267639   5.491   4.791  13.525  0.0688 -0.3599 -0.5453
15383TIP3    H167640   5.545   4.760  13.598  1.9217 -0.4467 -1.8650
15383TIP3    H267641   5.438   4.861  13.562 -0.5664 -1.7527  1.3311
15384TIP3   OH267642   4.964   1.482  16.412 -0.3715  0.5772  0.4388
15384TIP3    H167643   4.952   1.562  16.360 -2.1587  0.0565 -0.0408
15384TIP3    H267644   4.889   1.427  16.388  0.1869 -0.7608  1.6340
15385TIP3   OH267645   4.135   5.915  11.761 -0.2104 -0.4577 -0.2590
15385TIP3    H167646   4.216   5.946  11.801 -0.1902 -0.8589  0.0192
15385TIP3    H267647   4.079   5.993  11.756  0.7641  0.1900 -1.9361
15386TIP3   OH267648   6.036   6.057  12.907  0.3680 -0.1510  0.5651
15386TIP3    H167649   5.981   6.076  12.982  1.1283  0.5152  0.9724
15386TIP3    H267650   6.117   6.021  12.944  0.6318 -0.0988  0.0592
15387TIP3   OH267651   1.266   2.312  12.204  0.2536 -0.7229 -0.1540
15387TIP3    H167652   1.176   2.289  12.179  0.3103 -1.5720  0.3694
15387TIP3    H267653   1.268   2.298  12.298  2.0596 -5.0593 -0.5745
15388TIP3   OH267654   5.919   5.054  15.817 -0.1198  0.0434 -0.2516
15388TIP3    H167655   5.997   5.076  15.869  0.1115  1.5347 -1.1715
15388TIP3    H267656   5.949   5.060  15.726 -1.1524 -0.0296 -0.6072
15389TIP3   OH267657   4.521   3.442  11.417  0.0661  0.0776 -0.0760
15389TIP3    H167658   4.608   3.479  11.431  0.7860 -1.0955 -1.2496
15389TIP3    H267659   4.536   3.349  11.404 -1.4799 -0.3005  0.6210
15390TIP3   OH267660   6.779   6.680   5.552  0.4611  0.3385  0.2840
15390TIP3    H167661   6.869   6.711   5.542  1.2261 -1.7391  0.1947
15390TIP3    H267662   6.780   6.632   5.635 -0.2344 -0.7457 -0.3151
15391TIP3   OH267663   2.499   2.302  11.742  0.3498  0.3104 -0.0669
15391TIP3    H167664   2.589   2.285  11.717  0.9027  0.2955  1.8090
15391TIP3    H267665   2.503   2.384  11.791 -1.0325  1.5676 -1.9142
15392TIP3   OH267666   6.775   0.243   0.309 -0.1229  0.8373  0.0339
15392TIP3    H167667   6.867   0.253   0.287 -0.2176 -0.2766 -0.9554
15392TIP3    H267668   6.774   0.182   0.383 -0.0907  0.1048 -0.5512
15393TIP3   OH267669   6.485   1.500  14.813  0.0505  0.1406 -0.0023
15393TIP3    H167670   6.548   1.441  14.773 -0.2185  0.3506 -0.7442
15393TIP3    H267671   6.440   1.541  14.740 -1.2518 -0.3157  0.5098
15394TIP3   OH267672   1.668   1.489   5.978 -0.3794 -0.2199 -0.1317
15394TIP3    H167673   1.741   1.502   6.038 -0.0199 -0.0575 -0.6073
15394TIP3    H267674   1.649   1.576   5.944  0.1240 -0.4697 -1.0812
15395TIP3   OH267675   6.650   2.355   5.009 -0.9822 -0.2460  0.0578
15395TIP3    H167676   6.594   2.382   5.082 -1.8913  0.9046 -1.0187
15395TIP3    H267677   6.722   2.307   5.050  0.5111  3.3695  2.1493
15396TIP3   OH267678   1.835   3.002  11.783 -0.2361  0.1909 -0.2865
15396TIP3    H167679   1.765   2.948  11.821 -0.1915 -0.2098 -0.7651
15396TIP3    H267680   1.880   3.039  11.859 -0.2735 -0.4473  0.0576
15397TIP3   OH267681   0.892   2.555  15.966  1.0049 -0.0962 -0.4662
15397TIP3    H167682   0.952   2.488  16.000  0.2086 -0.9656 -0.7217
15397TIP3    H267683   0.823   2.505  15.922  1.3223  0.9677 -2.2269
15398TIP3   OH267684   5.530   0.261  14.529 -0.7979  0.4241 -0.1075
15398TIP3    H167685   5.606   0.254  14.471 -2.2102 -0.4492 -1.9753
15398TIP3    H267686   5.501   0.352  14.518 -0.8392  0.3682 -0.4967
15399TIP3   OH267687   1.217   0.258  14.672 -0.0181  0.3899  0.1395
15399TIP3    H167688   1.281   0.194  14.703 -0.5473  0.1648  0.7908
15399TIP3    H267689   1.132   0.215  14.686 -0.3569  1.0749  0.2052
15400TIP3   OH267690   5.311   6.000  14.655  0.2260  0.2423  0.2081
15400TIP3    H167691   5.285   6.089  14.635  0.1912  0.2425  0.2565
15400TIP3    H267692   5.265   5.978  14.736 -0.3668 -0.0856 -0.2095
15401TIP3   OH267693   0.569   4.901   2.005 -0.5264  0.0002  0.3181
15401TIP3    H167694   0.485   4.904   1.959 -0.7470 -3.0089  0.2972
15401TIP3    H267695   0.622   4.840   1.952  0.7304 -0.1623  1.7150
15402TIP3   OH267696   2.736   2.684  11.709  0.4759  0.1081 -0.4647
15402TIP3    H167697   2.724   2.713  11.618 -1.7860  2.5468  0.4672
15402TIP3    H267698   2.830   2.682  11.722  0.8535 -0.3654 -2.8539
15403TIP3   OH267699   5.280   0.577  10.725 -0.2215 -0.1509 -0.3785
15403TIP3    H167700   5.373   0.601  10.717 -0.1055 -0.5179 -0.1498
15403TIP3    H267701   5.233   0.660  10.717  0.2629  0.5221  2.4254
15404TIP3   OH267702   5.128   3.577   6.602 -0.6059  0.0844  0.1363
15404TIP3    H167703   5.121   3.493   6.556 -0.6786 -0.2463  0.7315
15404TIP3    H267704   5.197   3.563   6.667 -1.2476  0.1843  0.8540
15405TIP3   OH267705   5.973   1.376  14.036  0.0006  0.7453  0.1908
15405TIP3    H167706   6.015   1.431  14.103  0.5551  0.7592 -0.1610
15405TIP3    H267707   6.015   1.402  13.954  2.2490 -2.0352  0.3230
15406TIP3   OH267708   5.013   0.891   4.142  0.4228 -0.1824 -0.3035
15406TIP3    H167709   4.955   0.966   4.150  0.7355  0.1580 -1.0762
15406TIP3    H267710   5.086   0.923   4.089  0.6568 -0.9752 -0.4779
15407TIP3   OH267711   3.047   3.044   2.302 -0.3982  0.3433 -0.5745
15407TIP3    H167712   3.078   3.134   2.314  0.4840 -0.0814  0.5178
15407TIP3    H267713   3.062   3.025   2.210 -1.5044  1.6293 -1.0576
15408TIP3   OH267714   4.928   5.723   0.754 -0.0479 -0.1418 -0.0225
15408TIP3    H167715   4.960   5.813   0.757 -1.9305  0.7233 -2.7445
15408TIP3    H267716   5.008   5.670   0.747  1.0432  1.6164 -2.2319
15409TIP3   OH267717   0.432   6.261   3.034  0.0357 -0.3692  0.3138
15409TIP3    H167718   0.376   6.262   2.956  0.5658  1.1451 -0.0735
15409TIP3    H267719   0.485   6.182   3.024  0.0525 -0.2292 -0.8481
15410TIP3   OH267720   1.689   1.744  14.825  0.2883 -0.0423 -1.3611
15410TIP3    H167721   1.689   1.659  14.870  0.0088 -0.0874 -1.4446
15410TIP3    H267722   1.601   1.752  14.789 -1.1014  2.0995  2.0645
15411TIP3   OH267723   0.051   6.617   3.479 -0.1817 -0.4030 -0.1426
15411TIP3    H167724  -0.027   6.594   3.428 -0.8858  2.7249 -0.7274
15411TIP3    H267725   0.044   6.565   3.559 -3.4914  0.4852  0.3005
15412TIP3   OH267726   6.591   5.014  12.380  0.0872 -0.0790  0.1766
15412TIP3    H167727   6.498   4.997  12.389 -0.2574  0.5532 -1.8373
15412TIP3    H267728   6.620   4.957  12.310  0.7149  1.3221 -0.7532
15413TIP3   OH267729   2.734   6.763  13.323 -0.4562  0.0045  0.2071
15413TIP3    H167730   2.689   6.841  13.354  0.5750  0.8301 -0.3094
15413TIP3    H267731   2.827   6.787  13.323 -0.1631 -1.0609 -0.3946
15414TIP3   OH267732   0.987   1.113  16.446  0.2699  0.2962  0.0340
15414TIP3    H167733   1.072   1.109  16.401  0.5089  1.1717  0.3797
15414TIP3    H267734   0.980   1.204  16.474 -0.4489  0.0511  0.6727
15415TIP3   OH267735   4.114   1.389   0.673  0.1221 -0.1524 -0.1627
15415TIP3    H167736   4.025   1.357   0.687  0.1826  0.2607  1.3546
15415TIP3    H267737   4.161   1.314   0.635 -0.7785 -0.4715 -0.6816
15416TIP3   OH267738   5.136   5.288   5.188  0.3452  0.1701 -0.1600
15416TIP3    H167739   5.108   5.351   5.121  1.2221 -0.4745 -1.1507
15416TIP3    H267740   5.228   5.310   5.204  0.0899  0.4450  0.9976
15417TIP3   OH267741   6.670   1.075  13.197  0.0208 -0.2529  0.3874
15417TIP3    H167742   6.629   1.092  13.282 -0.4663 -0.9449  0.3069
15417TIP3    H267743   6.762   1.057  13.218  0.6261  2.5072  0.4516
15418TIP3   OH267744   4.233   2.957  13.724 -0.7257  0.1417 -0.0572
15418TIP3    H167745   4.308   3.014  13.740  0.0362 -0.9495  0.4141
15418TIP3    H267746   4.179   2.964  13.802 -0.1531 -0.4782  0.4058
15419TIP3   OH267747   0.434   2.939  13.567  0.1295 -0.1031  0.2399
15419TIP3    H167748   0.422   2.923  13.660  2.3506  1.2722  0.8370
15419TIP3    H267749   0.346   2.959  13.535 -0.8064 -1.3957  1.8274
15420TIP3   OH267750   1.998   1.928  16.256 -0.6827 -0.1311  0.5602
15420TIP3    H167751   1.913   1.893  16.228 -0.3137 -0.4221 -0.2411
15420TIP3    H267752   1.977   1.995  16.320 -1.7064  1.6319 -1.4726
15421TIP3   OH267753   3.374   0.028  10.233 -0.0286 -0.1560 -0.9069
15421TIP3    H167754   3.314   0.036  10.159 -0.4617  0.9799 -0.4503
15421TIP3    H267755   3.397   0.118  10.256  1.0622 -0.5366 -0.4340
15422TIP3   OH267756   5.775   4.208  15.762  0.4232  0.5727 -0.3240
15422TIP3    H167757   5.788   4.168  15.848  1.6201 -2.4594 -1.7613
15422TIP3    H267758   5.682   4.194  15.743  0.5823 -0.6179 -0.3171
15423TIP3   OH267759   1.933   3.684   0.288  0.2630  0.0927  0.3310
15423TIP3    H167760   1.844   3.692   0.254  0.3566  0.4377  0.1614
15423TIP3    H267761   1.922   3.654   0.379  0.0198 -1.0033 -0.0499
15424TIP3   OH267762   3.408   6.578  16.570  0.3116  0.5128  0.0434
15424TIP3    H167763   3.475   6.566  16.502  1.0448  3.7901  0.0513
15424TIP3    H267764   3.325   6.575  16.522  0.5962 -0.5611 -0.4245
15425TIP3   OH267765   3.942   6.247  14.078  0.3575  0.1895 -0.1936
15425TIP3    H167766   3.893   6.238  14.160  3.1223  3.0318  1.9982
15425TIP3    H267767   3.882   6.294  14.019 -1.1291 -0.5147  0.7108
15426TIP3   OH267768   0.849   1.858   0.169  0.5989  0.5539 -0.1859
15426TIP3    H167769   0.767   1.896   0.140 -0.5470 -1.1941  0.5381
15426TIP3    H267770   0.868   1.789   0.105  0.2803 -0.5148  0.8201
15427TIP3   OH267771   3.672   6.282   4.144 -0.0565 -0.4173 -0.4064
15427TIP3    H167772   3.578   6.265   4.148 -0.8227  2.6389 -1.8786
15427TIP3    H267773   3.704   6.267   4.233 -1.7177 -2.3523 -0.0709
15428TIP3   OH267774   4.250   0.795   3.164  0.1340 -0.0035  0.0610
15428TIP3    H167775   4.220   0.884   3.145 -1.1370 -0.6200 -0.9491
15428TIP3    H267776   4.189   0.762   3.229  1.7311  0.4805  1.8883
15429TIP3   OH267777   5.055   2.740  12.090  0.4773 -0.3959  0.0889
15429TIP3    H167778   5.008   2.696  12.020  0.2927  0.1794 -0.1488
15429TIP3    H267779   5.148   2.725  12.070  0.4426  0.3756 -0.6693
15430TIP3   OH267780   0.957   1.825   1.561 -0.0362 -0.3515  0.1898
15430TIP3    H167781   0.888   1.832   1.627  0.5630 -0.0429  0.7930
15430TIP3    H267782   1.034   1.863   1.602  0.3949 -0.3079 -0.6301
15431TIP3   OH267783   0.886   3.089   2.504  0.1644  0.6020 -0.1934
15431TIP3    H167784   0.900   3.154   2.573  0.5037  0.4341 -0.1060
15431TIP3    H267785   0.946   3.017   2.525 -1.9027 -0.8830  1.1417
15432TIP3   OH267786   6.557   6.620  14.168  0.2172  0.2438  1.0472
15432TIP3    H167787   6.603   6.605  14.250 -0.5477 -2.3554  1.0898
15432TIP3    H267788   6.465   6.604  14.188  0.0456 -0.7124 -0.3569
15433TIP3   OH267789   5.364   0.115   2.248 -0.5724  0.8683 -0.1261
15433TIP3    H167790   5.333   0.053   2.182  0.0618  0.2426  0.1523
15433TIP3    H267791   5.447   0.079   2.279 -1.0001  0.9753  1.2419
15434TIP3   OH267792   2.882   5.376  12.092 -0.1410  0.3028 -0.2321
15434TIP3    H167793   2.925   5.455  12.060  0.5402  0.2875  0.6172
15434TIP3    H267794   2.934   5.304  12.056 -0.9262  0.2184 -1.2378
15435TIP3   OH267795   3.380   5.411   2.526  0.1978 -0.1645 -0.0645
15435TIP3    H167796   3.416   5.329   2.491 -0.2203 -0.2314 -0.3458
15435TIP3    H267797   3.315   5.383   2.590 -0.8206 -0.0809 -1.0286
15436TIP3   OH267798   4.186   0.671   4.437  0.7534  0.0810 -0.7567
15436TIP3    H167799   4.143   0.627   4.364  0.4589  1.1733 -1.2594
15436TIP3    H267800   4.271   0.628   4.444  0.3065 -0.8684 -0.9331
15437TIP3   OH267801   3.697   4.055  13.081  0.2125 -0.2693 -0.2742
15437TIP3    H167802   3.618   4.088  13.124  1.5458  2.1055  0.5824
15437TIP3    H267803   3.745   4.010  13.151  0.7474  0.4959 -0.1356
15438TIP3   OH267804   4.676   6.852  14.705 -0.7046 -0.0812 -0.4959
15438TIP3    H167805   4.592   6.892  14.684 -0.4446  1.1568  0.6494
15438TIP3    H267806   4.693   6.878  14.796  0.4943 -1.0542 -0.4081
15439TIP3   OH267807   1.059   3.936   1.735 -0.2715 -0.0854 -0.5340
15439TIP3    H167808   1.079   4.026   1.709 -2.0301  0.3011 -0.6559
15439TIP3    H267809   1.001   3.903   1.667 -0.6567 -0.8904  0.1686
15440TIP3   OH267810   4.813   0.518  10.811 -0.2350  0.0862 -0.2210
15440TIP3    H167811   4.766   0.516  10.728  0.2930  0.7211 -0.5438
15440TIP3    H267812   4.745   0.512  10.878 -0.5463 -2.9659 -0.6635
15441TIP3   OH267813   4.943   6.494   2.957 -0.5010  0.2011 -0.4295
15441TIP3    H167814   5.036   6.469   2.963 -0.3808  0.6857 -0.2210
15441TIP3    H267815   4.946   6.587   2.937 -0.9315 -0.0702 -1.8476
15442TIP3   OH267816   0.992   3.992  13.806 -0.4237 -0.2242  0.2845
15442TIP3    H167817   0.998   4.001  13.901 -0.5786  0.9500  0.1939
15442TIP3    H267818   1.080   4.011  13.775 -0.8214  1.4317  0.0698
15443TIP3   OH267819   2.820   4.101   3.385 -0.3730 -0.2062  0.0277
15443TIP3    H167820   2.737   4.074   3.345  0.1398 -2.9423  0.5610
15443TIP3    H267821   2.861   4.159   3.321 -1.2154 -1.5208 -1.7803
15444TIP3   OH267822   0.981   2.614   4.157 -0.2079 -0.0108 -0.5619
15444TIP3    H167823   0.895   2.572   4.163 -0.9579  1.5647  0.1132
15444TIP3    H267824   1.019   2.579   4.076 -1.1700 -1.2616 -0.5045
15445TIP3   OH267825   5.921   4.390   2.525  0.3628  0.4718 -0.0370
15445TIP3    H167826   5.902   4.482   2.545  0.7348  0.6890 -0.6670
15445TIP3    H267827   5.985   4.393   2.454  1.3668 -0.2665  0.8076
15446TIP3   OH267828   5.446   2.102   2.481  0.0734 -0.1242  0.4988
15446TIP3    H167829   5.524   2.048   2.491  0.4475  0.1070 -0.9516
15446TIP3    H267830   5.444   2.126   2.388 -1.3077  0.5045  0.6516
15447TIP3   OH267831   3.134   1.568   0.627 -0.0847  0.5382  0.4950
15447TIP3    H167832   3.113   1.482   0.591 -2.1587  1.1741  0.0521
15447TIP3    H267833   3.150   1.552   0.720  0.3726 -0.4077  0.2680
15448TIP3   OH267834   0.716   3.700   2.923  0.0563 -0.2763  0.3765
15448TIP3    H167835   0.697   3.739   3.009 -1.6932  0.2599 -0.1979
15448TIP3    H267836   0.675   3.761   2.860  0.3027 -1.2531 -0.7525
15449TIP3   OH267837   0.308   0.691   3.463  0.3498 -0.0129 -0.5465
15449TIP3    H167838   0.390   0.641   3.461  0.1582 -0.3157 -0.9325
15449TIP3    H267839   0.263   0.660   3.541  1.1557  1.0593  0.3826
15450TIP3   OH267840   0.926   2.170  15.796 -0.1302  0.5129 -0.4238
15450TIP3    H167841   0.908   2.079  15.775 -0.3244  0.0871  1.4263
15450TIP3    H267842   0.851   2.218  15.761 -3.3719 -0.8015  3.8338
15451TIP3   OH267843   5.142   2.608   6.138 -0.2428 -0.1568  0.0953
15451TIP3    H167844   5.210   2.566   6.190  0.6535  1.4235  0.2617
15451TIP3    H267845   5.172   2.698   6.127 -2.5121  0.7325  0.5576
15452TIP3   OH267846   5.719   6.282   5.198 -0.2891  0.1139  0.5443
15452TIP3    H167847   5.669   6.256   5.276 -0.5890  0.6200  0.5210
15452TIP3    H267848   5.809   6.290   5.229  0.0187 -1.9102  0.3574
15453TIP3   OH267849   5.016   6.204  14.703 -0.2595  0.3810 -0.2716
15453TIP3    H167850   4.982   6.120  14.733  0.2555  0.2071 -0.1647
15453TIP3    H267851   4.995   6.207  14.610 -0.6909  0.3410 -0.1754
15454TIP3   OH267852   2.599   5.020   3.739  0.1987 -0.0462 -0.4235
15454TIP3    H167853   2.536   5.004   3.670 -0.5969  1.4901 -0.1065
15454TIP3    H267854   2.607   5.116   3.743  2.6068 -0.1836 -0.4931
15455TIP3   OH267855   5.627   3.254  16.067  0.3075 -0.5076 -0.1679
15455TIP3    H167856   5.560   3.296  16.014  0.2487  0.2596  0.5035
15455TIP3    H267857   5.580   3.216  16.141  0.1644 -2.9331 -1.3797
15456TIP3   OH267858   6.181   6.358  15.063  0.3833  0.1992  0.2076
15456TIP3    H167859   6.158   6.371  15.155 -1.4823 -2.1475  0.1831
15456TIP3    H267860   6.102   6.384  15.015  0.2802 -1.2905 -0.4787
15457TIP3   OH267861   4.547   5.709  11.125  0.2350 -0.1900  0.2429
15457TIP3    H167862   4.455   5.722  11.148  0.8230  0.9978  2.0871
15457TIP3    H267863   4.594   5.772  11.178  2.0527  0.0311 -1.5316
15458TIP3   OH267864   3.609   4.092   4.153  0.6003  0.3072  0.0995
15458TIP3    H167865   3.527   4.140   4.163 -1.4289 -2.6940 -0.8531
15458TIP3    H267866   3.611   4.032   4.227  1.4019 -0.3467 -0.4344
15459TIP3   OH267867   0.245   3.010  12.867 -0.1284  0.2438  0.4523
15459TIP3    H167868   0.249   3.087  12.923 -1.0915  1.2773 -0.8395
15459TIP3    H267869   0.173   2.959  12.902  0.9845 -0.5117  1.7803
15460TIP3   OH267870   2.444   0.790   1.684 -0.2844 -0.0417  0.4906
15460TIP3    H167871   2.469   0.768   1.774 -0.6550  1.1677  0.9141
15460TIP3    H267872   2.487   0.724   1.630  2.5061  1.0166  1.2860
15461TIP3   OH267873   5.896   0.155   1.520 -0.5385  0.6339 -0.1561
15461TIP3    H167874   5.849   0.081   1.559 -0.4396 -0.2845 -1.7132
15461TIP3    H267875   5.952   0.187   1.591 -0.0134 -1.2679  0.3617
15462TIP3   OH267876   3.413   5.331   1.020  0.4068  0.1830 -0.1153
15462TIP3    H167877   3.343   5.322   0.955  1.1624  0.2221 -0.9507
15462TIP3    H267878   3.429   5.242   1.050 -0.1058  0.1914  0.2008
15463TIP3   OH267879   4.458   1.078   1.016  0.7170 -0.2582 -0.0659
15463TIP3    H167880   4.383   1.024   1.043  1.1921 -2.0429 -2.0788
15463TIP3    H267881   4.447   1.088   0.921  3.2650 -1.0441 -0.5206
15464TIP3   OH267882   6.075   3.558   1.251  0.1104 -0.3459 -0.3041
15464TIP3    H167883   6.088   3.502   1.327 -1.9394 -1.0011 -0.3736
15464TIP3    H267884   6.115   3.511   1.178  0.3176 -0.6686  0.0171
15465TIP3   OH267885   1.215   0.305  10.191 -0.4276 -0.6199  0.0115
15465TIP3    H167886   1.289   0.248  10.171 -0.3993 -0.2359 -1.0424
15465TIP3    H267887   1.252   0.375  10.245  0.0400 -0.2949 -0.7217
15466TIP3   OH267888   5.892   3.451  13.541 -0.2181 -0.5016 -0.1812
15466TIP3    H167889   5.943   3.437  13.620  1.7888 -0.9619 -1.4773
15466TIP3    H267890   5.840   3.371  13.531  2.6432 -2.3458 -1.4678
15467TIP3   OH267891   0.055   0.593  16.805 -0.3596 -0.0632 -0.3545
15467TIP3    H167892  -0.032   0.619  16.836 -0.3158  1.0070 -1.0635
15467TIP3    H267893   0.112   0.605  16.880 -0.2583  2.4718 -0.7515
15468TIP3   OH267894   2.613   3.267  11.259  0.3405 -0.2258  0.4653
15468TIP3    H167895   2.558   3.190  11.247  0.4039  0.0138 -1.8419
15468TIP3    H267896   2.656   3.279  11.174  0.7499  2.0230  0.9277
15469TIP3   OH267897   3.003   0.034   0.435  0.3228  0.2785 -0.0716
15469TIP3    H167898   2.933   0.090   0.401 -1.2438  0.0096  2.4429
15469TIP3    H267899   3.056   0.092   0.490  0.7579 -0.0063 -0.1816
15470TIP3   OH267900   5.012   0.423   2.969 -0.4022 -0.0978 -0.3449
15470TIP3    H167901   4.965   0.473   3.036 -0.6578 -0.5919 -0.1515
15470TIP3    H267902   5.094   0.397   3.012  0.1455  0.9134 -0.7387
15471TIP3   OH267903   4.222   1.012   0.863 -0.3412 -0.1251  0.1262
15471TIP3    H167904   4.172   0.967   0.932 -0.3968  3.3145  2.6022
15471TIP3    H267905   4.268   0.942   0.817 -2.5902 -2.8975  1.7405
15472TIP3   OH267906   0.416   6.073   4.291 -0.3390 -0.5151  0.4461
15472TIP3    H167907   0.439   6.091   4.382 -1.4168  1.1071  0.4425
15472TIP3    H267908   0.465   5.994   4.269  0.9009 -0.2417  2.0454
15473TIP3   OH267909   0.272   3.206   2.033  0.5992 -0.8077  0.4395
15473TIP3    H167910   0.268   3.154   2.113 -0.6977  0.2052  1.0590
15473TIP3    H267911   0.345   3.266   2.047  0.4390 -0.7008  0.8138
15474TIP3   OH267912   1.621   5.991  10.285  0.1626 -0.5617  0.1468
15474TIP3    H167913   1.593   6.011  10.374 -0.8706 -0.7237 -0.1350
15474TIP3    H267914   1.639   5.897  10.286  2.1632 -0.2208  0.7018
15475TIP3   OH267915   6.301   1.318  13.802 -0.4063 -0.0138 -0.2481
15475TIP3    H167916   6.381   1.362  13.773  0.3100 -1.2486 -0.2260
15475TIP3    H267917   6.331   1.234  13.837 -1.6487 -0.2138  0.4086
15476TIP3   OH267918   1.586   3.471   4.264 -0.8366  0.3553  0.4948
15476TIP3    H167919   1.649   3.419   4.315 -0.5439  0.3024  0.0884
15476TIP3    H267920   1.593   3.436   4.175 -0.8824  0.8634  0.2877
15477TIP3   OH267921   4.780   4.744   0.189 -0.5354 -0.2873  0.3098
15477TIP3    H167922   4.693   4.733   0.151 -0.6349 -0.8043  0.6763
15477TIP3    H267923   4.777   4.831   0.229 -0.7684 -0.1608  0.0232
15478TIP3   OH267924   0.932   1.341  14.902 -0.5022  0.1545  0.8363
15478TIP3    H167925   1.004   1.289  14.864 -0.8497  0.0777  0.2774
15478TIP3    H267926   0.866   1.276  14.925 -0.2854  0.1959  1.6235
15479TIP3   OH267927   2.296   4.438   5.167  0.3538 -0.5572  0.1721
15479TIP3    H167928   2.241   4.440   5.089  0.3447  0.6051  0.1889
15479TIP3    H267929   2.235   4.428   5.239  0.2867 -0.6721  0.1009
15480TIP3   OH267930   5.821   3.270  15.877  0.3834 -0.2175 -0.4918
15480TIP3    H167931   5.841   3.177  15.880 -1.9060 -0.7663 -0.4460
15480TIP3    H267932   5.745   3.280  15.935 -0.9661  1.2171 -2.3792
15481TIP3   OH267933   4.606   2.322  13.069 -0.1390  0.2982 -0.1180
15481TIP3    H167934   4.600   2.373  13.150  0.2190  1.4992 -0.8296
15481TIP3    H267935   4.667   2.251  13.090 -0.2838  0.4117  0.7474
15482TIP3   OH267936   4.255   0.823  12.785  0.0774 -0.8584  0.3280
15482TIP3    H167937   4.215   0.821  12.699 -0.4515  0.9992  0.4780
15482TIP3    H267938   4.349   0.812  12.768  0.2585  1.6142 -0.7804
15483TIP3   OH267939   5.889   1.710  14.940  0.0192  0.0377  0.3469
15483TIP3    H167940   5.834   1.647  14.986  0.3583  0.4617  1.3581
15483TIP3    H267941   5.942   1.657  14.881  0.0615 -0.5917  0.9406
15484TIP3   OH267942   6.580   5.283  10.846 -0.1700  0.6582 -0.4583
15484TIP3    H167943   6.641   5.250  10.781  0.8919  1.3264  0.1806
15484TIP3    H267944   6.573   5.212  10.911 -0.0325  0.6018 -0.5052
15485TIP3   OH267945   4.517   2.245   0.076 -0.4164 -0.7579  0.3394
15485TIP3    H167946   4.580   2.273   0.010 -1.0024 -1.9267 -0.7694
15485TIP3    H267947   4.529   2.306   0.149 -0.3668  1.1539 -1.1942
15486TIP3   OH267948   2.406   2.216  14.932  0.0112  0.3388  0.7876
15486TIP3    H167949   2.439   2.221  14.843  0.5312  1.4976  1.0210
15486TIP3    H267950   2.459   2.280  14.981  1.4059 -1.9567  2.4707
15487TIP3   OH267951   5.635   0.199  10.970 -0.0220  0.1655 -0.0303
15487TIP3    H167952   5.554   0.250  10.972 -1.7305 -2.2509 -1.3423
15487TIP3    H267953   5.648   0.179  10.877 -0.3635 -2.9411  0.4703
15488TIP3   OH267954   2.591   0.454   1.065  0.1380 -0.5104 -0.2458
15488TIP3    H167955   2.681   0.476   1.091 -0.1114 -0.4979  0.6616
15488TIP3    H267956   2.601   0.402   0.985  0.8125  1.4316 -1.4757
15489TIP3   OH267957   3.056   5.207  13.226 -0.2213 -0.5089  0.5651
15489TIP3    H167958   3.102   5.197  13.143 -1.1460 -1.8192  0.1815
15489TIP3    H267959   3.036   5.300  13.232  1.5627 -0.0834  0.2693
15490TIP3   OH267960   2.316   1.698  16.518 -0.1688  0.0257 -0.2712
15490TIP3    H167961   2.304   1.608  16.549  0.4637  0.1569  0.3602
15490TIP3    H267962   2.229   1.723  16.485 -0.6277 -0.4295  0.5661
15491TIP3   OH267963   4.871   5.099  16.314  0.8744  0.3289 -0.4490
15491TIP3    H167964   4.808   5.163  16.346  1.0652 -0.2806  1.2273
15491TIP3    H267965   4.824   5.050  16.247 -0.9407 -0.9474  1.6089
15492TIP3   OH267966   5.645   4.897  14.237 -0.2938  0.4432 -0.4756
15492TIP3    H167967   5.591   4.850  14.300 -0.0435 -0.2572 -0.7658
15492TIP3    H267968   5.666   4.980  14.279 -1.5327  0.6960 -0.3346
15493TIP3   OH267969   2.314   3.575   5.038  0.0253  0.0798  0.0649
15493TIP3    H167970   2.346   3.663   5.018  2.2844 -0.9566 -1.2140
15493TIP3    H267971   2.250   3.557   4.970  0.2173  0.3823 -0.2007
15494TIP3   OH267972   1.253   2.824  12.974 -0.0439  1.3132 -0.1271
15494TIP3    H167973   1.221   2.911  12.950 -1.7678  0.7624  0.0529
15494TIP3    H267974   1.184   2.787  13.029  1.1883  0.2693  0.7795
15495TIP3   OH267975   4.913   3.690  14.317 -0.2109 -0.2436 -0.7150
15495TIP3    H167976   4.825   3.719  14.292 -0.1282  0.6754  0.0448
15495TIP3    H267977   4.924   3.720  14.407  0.3336 -1.6329 -0.2955
15496TIP3   OH267978   0.369   0.486   0.709 -0.6397  0.4277  0.1353
15496TIP3    H167979   0.285   0.467   0.667 -0.2407 -1.1714  0.0157
15496TIP3    H267980   0.423   0.523   0.639 -0.7025 -0.1325 -0.2149
15497TIP3   OH267981   0.422   0.997   3.541 -0.4714 -0.0026  0.4691
15497TIP3    H167982   0.496   0.993   3.603 -0.1843 -0.2249  0.1174
15497TIP3    H267983   0.462   0.983   3.455 -0.8972  0.0899  0.2538
15498TIP3   OH267984   5.988   0.229   3.236  0.6993  0.5411 -0.0335
15498TIP3    H167985   6.048   0.227   3.311  0.0033  0.1533  0.5320
15498TIP3    H267986   5.904   0.256   3.275  0.3144  0.2556 -0.6690
15499TIP3   OH267987   5.368   3.564   0.983 -0.0839 -0.0325  0.1993
15499TIP3    H167988   5.279   3.598   0.995  0.0689  0.9484 -1.2406
15499TIP3    H267989   5.405   3.561   1.072 -1.2465  0.4035  0.7105
15500TIP3   OH267990   4.463   3.844  15.359 -0.1431  0.2435  0.2329
15500TIP3    H167991   4.463   3.894  15.441 -1.5971 -0.7525  0.8582
15500TIP3    H267992   4.519   3.896  15.300 -0.8958  2.1490  1.1272
15501TIP3   OH267993   4.006   1.953  11.622  0.6779 -0.7376 -0.4931
15501TIP3    H167994   3.994   1.951  11.717  1.5870  1.4405 -0.2704
15501TIP3    H267995   3.917   1.959  11.587  0.4030  1.6588  0.4366
15502TIP3   OH267996   4.245   2.098  12.008  0.0428  0.2615 -0.4230
15502TIP3    H167997   4.283   2.065  12.090 -2.7652 -0.1153  0.8267
15502TIP3    H267998   4.220   2.189  12.028 -1.3252 -0.0616 -0.5765
15503TIP3   OH267999   3.026   3.301   3.725 -0.1975 -0.0869  0.5598
15503TIP3    H168000   3.030   3.257   3.810  0.2151  1.5598  1.4467
15503TIP3    H268001   3.068   3.386   3.741 -1.4410  0.8493 -0.9247
15504TIP3   OH268002   4.141   3.783   5.017  0.3499  0.3096 -0.1837
15504TIP3    H168003   4.156   3.701   5.064  0.5096  0.6408  0.3521
15504TIP3    H268004   4.220   3.795   4.965 -1.1471 -1.8098 -3.2764
15505TIP3   OH268005   6.794   5.752  15.808 -0.0724  0.2945 -0.0547
15505TIP3    H168006   6.744   5.670  15.802  0.3398  0.0791 -0.7501
15505TIP3    H268007   6.866   5.731  15.868  0.0668  0.1226 -0.2779
15506TIP3   OH268008   5.621   3.671   0.978  0.2674  0.0950  0.0379
15506TIP3    H168009   5.668   3.712   0.906 -0.4287  0.4269 -0.2336
15506TIP3    H268010   5.532   3.658   0.945  0.4367 -1.5540  0.1473
15507TIP3   OH268011   4.546   5.987   9.949  0.1930 -0.1354  1.1217
15507TIP3    H168012   4.625   6.013   9.997 -0.2859  2.6563  0.6021
15507TIP3    H268013   4.475   5.995  10.013 -0.1085  1.0302  0.6638
15508TIP3   OH268014   4.579   1.078  10.572 -0.2025  0.2000 -0.1662
15508TIP3    H168015   4.578   0.984  10.553 -4.3673  0.3452 -1.7657
15508TIP3    H268016   4.597   1.119  10.487  0.3503  0.8700  0.2662
15509TIP3   OH268017   3.250   0.633   3.500  0.0111 -0.3730  0.0887
15509TIP3    H168018   3.181   0.691   3.532  0.4959 -0.0695  0.6016
15509TIP3    H268019   3.206   0.549   3.485 -0.9273  0.3786 -1.6335
15510TIP3   OH268020   5.853   6.508  12.812 -0.3500 -0.1448 -0.3524
15510TIP3    H168021   5.922   6.460  12.857  1.0543 -0.1187 -2.3189
15510TIP3    H268022   5.806   6.554  12.881  1.3631 -0.4712  1.1008
15511TIP3   OH268023   0.597   0.222  13.179 -0.0212 -0.5119 -0.1269
15511TIP3    H168024   0.621   0.271  13.257 -1.3349  1.2530 -0.7744
15511TIP3    H268025   0.662   0.249  13.114 -1.7503  1.8936 -0.9975
15512TIP3   OH268026   2.908   3.897   5.324  0.6520  0.4196  0.2098
15512TIP3    H168027   2.978   3.922   5.384  1.9018 -1.0553 -0.5790
15512TIP3    H268028   2.942   3.822   5.276 -1.2167  0.0823 -0.6960
15513TIP3   OH268029   4.033   0.468   1.422  0.2646  0.4881 -0.1533
15513TIP3    H168030   4.108   0.527   1.423  3.1248 -2.8219  1.5696
15513TIP3    H268031   4.059   0.397   1.362 -1.4221 -0.8122  0.5589
15514TIP3   OH268032   5.765   1.506  15.870 -0.4165  0.0376  0.3588
15514TIP3    H168033   5.715   1.534  15.793  0.8496  0.5795 -0.3083
15514TIP3    H268034   5.760   1.581  15.930 -1.0200 -0.2021  0.6076
15515TIP3   OH268035   3.283   0.051   4.808  0.0088 -0.3994  0.2893
15515TIP3    H168036   3.237  -0.027   4.838 -0.3473 -0.3520 -0.1198
15515TIP3    H268037   3.217   0.121   4.811  0.1541 -0.2503  0.0525
15516TIP3   OH268038   0.994   4.266   5.076  0.4614 -0.4782 -0.0063
15516TIP3    H168039   0.928   4.335   5.067  0.5249 -0.6441 -2.4319
15516TIP3    H268040   1.068   4.297   5.024  1.4190 -1.3337  0.8147
15517TIP3   OH268041   5.879   3.650  10.820  0.6467 -0.1148  0.0630
15517TIP3    H168042   5.836   3.623  10.739 -1.1607 -1.1191  1.2711
15517TIP3    H268043   5.833   3.602  10.888  3.1790 -0.5652  1.5846
15518TIP3   OH268044   0.301   2.463  13.154  0.5056 -0.0752  0.5535
15518TIP3    H168045   0.325   2.544  13.200  0.5409 -0.5996  1.4927
15518TIP3    H268046   0.206   2.471  13.140  0.6116  0.3982  0.0895
15519TIP3   OH268047   0.547   6.645   2.732 -0.1853  0.0509  0.1826
15519TIP3    H168048   0.596   6.628   2.812 -1.3959 -0.9424  0.7431
15519TIP3    H268049   0.555   6.563   2.682  0.5061  0.6361 -0.6991
15520TIP3   OH268050   4.439   1.182  13.079 -0.5063  0.9308 -0.1169
15520TIP3    H168051   4.457   1.089  13.071 -0.4286  0.6938  2.1940
15520TIP3    H268052   4.526   1.223  13.089 -0.5387  1.2684 -1.1121
15521TIP3   OH268053   5.611   6.735  12.311 -0.2069  0.0199 -0.0373
15521TIP3    H168054   5.528   6.686  12.309 -0.8388  1.0800 -1.1888
15521TIP3    H268055   5.600   6.802  12.244  2.5085 -1.2392 -1.8990
15522TIP3   OH268056   5.877   3.713   0.188 -0.0244  0.0845 -0.0999
15522TIP3    H168057   5.784   3.724   0.171 -0.1580 -0.9262 -0.0406
15522TIP3    H268058   5.894   3.620   0.174  1.3545  0.5413 -1.8838
15523TIP3   OH268059   6.490   3.279   3.833  0.1534 -0.2282  0.0086
15523TIP3    H168060   6.571   3.228   3.837 -0.4740 -1.2594  0.0146
15523TIP3    H268061   6.465   3.291   3.924  1.3695  1.9182  0.1228
15524TIP3   OH268062   4.914   6.887  11.785  0.4331 -0.0879 -0.2946
15524TIP3    H168063   4.873   6.953  11.841 -1.2644 -1.4761  0.1760
15524TIP3    H268064   4.907   6.922  11.696 -1.6204 -0.1625 -0.1975
15525TIP3   OH268065   0.752   3.958  13.674 -0.6022  0.0527 -0.1975
15525TIP3    H168066   0.734   3.875  13.717  1.5798 -0.8087 -0.8275
15525TIP3    H268067   0.841   3.980  13.700 -1.4694  2.7927  0.8235
15526TIP3   OH268068   6.473   0.693  16.639  0.2166  0.0496 -0.2287
15526TIP3    H168069   6.416   0.618  16.628 -0.7737  0.1527  3.0725
15526TIP3    H268070   6.559   0.656  16.658 -0.2195 -0.3282  1.1591
15527TIP3   OH268071   2.451   2.746   5.784 -0.1466  0.1618  0.2500
15527TIP3    H168072   2.454   2.691   5.862 -1.0722 -1.9337 -1.0930
15527TIP3    H268073   2.391   2.700   5.725  3.4284 -0.5415 -3.2796
15528TIP3   OH268074   3.961   0.252  14.768  0.5703 -0.5115 -0.1649
15528TIP3    H168075   4.002   0.328  14.726  0.1743  0.0975  0.5177
15528TIP3    H268076   3.987   0.259  14.860 -0.9590 -0.1572  0.2716
15529TIP3   OH268077   6.350   1.056  13.150 -0.6678  0.2457 -0.2472
15529TIP3    H168078   6.436   1.066  13.191 -0.0712  0.3226 -1.4716
15529TIP3    H268079   6.301   1.000  13.210  0.1211  0.4706  0.6297
15530TIP3   OH268080   3.029   3.517  12.261 -0.1022  0.5820  0.0573
15530TIP3    H168081   3.030   3.428  12.226  1.8958  0.3180  0.6355
15530TIP3    H268082   2.997   3.571  12.189  2.1799 -0.1531 -1.6209
15531TIP3   OH268083   3.368   3.476   2.083 -0.2441 -0.0604 -0.3114
15531TIP3    H168084   3.381   3.568   2.106 -1.8902  0.5331 -1.6083
15531TIP3    H268085   3.274   3.461   2.096 -0.5630 -0.7013 -2.8933
15532TIP3   OH268086   6.703   6.795  15.212  0.8878 -0.4431  0.3370
15532TIP3    H168087   6.633   6.799  15.147  1.7785 -1.4422 -0.7331
15532TIP3    H268088   6.724   6.887  15.230 -0.7780 -0.1230  0.8100
15533TIP3   OH268089   1.712   6.571  11.117  0.4013  0.4772 -0.5821
15533TIP3    H168090   1.771   6.645  11.102  0.0160  0.7264 -0.9029
15533TIP3    H268091   1.644   6.581  11.050  0.1543  0.0308 -0.4020
15534TIP3   OH268092   3.266   3.514  14.850  0.7384 -0.5572 -0.1034
15534TIP3    H168093   3.180   3.472  14.850 -0.1963  1.1945  1.4757
15534TIP3    H268094   3.275   3.550  14.938  2.4775  0.5495 -0.6848
15535TIP3   OH268095   4.276   4.537  13.505 -0.3281 -0.2231  0.1703
15535TIP3    H168096   4.272   4.631  13.524 -0.8115 -0.2404  0.1611
15535TIP3    H268097   4.352   4.506  13.554  0.1482  0.2718 -0.2442
15536TIP3   OH268098   6.304   3.455  16.300 -0.2728 -0.1627 -0.1748
15536TIP3    H168099   6.214   3.487  16.296  0.9260  3.7523 -0.2362
15536TIP3    H268100   6.330   3.442  16.209 -0.7689 -1.5287 -0.1492
15537TIP3   OH268101   1.716   0.630   4.551 -0.2771 -0.1632 -0.5065
15537TIP3    H168102   1.711   0.547   4.504 -0.9846  0.8459 -2.3161
15537TIP3    H268103   1.694   0.608   4.642 -0.4708 -1.9305 -0.9513
15538TIP3   OH268104   4.597   1.804  10.880 -0.5632  0.1121 -0.0738
15538TIP3    H168105   4.566   1.749  10.808  3.7005  1.1320 -3.0434
15538TIP3    H268106   4.600   1.892  10.844 -0.4181  1.0910  2.1597
15539TIP3   OH268107   1.420   4.331   4.401 -0.4683 -0.7044  0.7460
15539TIP3    H168108   1.490   4.283   4.357 -0.0480 -0.3242  0.9949
15539TIP3    H268109   1.343   4.275   4.392 -0.3078 -0.7903 -0.1624
15540TIP3   OH268110   4.279   2.061  14.218  0.1829  0.1723  0.0194
15540TIP3    H168111   4.211   1.999  14.193 -0.8712  1.7083 -1.0777
15540TIP3    H268112   4.344   2.056  14.148 -0.0210  0.4761 -0.1918
15541TIP3   OH268113   1.326   5.488   3.581 -0.3869  0.4159 -0.1334
15541TIP3    H168114   1.383   5.527   3.514  0.1427  1.9257  1.1178
15541TIP3    H268115   1.383   5.479   3.658 -1.1054 -0.8165  0.2754
15542TIP3   OH268116   1.293   0.446   2.607  0.2141  0.4752  0.6846
15542TIP3    H168117   1.350   0.375   2.637  2.0354  1.2492 -0.7324
15542TIP3    H268118   1.206   0.407   2.602  0.8555 -1.1576  1.5893
15543TIP3   OH268119   1.360   5.280   0.615  0.3153 -0.0313  0.1519
15543TIP3    H168120   1.369   5.209   0.552 -1.1038 -1.2712  1.2756
15543TIP3    H268121   1.448   5.318   0.621  0.8075 -0.8370 -1.4329
15544TIP3   OH268122   3.633   0.571   4.484 -0.1815  0.1798  0.2401
15544TIP3    H168123   3.665   0.481   4.479 -0.5600  0.0837 -0.6863
15544TIP3    H268124   3.546   0.564   4.523  0.8337  0.4388  2.7356
15545TIP3   OH268125   1.893   6.515  12.577  0.0948  0.4363 -0.1291
15545TIP3    H168126   1.927   6.455  12.643  1.8779  1.9086  0.3652
15545TIP3    H268127   1.799   6.519  12.594 -0.0774 -2.1112 -0.1497
15546TIP3   OH268128   5.042   1.113  11.412 -0.2856 -0.1917  1.0560
15546TIP3    H168129   5.010   1.189  11.462 -0.6680  0.5658 -0.2893
15546TIP3    H268130   5.002   1.123  11.326  3.2235  0.5769 -0.6411
15547TIP3   OH268131   1.053   2.928  13.818 -0.0077  0.4646 -0.2877
15547TIP3    H168132   0.965   2.890  13.824 -0.0796  0.7191  0.3622
15547TIP3    H268133   1.047   2.992  13.747 -0.4290  0.6838 -0.0604
15548TIP3   OH268134   1.383   5.884   2.295  0.0101  0.0593  0.3501
15548TIP3    H168135   1.443   5.935   2.350  0.7215  0.2035 -0.5513
15548TIP3    H268136   1.311   5.945   2.276 -0.2949 -0.0180  1.1671
15549TIP3   OH268137   6.226   5.959  12.555  0.1565  0.2422  0.5088
15549TIP3    H168138   6.318   5.934  12.566 -0.2852 -1.5675  0.4838
15549TIP3    H268139   6.211   5.954  12.461 -0.2001 -0.5046  0.5909
15550TIP3   OH268140   6.387   5.761  15.542  0.1267 -0.1752 -0.0614
15550TIP3    H168141   6.345   5.846  15.552 -2.4392 -1.1974 -1.0715
15550TIP3    H268142   6.448   5.773  15.469 -0.8444  0.6326 -0.7829
15551TIP3   OH268143   0.757   4.404   4.985 -0.0253  0.2855 -0.1471
15551TIP3    H168144   0.697   4.371   4.918  0.1736  0.1651 -0.2691
15551TIP3    H268145   0.745   4.499   4.984 -1.4542  0.1505  1.0163
15552TIP3   OH268146   2.413   0.104   1.639  0.1151 -0.0635  0.9240
15552TIP3    H168147   2.344   0.146   1.589 -0.2956 -0.1267  1.4212
15552TIP3    H268148   2.444   0.171   1.700  1.3075  0.3266 -0.0657
15553TIP3   OH268149   1.597   3.887   5.260  0.7676  0.0550 -0.2239
15553TIP3    H168150   1.664   3.942   5.300  2.6739 -2.1547 -0.1947
15553TIP3    H268151   1.551   3.847   5.333  0.5578  0.2530 -0.2467
15554TIP3   OH268152   2.695   1.494   0.456  0.1344  0.2709 -0.3353
15554TIP3    H168153   2.711   1.560   0.388 -1.9926  0.1631 -1.0171
15554TIP3    H268154   2.682   1.546   0.536 -1.0970  0.6889 -0.7821
15555TIP3   OH268155   1.229   3.088   1.186  0.1082 -0.3784  0.5005
15555TIP3    H168156   1.134   3.078   1.196  0.3808 -2.7818  1.3850
15555TIP3    H268157   1.257   3.129   1.268 -0.0652 -0.5414  0.6434
15556TIP3   OH268158   2.518   2.220  13.061  0.4840 -0.1944 -0.2257
15556TIP3    H168159   2.496   2.302  13.106 -1.4904 -1.1576  0.6863
15556TIP3    H268160   2.454   2.157  13.094  1.4815 -1.9344 -1.4725
15557TIP3   OH268161   1.464   6.670  16.239 -0.1378  0.7978  0.6062
15557TIP3    H168162   1.383   6.625  16.213  0.7224 -0.5113  0.1112
15557TIP3    H268163   1.493   6.622  16.317  0.2500  1.1742  0.6928
15558TIP3   OH268164   1.234   2.249   1.690  0.0623  0.1239 -0.0827
15558TIP3    H168165   1.263   2.242   1.781  1.5296  0.8387 -0.4656
15558TIP3    H268166   1.138   2.244   1.695  0.1686 -1.5742  1.3136
15559TIP3   OH268167   2.788   0.108   1.058  0.2607  0.1131  0.1559
15559TIP3    H168168   2.741   0.172   1.004  1.8491  1.4462  0.2580
15559TIP3    H268169   2.829   0.049   0.996 -0.5271 -0.3072  0.0278
15560TIP3   OH268170   3.467   0.510   1.881  0.3098  0.5148 -0.0355
15560TIP3    H168171   3.525   0.464   1.941 -0.4646 -0.2984  0.1108
15560TIP3    H268172   3.434   0.442   1.822  0.6330  1.2046 -1.0452
15561TIP3   OH268173   0.612   4.312   3.513  0.3325  0.1330  0.1583
15561TIP3    H168174   0.669   4.383   3.545 -1.5347  1.3924  0.8130
15561TIP3    H268175   0.670   4.260   3.456  1.4794  2.9707 -1.4948
15562TIP3   OH268176   4.812   0.286   1.196  0.7793  0.2064  0.2130
15562TIP3    H168177   4.752   0.235   1.142  1.2182 -0.2997  0.1958
15562TIP3    H268178   4.763   0.303   1.277 -0.8977  3.2509 -1.2814
15563TIP3   OH268179   1.257   3.543  10.876 -0.2429 -0.3025 -0.4812
15563TIP3    H168180   1.178   3.594  10.897  0.0015  0.1673 -0.6739
15563TIP3    H268181   1.259   3.541  10.780 -0.6118 -1.2571 -0.4749
15564TIP3   OH268182   0.214   4.330   1.810  0.0521  0.0827  0.4825
15564TIP3    H168183   0.267   4.340   1.889 -0.2803 -0.1893  0.7433
15564TIP3    H268184   0.231   4.410   1.760  0.4885  0.1252  0.6922
15565TIP3   OH268185   1.849   6.614  11.767 -0.6392 -0.2860 -0.0961
15565TIP3    H168186   1.778   6.571  11.721 -2.1733  2.2376 -0.2884
15565TIP3    H268187   1.899   6.659  11.698  1.1396 -1.9241  0.0469
15566TIP3   OH268188   4.918   4.812  15.297  0.1280  0.2302 -0.4563
15566TIP3    H168189   4.824   4.800  15.289  0.4206 -2.0385 -0.9142
15566TIP3    H268190   4.957   4.745  15.241  2.0451 -0.8483  1.9889
15567TIP3   OH268191   1.917   3.564   4.929  0.1293 -0.2713 -0.4093
15567TIP3    H168192   1.860   3.606   4.994 -0.4438 -0.4976 -0.7623
15567TIP3    H268193   1.971   3.635   4.895 -0.5248  0.1003 -0.6798
15568TIP3   OH268194   3.909   3.230   4.894 -0.7330  0.6644 -0.6514
15568TIP3    H168195   3.964   3.278   4.832  1.5496 -0.6197  0.2631
15568TIP3    H268196   3.891   3.147   4.851 -1.0274  0.6547 -0.5106
15569TIP3   OH268197   5.540   1.842  14.203  0.4380  0.0230  0.4876
15569TIP3    H168198   5.457   1.845  14.156  1.9929 -1.3960 -2.6813
15569TIP3    H268199   5.566   1.933  14.212  0.1788  0.3988 -1.8407
15570TIP3   OH268200   1.863   6.433  14.118  0.7228 -0.1071 -1.0409
15570TIP3    H168201   1.922   6.359  14.105  0.5042 -0.3653 -0.6277
15570TIP3    H268202   1.920   6.509  14.127  0.9381 -0.1698 -1.7928
15571TIP3   OH268203   2.209   6.022  10.532 -0.0712  0.4568  0.0295
15571TIP3    H168204   2.122   6.029  10.493 -0.2994  0.2123  0.4882
15571TIP3    H268205   2.264   5.992  10.460 -0.1784  1.4739 -0.4970
15572TIP3   OH268206   2.559   3.617   0.312  0.5183  0.2273  0.1298
15572TIP3    H168207   2.548   3.592   0.220 -0.5186  1.9999 -0.2860
15572TIP3    H268208   2.563   3.713   0.310  3.6036  0.2581  1.6529
15573TIP3   OH268209   3.974   5.359  13.139  0.0915 -0.3302 -0.0434
15573TIP3    H168210   4.054   5.350  13.190 -0.0244  1.1021  0.4385
15573TIP3    H268211   3.980   5.446  13.098  0.4477 -1.6118 -2.9930
15574TIP3   OH268212   4.407   1.760  15.316  0.1179  0.0644  0.0557
15574TIP3    H168213   4.324   1.742  15.362 -1.1271 -0.3445 -2.2318
15574TIP3    H268214   4.474   1.752  15.385 -1.7013  0.3464  1.9706
15575TIP3   OH268215   5.703   3.296  12.439 -0.4537  0.3828  0.1450
15575TIP3    H168216   5.608   3.288  12.441 -0.5022  0.8491  2.1495
15575TIP3    H268217   5.735   3.212  12.475 -0.1815  0.7423  0.7662
15576TIP3   OH268218   5.274   5.605   4.390  0.7515  0.2715 -0.3415
15576TIP3    H168219   5.238   5.640   4.471  0.8648  0.3797 -0.3358
15576TIP3    H268220   5.338   5.671   4.362  2.4716 -0.8643  0.7357
15577TIP3   OH268221   6.189   2.257   3.219  1.1704 -0.1820  0.4154
15577TIP3    H168222   6.279   2.268   3.186  1.0372 -3.1233 -1.3376
15577TIP3    H268223   6.194   2.181   3.276 -0.1969 -0.4258  0.2473
15578TIP3   OH268224   3.944   6.681   5.214  0.3092 -0.2781  0.0632
15578TIP3    H168225   4.008   6.610   5.212 -0.9543 -1.4633  0.5564
15578TIP3    H268226   3.864   6.642   5.180 -0.7374  0.5750  1.4762
15579TIP3   OH268227   3.687   5.951  12.641  0.1385  0.4328  0.1766
15579TIP3    H168228   3.721   5.924  12.727 -0.6142  0.3190  0.4438
15579TIP3    H268229   3.754   5.922  12.579  1.0854  1.2339  0.7841
15580TIP3   OH268230   1.708   2.814  12.662  0.2138  0.1312 -0.3426
15580TIP3    H168231   1.659   2.765  12.729  0.7901 -0.4015 -0.3010
15580TIP3    H268232   1.787   2.762  12.647  1.6384  1.8286  0.8490
15581TIP3   OH268233   2.940   5.749  14.155  0.0628  0.2466 -0.2842
15581TIP3    H168234   2.897   5.785  14.233  2.5478 -1.1434  1.9121
15581TIP3    H268235   2.960   5.825  14.102  1.7810  1.8456  2.3890
15582TIP3   OH268236   1.745   6.431   4.192 -0.1346 -0.5277 -0.0637
15582TIP3    H168237   1.807   6.372   4.236  0.1869 -0.1792 -0.0414
15582TIP3    H268238   1.661   6.413   4.234 -0.0098 -0.8663  0.0425
15583TIP3   OH268239   4.050   2.134   0.331 -0.4169  0.2659  0.0911
15583TIP3    H168240   4.053   2.064   0.396 -0.3825  0.7397  0.6140
15583TIP3    H268241   3.969   2.118   0.283  0.0672 -0.6821 -0.4399
15584TIP3   OH268242   1.810   0.150  16.179 -0.3072 -0.1223 -0.2693
15584TIP3    H168243   1.852   0.105  16.106  0.1054 -1.9121  0.9987
15584TIP3    H268244   1.856   0.233  16.186  1.9777 -1.3421  0.0352
15585TIP3   OH268245   6.092   1.999   2.453  0.3735 -0.5205 -0.2318
15585TIP3    H168246   6.179   1.977   2.419  0.4957  0.2198 -0.4243
15585TIP3    H268247   6.034   1.932   2.416  0.9737 -1.5115  0.5521
15586TIP3   OH268248   3.121   5.824   3.015 -0.1301  0.5112 -0.0468
15586TIP3    H168249   3.133   5.863   3.101 -0.7499  0.8619 -0.1177
15586TIP3    H268250   3.123   5.730   3.031  0.8464  0.5613  0.1942
15587TIP3   OH268251   5.060   6.048  10.850  0.4835  0.0567  0.3441
15587TIP3    H168252   5.005   5.993  10.794  1.0985  0.0162 -0.2274
15587TIP3    H268253   5.096   6.114  10.790  1.1440  0.0188  0.6914
15588TIP3   OH268254   0.989   1.083  11.754 -0.2206  0.1087 -0.2672
15588TIP3    H168255   1.066   1.138  11.742  1.4226 -2.1179 -0.5883
15588TIP3    H268256   0.975   1.082  11.848  0.5913  0.0007 -0.1393
15589TIP3   OH268257   5.987   4.596  13.493  0.2756  0.1072 -0.7055
15589TIP3    H168258   6.046   4.642  13.552  0.6401 -0.1604 -0.8553
15589TIP3    H268259   5.949   4.526  13.548  0.1164  0.2615 -0.6171
15590TIP3   OH268260   0.102   6.424  16.299  0.5650 -0.6762 -0.2341
15590TIP3    H168261   0.145   6.359  16.244  1.3021 -0.3662 -0.0369
15590TIP3    H268262   0.173   6.465  16.348  0.2023  0.8357 -0.9292
15591TIP3   OH268263   4.021   0.952  12.136  0.3369  0.3379  0.0957
15591TIP3    H168264   3.991   1.004  12.210  1.5213 -0.2127  0.9871
15591TIP3    H268265   4.115   0.970  12.130  0.2939  0.2596 -1.1903
15592TIP3   OH268266   0.483   1.366  15.446  0.1222 -0.9506 -0.7404
15592TIP3    H168267   0.425   1.427  15.491  0.1961 -1.8339  0.6018
15592TIP3    H268268   0.556   1.420  15.417  0.3848 -0.4425  0.7733
15593TIP3   OH268269   3.094   1.554   1.340 -0.0480  0.4137 -0.3461
15593TIP3    H168270   3.169   1.577   1.396  1.0030  0.1269 -1.5848
15593TIP3    H268271   3.082   1.460   1.355 -0.2667  0.4868 -0.0421
15594TIP3   OH268272   2.588   5.896   0.063 -0.4419 -0.5498 -0.3753
15594TIP3    H168273   2.555   5.986   0.069  1.0094  0.0406 -0.7690
15594TIP3    H268274   2.552   5.863  -0.019 -1.5875 -0.6048  0.1348
15595TIP3   OH268275   3.415   4.075   3.812  0.7195  1.0530  0.6012
15595TIP3    H168276   3.488   4.020   3.840  1.7203  2.9483  1.9643
15595TIP3    H268277   3.363   4.089   3.891  0.7887  2.4201  0.4419
15596TIP3   OH268278   2.118   5.667  12.153  0.3008 -0.3512  0.0309
15596TIP3    H168279   2.092   5.575  12.141  0.4900 -0.4978  0.6965
15596TIP3    H268280   2.208   5.671  12.121  0.6363 -0.6320  0.8909
15597TIP3   OH268281   6.673   3.599  11.540  0.2278  0.0263 -0.2144
15597TIP3    H168282   6.661   3.678  11.487  2.5556  0.9368  0.5050
15597TIP3    H268283   6.631   3.620  11.624  0.6501  0.4205 -0.0996
15598TIP3   OH268284   5.356   5.770   2.945 -0.6245  0.6101  0.0697
15598TIP3    H168285   5.420   5.755   3.014  0.9648  1.1930 -1.1928
15598TIP3    H268286   5.406   5.758   2.864 -2.3748  0.1156 -0.9886
15599TIP3   OH268287   3.039   2.367  14.377  0.0471  0.4941 -0.4550
15599TIP3    H168288   2.993   2.444  14.411  0.4970 -0.0373  1.5202
15599TIP3    H268289   2.985   2.337  14.304 -1.7145  1.0394  0.5429
15600TIP3   OH268290   4.333   2.094  12.310 -0.0918 -0.5143  0.5246
15600TIP3    H168291   4.379   2.173  12.283 -0.4440 -0.6421 -0.5284
15600TIP3    H268292   4.386   2.057  12.380  1.0375 -0.2894 -0.1867
15601TIP3   OH268293   5.020   4.816  10.206  0.5963 -0.3634 -0.0259
15601TIP3    H168294   4.992   4.735  10.164  0.9859  0.0001 -1.0152
15601TIP3    H268295   5.058   4.868  10.135  2.6894 -0.3457  1.0494
15602TIP3   OH268296   4.737   4.600  13.037 -0.0563 -0.1607  0.1295
15602TIP3    H168297   4.772   4.664  13.100 -1.4181  0.9634 -0.2110
15602TIP3    H268298   4.812   4.546  13.014  0.7688  0.2631  1.7002
15603TIP3   OH268299   2.464   1.345   1.202  0.0733  0.2869  0.0846
15603TIP3    H168300   2.541   1.386   1.243  0.0919  0.6773 -0.3255
15603TIP3    H268301   2.499   1.305   1.123  0.8417 -3.9787  2.2991
15604TIP3   OH268302   3.597   2.482   4.468  0.2245 -0.4481 -0.0720
15604TIP3    H168303   3.547   2.424   4.411 -2.3561  0.8842  0.7059
15604TIP3    H268304   3.601   2.565   4.420  1.4181 -0.4209  0.0428
15605TIP3   OH268305   1.552   2.847  11.718  0.5712  0.4843  0.6763
15605TIP3    H168306   1.534   2.884  11.632 -0.0828  0.8690  0.9641
15605TIP3    H268307   1.557   2.753  11.704  2.1011  0.6530 -0.0450
15606TIP3   OH268308   0.989   6.658  16.853 -0.8995 -0.0578 -0.0140
15606TIP3    H168309   0.960   6.742  16.819 -1.9884 -0.5680 -0.4134
15606TIP3    H268310   0.962   6.659  16.945  0.5767  0.6717  0.4303
15607TIP3   OH268311   0.428   4.502   5.784  0.2238  0.4573 -0.1686
15607TIP3    H168312   0.364   4.477   5.852 -2.2227  1.5578 -1.9126
15607TIP3    H268313   0.468   4.419   5.758 -0.1144 -0.2184  1.3390
15608TIP3   OH268314   0.716   2.179  10.683  0.7440 -0.3856  0.1487
15608TIP3    H168315   0.758   2.103  10.643  1.4110  1.0698 -2.1219
15608TIP3    H268316   0.622   2.162  10.674  0.8812 -0.4175 -1.5024
15609TIP3   OH268317   4.386   6.697   1.132 -0.3894  0.7585  0.1649
15609TIP3    H168318   4.379   6.680   1.226  1.0445  1.6720  0.4818
15609TIP3    H268319   4.330   6.773   1.117 -0.8120  0.4629  0.2201
15610TIP3   OH268320   4.002   2.296  15.418 -0.7560  0.0690  0.3440
15610TIP3    H168321   4.036   2.299  15.329 -0.8802  0.9278  0.3190
15610TIP3    H268322   4.052   2.363  15.466 -2.6181  1.6285  0.2111
15611TIP3   OH268323   0.815   3.458  13.162 -0.4967  0.1155 -0.3588
15611TIP3    H168324   0.768   3.454  13.245  0.0678 -1.2096 -0.0656
15611TIP3    H268325   0.747   3.446  13.095 -0.6476 -1.7466  0.0556
15612TIP3   OH268326   0.187   2.399   5.539 -0.2155 -0.0271  0.8202
15612TIP3    H168327   0.135   2.322   5.519 -0.7055  0.4522  0.1843
15612TIP3    H268328   0.269   2.365   5.574 -0.9570 -0.7926  1.8592
15613TIP3   OH268329   3.371   5.186  14.473  0.2242 -0.1561  0.1230
15613TIP3    H168330   3.286   5.198  14.515  0.4365  1.4579  0.1288
15613TIP3    H268331   3.355   5.206  14.381  0.8514  1.5148  0.3450
15614TIP3   OH268332   4.524   6.825  15.743 -0.2027 -0.7349  0.2751
15614TIP3    H168333   4.595   6.848  15.804  0.3624 -0.1134 -0.5924
15614TIP3    H268334   4.547   6.870  15.662  0.1047 -3.0891 -1.0281
15615TIP3   OH268335   2.515   0.480   3.083  0.4465  0.6095  0.4064
15615TIP3    H168336   2.438   0.432   3.114  0.8710 -1.0081 -0.9120
15615TIP3    H268337   2.572   0.485   3.160 -0.7846  1.5396  1.3107
15616TIP3   OH268338   5.490   2.871   2.702 -0.5175 -0.1231  0.1357
15616TIP3    H168339   5.449   2.932   2.642  0.5909 -0.3907 -0.9274
15616TIP3    H268340   5.491   2.917   2.786 -0.8083  0.8254 -0.3639
15617TIP3   OH268341   1.111   4.283   4.722 -0.5717 -0.0968 -0.5925
15617TIP3    H168342   1.167   4.309   4.794 -0.1098  0.4879 -1.1480
15617TIP3    H268343   1.127   4.348   4.654 -0.6213 -0.9073 -1.4077
15618TIP3   OH268344   3.545   1.172  15.003  0.0092  0.2010  0.2996
15618TIP3    H168345   3.499   1.241  15.052 -1.0328  0.7263 -1.3171
15618TIP3    H268346   3.560   1.211  14.917  1.8532 -0.6591  0.1962
15619TIP3   OH268347   0.373   2.203  10.920  0.1927  0.1438 -0.1465
15619TIP3    H168348   0.288   2.244  10.905  0.5508  2.0409  2.4128
15619TIP3    H268349   0.418   2.209  10.836 -1.2064  1.5371 -0.8464
15620TIP3   OH268350   2.887   6.023   1.399 -0.2696 -0.2754 -0.1231
15620TIP3    H168351   2.926   6.033   1.312 -0.5285  0.3115 -0.1707
15620TIP3    H268352   2.826   6.096   1.408  1.1873  0.8488  1.3119
15621TIP3   OH268353   0.202   3.988  13.508 -0.0696  0.1067  0.0357
15621TIP3    H168354   0.144   4.001  13.434 -0.5500  2.0702  0.7133
15621TIP3    H268355   0.289   3.978  13.469 -0.5377 -0.6079 -0.8523
15622TIP3   OH268356   1.861   1.721  12.392  0.0395 -0.2292 -0.2694
15622TIP3    H168357   1.781   1.772  12.395 -0.8860 -1.6502  0.3723
15622TIP3    H268358   1.923   1.776  12.345 -1.1939  1.0495 -0.4657
15623TIP3   OH268359   5.796   6.276   3.077 -0.3812 -0.2285 -0.1372
15623TIP3    H168360   5.806   6.236   2.991 -0.6658 -1.7202  0.4965
15623TIP3    H268361   5.856   6.351   3.075 -0.9821  0.2565 -1.8953
15624TIP3   OH268362   3.482   0.196   3.598  0.8318  0.1549 -0.6189
15624TIP3    H168363   3.423   0.272   3.600 -1.4540 -1.5103 -1.1296
15624TIP3    H268364   3.503   0.185   3.505 -0.5414 -1.0392 -0.8100
15625TIP3   OH268365   4.773   0.564  12.264  0.9977  0.6411  0.4297
15625TIP3    H168366   4.831   0.585  12.190  1.1358 -1.4817 -0.1347
15625TIP3    H268367   4.691   0.537  12.223  1.4049 -1.5355  0.9544
15626TIP3   OH268368   1.513   4.474   0.982 -0.3748 -0.2965  0.3968
15626TIP3    H168369   1.494   4.503   0.893 -0.1819 -1.1071  0.0890
15626TIP3    H268370   1.549   4.386   0.972 -1.6643 -0.9576  1.3749
15627TIP3   OH268371   6.210   0.196   3.450  0.2615 -0.4690 -0.4137
15627TIP3    H168372   6.261   0.157   3.379  0.4669  2.0783 -1.7545
15627TIP3    H268373   6.219   0.290   3.438 -1.1446  0.0569  1.9833
15628TIP3   OH268374   3.341   1.580  12.187 -0.1962  0.3339 -1.6116
15628TIP3    H168375   3.407   1.609  12.249 -0.6543 -1.2621 -0.3118
15628TIP3    H268376   3.355   1.635  12.110  1.4431  1.2616 -0.7120
15629TIP3   OH268377   5.972   4.361   4.331  0.0631 -0.1738 -0.1718
15629TIP3    H168378   6.029   4.407   4.394 -1.4630 -0.4596  1.5190
15629TIP3    H268379   5.886   4.400   4.345  0.0613  1.6999 -4.1003
15630TIP3   OH268380   5.332   1.262  12.224 -0.5922 -0.3237 -0.2326
15630TIP3    H168381   5.362   1.183  12.178  2.1355  0.5502 -0.1286
15630TIP3    H268382   5.243   1.240  12.253 -0.9465 -2.3380 -2.5124
15631TIP3   OH268383   0.820   4.020   4.346  0.0353  0.2680 -0.0490
15631TIP3    H168384   0.750   3.983   4.401 -0.8434  3.7493  1.4432
15631TIP3    H268385   0.884   4.053   4.408  1.3638  0.1727 -1.3196
15632TIP3   OH268386   6.889   4.817   2.709 -0.9492 -0.2077  0.4256
15632TIP3    H168387   6.923   4.850   2.626  0.0549 -0.8244  0.5740
15632TIP3    H268388   6.794   4.811   2.696 -0.7311 -1.0588 -0.9667
15633TIP3   OH268389   3.606   3.667   2.016  0.4522 -0.3416  0.1576
15633TIP3    H168390   3.517   3.687   2.043  0.0204  0.5793 -1.7416
15633TIP3    H268391   3.612   3.572   2.021 -0.4727 -0.3787  0.7455
15634TIP3   OH268392   3.457   6.845   2.822  0.1435  0.4902  0.7049
15634TIP3    H168393   3.529   6.817   2.765  0.2044  1.8339  0.0740
15634TIP3    H268394   3.416   6.764   2.851  1.7064 -0.2959  0.8196
15635TIP3   OH268395   5.080   5.770  10.508  0.4173  0.1802 -0.2249
15635TIP3    H168396   5.149   5.746  10.570  0.3902  1.2664  0.2453
15635TIP3    H268397   5.127   5.813  10.436  0.3050  0.2569 -0.2524
15636TIP3   OH268398   5.698   2.558  11.079  0.3762  0.1913  0.0126
15636TIP3    H168399   5.717   2.469  11.051  0.3751 -0.4391  1.8617
15636TIP3    H268400   5.644   2.595  11.009  0.2552 -1.3067 -0.7111
15637TIP3   OH268401   1.399   2.303  14.392 -0.1833 -0.0538  0.2040
15637TIP3    H168402   1.476   2.335  14.345  1.0147 -0.0229  2.0995
15637TIP3    H268403   1.394   2.210  14.370 -0.0348  0.0873 -0.4668
15638TIP3   OH268404   1.337   3.381   5.297 -0.8685 -0.1985 -0.5934
15638TIP3    H168405   1.369   3.377   5.387 -0.7001 -0.9614 -0.6832
15638TIP3    H268406   1.247   3.413   5.305 -0.9343 -0.4887 -0.1283
15639TIP3   OH268407   4.315   0.342  10.472  0.3507 -0.2738 -0.7141
15639TIP3    H168408   4.359   0.310  10.394  2.2618 -0.5462  0.4200
15639TIP3    H268409   4.280   0.427  10.448  1.3481 -0.1381 -1.7108
15640TIP3   OH268410   0.940   5.333  15.356  0.3355  0.5407  0.1662
15640TIP3    H168411   0.875   5.392  15.318 -0.1688  0.1964  0.4937
15640TIP3    H268412   0.972   5.379  15.434  0.5237  0.7280 -0.0177
15641TIP3   OH268413   6.495   2.868   0.230 -0.4364 -1.0918 -0.1212
15641TIP3    H168414   6.546   2.896   0.153  2.0731  0.9440  2.0913
15641TIP3    H268415   6.420   2.927   0.231 -0.5489 -1.2019 -1.0335
15642TIP3   OH268416   2.318   2.929   6.355  0.1286  0.3062 -0.8193
15642TIP3    H168417   2.262   3.005   6.336  0.4919  1.3091  1.7131
15642TIP3    H268418   2.262   2.853   6.342 -0.5714  1.0509 -2.3472
15643TIP3   OH268419   5.543   0.713   1.783  0.7075  0.0056 -0.2173
15643TIP3    H168420   5.514   0.623   1.793  2.3830 -0.4243  1.4904
15643TIP3    H268421   5.625   0.707   1.734  1.5330  0.4214  1.0590
15644TIP3   OH268422   2.883   3.420  15.976  0.1119 -0.4148 -0.4400
15644TIP3    H168423   2.831   3.343  16.002  0.2631 -0.2459  0.3940
15644TIP3    H268424   2.871   3.426  15.882  0.3424 -1.6563 -0.5730
15645TIP3   OH268425   5.816   4.499   1.095  0.2603 -0.3108  0.0950
15645TIP3    H168426   5.872   4.451   1.034 -0.7036 -0.8458 -0.3873
15645TIP3    H268427   5.728   4.470   1.074 -0.2229  0.6844  0.6974
15646TIP3   OH268428   1.064   2.611  15.256 -0.2316 -0.0428 -0.1870
15646TIP3    H168429   0.985   2.583  15.210 -0.7468  0.9408  0.0665
15646TIP3    H268430   1.133   2.553  15.223 -1.2273 -1.5614  0.2994
15647TIP3   OH268431   2.243   3.679   4.506  0.7176  0.0948 -0.3250
15647TIP3    H168432   2.235   3.771   4.531  1.4597  0.1417 -0.2445
15647TIP3    H268433   2.314   3.645   4.561 -0.6144 -0.9450  0.8204
15648TIP3   OH268434   4.748   0.510   0.809 -1.0322 -0.3531 -0.5195
15648TIP3    H168435   4.700   0.554   0.879 -1.5130 -1.2838 -0.2447
15648TIP3    H268436   4.813   0.573   0.781 -0.8924  0.0765  0.7059
15649TIP3   OH268437   3.619   0.319   3.041  0.4607  0.4829 -0.4313
15649TIP3    H168438   3.570   0.365   3.108  0.1442  0.4137 -0.6111
15649TIP3    H268439   3.561   0.319   2.964  0.3820 -0.3538 -0.3871
15650TIP3   OH268440   4.765   4.567  16.625  0.2861  0.8023 -0.3422
15650TIP3    H168441   4.791   4.593  16.714 -1.1388 -0.3097  0.4594
15650TIP3    H268442   4.687   4.513  16.639  0.7624 -0.4387 -2.1873
15651TIP3   OH268443   1.568   0.696  12.821 -0.0916 -0.2362  0.0904
15651TIP3    H168444   1.540   0.779  12.859  3.3324  1.5940 -0.9754
15651TIP3    H268445   1.557   0.708  12.727  1.9308 -0.2630 -0.2009
15652TIP3   OH268446   3.515   5.706  12.541 -0.5873  0.2789  0.2274
15652TIP3    H168447   3.575   5.691  12.614 -0.3821 -0.0723 -0.0104
15652TIP3    H268448   3.552   5.656  12.469 -2.6588 -2.3878  0.8386
15653TIP3   OH268449   1.958   6.675  11.521  0.3334 -0.1181  0.2032
15653TIP3    H168450   1.966   6.757  11.473 -0.3112  0.2182  0.6510
15653TIP3    H268451   1.933   6.611  11.455  1.1117 -0.0162 -0.1976
15654TIP3   OH268452   1.767   2.621  14.978  0.0152 -0.7306  0.0799
15654TIP3    H168453   1.682   2.633  14.935  0.2419  0.0743 -0.1605
15654TIP3    H268454   1.822   2.692  14.944  0.4881 -0.6455  0.9710
15655TIP3   OH268455   1.755   6.292   1.780  0.1899  0.9035  0.3126
15655TIP3    H168456   1.675   6.277   1.730 -0.1688 -2.5358  1.6402
15655TIP3    H268457   1.728   6.351   1.850 -0.7849  1.0558 -0.1746
15656TIP3   OH268458   2.404   2.208   2.989 -0.0895 -0.5174 -0.4711
15656TIP3    H168459   2.350   2.158   2.927 -1.4762  0.5850 -0.1939
15656TIP3    H268460   2.382   2.172   3.074 -0.9366  0.3871 -0.2902
15657TIP3   OH268461   0.757   6.180  10.795 -0.8743  0.2182  0.4227
15657TIP3    H168462   0.667   6.154  10.814 -1.1266  1.3800  0.8969
15657TIP3    H268463   0.772   6.257  10.849 -0.6650  1.9366 -1.9305
15658TIP3   OH268464   5.348   0.212   3.018  0.4258  0.2179 -0.2128
15658TIP3    H168465   5.284   0.268   3.062  0.1001  0.0562 -0.4778
15658TIP3    H268466   5.295   0.148   2.970  0.7757 -1.6870  1.8016
15659TIP3   OH268467   2.189   1.314   1.557  0.0981 -0.4466  0.2659
15659TIP3    H168468   2.257   1.363   1.605 -1.3179 -0.2407  2.1978
15659TIP3    H268469   2.227   1.227   1.546  0.7465 -0.3070  1.2070
15660TIP3   OH268470   0.598   0.168  14.221 -0.2214  0.3881  0.0668
15660TIP3    H168471   0.509   0.202  14.229 -0.0772  0.9700 -0.6496
15660TIP3    H268472   0.652   0.232  14.266 -0.0043  0.8793 -0.8559
15661TIP3   OH268473   4.624   6.471  16.411  0.4268  0.1010  0.2349
15661TIP3    H168474   4.623   6.545  16.472  2.5112  1.7728 -1.5706
15661TIP3    H268475   4.711   6.475  16.371 -0.5210 -1.4647 -2.1718
15662TIP3   OH268476   2.635   2.555   1.857  0.1349 -0.5926 -0.3170
15662TIP3    H168477   2.598   2.492   1.795 -0.1777 -0.4855 -0.2403
15662TIP3    H268478   2.560   2.605   1.889 -0.1801 -2.5040  2.2947
15663TIP3   OH268479   4.042   2.898   0.483  0.4028  0.2537 -0.2557
15663TIP3    H168480   3.962   2.845   0.493  1.6060 -1.4335  0.9235
15663TIP3    H268481   4.015   2.971   0.427 -2.6781  1.2947  2.3215
15664TIP3   OH268482   0.065   1.006  11.569  0.0522  0.1306 -0.0174
15664TIP3    H168483   0.103   1.091  11.549  0.7278 -0.4840 -1.5129
15664TIP3    H268484   0.140   0.951  11.591 -0.3022 -0.2910  0.1569
15665TIP3   OH268485   1.013   0.329   9.718  0.3094 -0.2976  0.2096
15665TIP3    H168486   1.064   0.266   9.667 -0.0135 -1.7772  1.6181
15665TIP3    H268487   1.022   0.299   9.809  2.2241  3.1585  1.3505
15666TIP3   OH268488   1.735   5.303  10.973 -0.8190  0.1550 -0.3395
15666TIP3    H168489   1.807   5.288  10.912 -1.5757 -1.2393 -0.9576
15666TIP3    H268490   1.658   5.267  10.929 -1.7414  0.7922  0.6725
15667TIP3   OH268491   0.264   2.113  12.950  0.1012 -0.4411 -0.0715
15667TIP3    H168492   0.345   2.144  12.991  0.1396 -1.0693  0.3267
15667TIP3    H268493   0.199   2.178  12.976  0.2520 -0.5068  0.4965
15668TIP3   OH268494   5.289   3.978  16.423 -0.2673  0.0763  0.6109
15668TIP3    H168495   5.195   3.994  16.426 -0.2761  0.4556 -0.9034
15668TIP3    H268496   5.300   3.889  16.457 -1.1150  0.1651  1.1475
15669TIP3   OH268497   0.583   0.308   4.172 -0.5289  0.4163 -0.0560
15669TIP3    H168498   0.633   0.284   4.095  0.4557  1.3165  0.2663
15669TIP3    H268499   0.526   0.233   4.190  0.7921 -0.6855 -0.3799
15670TIP3   OH268500   2.182   4.873  13.055 -0.4891 -0.2539  0.4467
15670TIP3    H168501   2.094   4.837  13.044 -0.1816 -0.9377  0.1061
15670TIP3    H268502   2.176   4.928  13.132 -1.9032  1.9718 -1.1345
15671TIP3   OH268503   3.288   4.226   1.434 -0.1493  0.1975 -0.1456
15671TIP3    H168504   3.319   4.199   1.520 -0.3560 -1.3030 -0.5141
15671TIP3    H268505   3.348   4.183   1.373 -0.4444  0.6572 -0.7666
15672TIP3   OH268506   6.430   0.340   4.830  0.0581  0.4542  0.0385
15672TIP3    H168507   6.400   0.358   4.919 -1.4060 -3.8712  0.6278
15672TIP3    H268508   6.524   0.326   4.839  0.3622  2.3477  0.3544
15673TIP3   OH268509   0.372   1.173  12.096 -0.5591  0.4399 -0.7902
15673TIP3    H168510   0.326   1.228  12.032 -1.6199  0.8548  0.2921
15673TIP3    H268511   0.397   1.234  12.165 -2.8197 -0.5439  1.0320
15674TIP3   OH268512   2.126   0.036  14.301  0.3968  0.5332 -0.2945
15674TIP3    H168513   2.219   0.010  14.300  0.8631  2.0625 -2.1194
15674TIP3    H268514   2.123   0.109  14.363  0.3558  0.3652 -0.0952
15675TIP3   OH268515   3.668   2.200  12.888 -0.6198  0.4726 -0.0607
15675TIP3    H168516   3.726   2.270  12.858 -0.5276  0.1400 -0.6813
15675TIP3    H268517   3.708   2.170  12.970  0.0659  0.2904 -0.4457
15676TIP3   OH268518   3.113   0.992   3.001  0.4658  0.0264  0.3751
15676TIP3    H168519   3.194   0.968   2.956 -0.0668  0.3749 -0.8048
15676TIP3    H268520   3.081   0.909   3.037  0.1944 -0.5501 -1.1030
15677TIP3   OH268521   1.701   3.505  15.063 -0.0051 -0.2092 -0.0264
15677TIP3    H168522   1.742   3.426  15.028  0.6621  0.1790 -0.1410
15677TIP3    H268523   1.614   3.477  15.091  0.5284 -1.1869  0.7177
15678TIP3   OH268524   4.151   5.284  15.908 -0.0267 -0.3480  0.0158
15678TIP3    H168525   4.205   5.319  15.836 -1.0946  0.2407 -0.5272
15678TIP3    H268526   4.073   5.250  15.865 -0.3203 -0.7276  0.8351
15679TIP3   OH268527   5.634   4.884   0.207 -0.3681  0.1141  0.1437
15679TIP3    H168528   5.555   4.832   0.222 -0.0256 -0.2696  0.6512
15679TIP3    H268529   5.693   4.826   0.160  0.0616 -0.0112  0.8164
15680TIP3   OH268530   0.852   5.138  14.618  0.6043 -0.3642  0.1751
15680TIP3    H168531   0.934   5.123  14.666  0.6607 -0.4857  0.0397
15680TIP3    H268532   0.878   5.188  14.541  0.5949 -0.6645 -0.0243
15681TIP3   OH268533   3.624   2.979   2.096  0.0923 -0.1158  0.1972
15681TIP3    H168534   3.551   2.986   2.157  2.6597 -0.2122  3.5727
15681TIP3    H268535   3.611   2.896   2.052 -2.2769  0.3156 -0.0518
15682TIP3   OH268536   5.780   5.755  13.767 -0.2092 -0.3048 -0.1661
15682TIP3    H168537   5.759   5.749  13.674 -1.2251  1.2253 -0.0772
15682TIP3    H268538   5.777   5.848  13.786 -1.9679 -0.6837  1.8005
15683TIP3   OH268539   5.315   2.202   1.368 -0.3127 -0.2612  0.0489
15683TIP3    H168540   5.348   2.197   1.458 -2.1955 -1.4611  0.7575
15683TIP3    H268541   5.252   2.130   1.363  0.3610 -0.7413 -2.5362
15684TIP3   OH268542   6.370   4.775  13.854 -0.1831 -0.5671  0.7357
15684TIP3    H168543   6.391   4.695  13.805  0.1324 -0.2275  0.3209
15684TIP3    H268544   6.301   4.747  13.915 -2.0798 -0.5331 -1.2903
15685TIP3   OH268545   2.509   2.238   0.032 -0.0274  0.2180 -0.0404
15685TIP3    H168546   2.593   2.193   0.037 -0.8292 -1.5315 -0.9864
15685TIP3    H268547   2.446   2.168   0.015 -1.6690  1.4877  0.5505
15686TIP3   OH268548   5.338   4.134   2.613 -0.1181  0.4365  0.0304
15686TIP3    H168549   5.431   4.129   2.633  0.2853  0.0370 -1.7802
15686TIP3    H268550   5.307   4.211   2.660  0.9378  0.1282  1.2824
15687TIP3   OH268551   2.590   3.654  16.450  0.6122  0.2162 -0.8186
15687TIP3    H168552   2.547   3.599  16.384  0.4317 -0.1757 -0.3794
15687TIP3    H268553   2.675   3.612  16.463  0.1665 -0.4357  0.0999
15688TIP3   OH268554   5.104   4.178   4.027 -0.3213  0.4437  0.1077
15688TIP3    H168555   5.163   4.140   3.961 -0.2305  0.8444 -0.0424
15688TIP3    H268556   5.099   4.111   4.096  0.9889  0.7349  0.5228
15689TIP3   OH268557   4.710   1.762  12.741  0.4182 -0.1623 -0.2047
15689TIP3    H168558   4.692   1.674  12.776 -2.0964  0.4457  0.1939
15689TIP3    H268559   4.664   1.821  12.799  0.5694  1.3028 -1.5131
15690TIP3   OH268560   5.609   1.740  11.881  0.1189  0.0270 -0.0564
15690TIP3    H168561   5.648   1.668  11.930  0.4319 -0.2765 -0.7312
15690TIP3    H268562   5.523   1.752  11.920  0.3723 -0.1750  0.5858
15691TIP3   OH268563   6.650   4.019   5.101 -0.8512 -0.2249  0.0710
15691TIP3    H168564   6.595   4.096   5.117 -0.2671  0.3618 -0.6949
15691TIP3    H268565   6.663   4.018   5.006 -2.1409 -2.1719 -0.1387
15692TIP3   OH268566   3.198   6.469   4.443 -0.3552 -0.0899  0.0296
15692TIP3    H168567   3.122   6.480   4.387 -0.3764 -0.7549 -0.0815
15692TIP3    H268568   3.239   6.556   4.445 -1.3169  0.3774  0.4016
15693TIP3   OH268569   1.499   0.814   1.114  0.4251  0.4692  0.5144
15693TIP3    H168570   1.525   0.847   1.028 -2.3753  0.0888 -0.5922
15693TIP3    H268571   1.459   0.890   1.158 -0.5319  0.0473  0.3963
15694TIP3   OH268572   4.339   4.271   0.431  0.0356 -0.7687  0.1764
15694TIP3    H168573   4.274   4.280   0.361  1.9404 -2.4624 -1.9555
15694TIP3    H268574   4.379   4.358   0.437  0.0211 -0.6442 -1.0846
15695TIP3   OH268575   5.577   5.735  16.260  0.0846 -0.0917  0.1470
15695TIP3    H168576   5.519   5.720  16.185 -1.9742 -1.4518  1.8690
15695TIP3    H268577   5.631   5.656  16.266  0.5845  0.2240 -0.1785
15696TIP3   OH268578   5.756   1.697  10.852 -0.7814  0.4056 -0.2337
15696TIP3    H168579   5.778   1.694  10.759 -0.9123  1.7002 -0.3289
15696TIP3    H268580   5.837   1.726  10.894 -0.4740 -0.9612  0.1771
15697TIP3   OH268581   6.403   3.249   5.478 -0.3220 -0.1078  0.0214
15697TIP3    H168582   6.428   3.159   5.455 -0.5002 -0.4008  0.9634
15697TIP3    H268583   6.308   3.250   5.468 -0.6893 -0.8718  2.8049
15698TIP3   OH268584   6.379   0.377  11.615 -0.2718 -0.2070 -0.5595
15698TIP3    H168585   6.373   0.293  11.569 -2.7081  0.1781 -1.0539
15698TIP3    H268586   6.354   0.441  11.549  0.0010  0.7608  0.2674
15699TIP3   OH268587   6.508   5.080  15.828 -0.1919  0.2597 -0.4320
15699TIP3    H168588   6.524   5.052  15.918 -1.6445 -0.6704 -0.4385
15699TIP3    H268589   6.512   4.999  15.777 -0.9006  0.5602 -0.9799
15700TIP3   OH268590   6.289   5.046   3.904  0.0407  0.1374 -0.5931
15700TIP3    H168591   6.347   5.121   3.909  1.9835 -1.2892 -0.6926
15700TIP3    H268592   6.238   5.060   3.824 -1.6697  2.6686  0.8074
15701TIP3   OH268593   0.844   0.986  11.490  0.4559  0.4377 -0.2630
15701TIP3    H168594   0.869   0.985  11.583 -0.2110  1.8211 -0.0472
15701TIP3    H268595   0.900   1.054  11.452  0.0004  0.5882 -0.6600
15702TIP3   OH268596   0.417   2.837  11.561  0.4861  0.2834 -0.3098
15702TIP3    H168597   0.392   2.777  11.491 -0.6407 -1.0395  1.1327
15702TIP3    H268598   0.513   2.833  11.564  0.4354 -1.8865  0.0407
15703TIP3   OH268599   1.675   4.765   2.231 -0.1169 -0.6812  0.2268
15703TIP3    H168600   1.593   4.717   2.232 -0.4888 -0.1563  2.7827
15703TIP3    H268601   1.725   4.729   2.304  1.1276  0.3049 -0.0966
15704TIP3   OH268602   3.876   1.941  12.919 -0.1370 -0.2985 -0.1453
15704TIP3    H168603   3.806   1.927  12.855 -0.2848  1.3508 -0.3805
15704TIP3    H268604   3.835   1.994  12.988  1.3836  2.6406 -1.3652
15705TIP3   OH268605   5.707   4.284   0.184 -0.2604  0.5306  0.1404
15705TIP3    H168606   5.631   4.309   0.236 -0.7082 -0.2200 -0.1402
15705TIP3    H268607   5.766   4.242   0.246 -0.3911  0.4659  0.2208
15706TIP3   OH268608   2.729   1.810   5.095  0.3665  0.3525 -0.3633
15706TIP3    H168609   2.732   1.742   5.027 -0.3330  0.0005 -0.0561
15706TIP3    H268610   2.803   1.867   5.075  0.9734 -0.5037 -0.6228
15707TIP3   OH268611   4.713   4.850  14.474  0.5833 -0.3733  0.2568
15707TIP3    H168612   4.799   4.827  14.438  0.5205 -0.6668  0.2907
15707TIP3    H268613   4.653   4.838  14.401  0.6823  0.6245  0.0058
15708TIP3   OH268614   0.210   2.415   1.030 -0.1520 -0.2378 -0.5400
15708TIP3    H168615   0.270   2.394   0.959 -1.8321 -0.1814 -2.0394
15708TIP3    H268616   0.202   2.511   1.027 -1.4761 -0.3478 -1.3958
15709TIP3   OH268617   3.132   2.476   6.503  0.0965 -0.5234  0.4183
15709TIP3    H168618   3.145   2.427   6.422 -0.7283 -0.9763  0.5500
15709TIP3    H268619   3.185   2.554   6.492 -0.3804 -0.3453 -0.7669
15710TIP3   OH268620   4.281   1.334   5.664  0.0426 -0.1522 -0.0574
15710TIP3    H168621   4.188   1.349   5.647  0.3715  1.3899 -0.5936
15710TIP3    H268622   4.289   1.339   5.759 -0.2595  0.8107 -0.0730
15711TIP3   OH268623   2.357   0.693  13.322 -0.0288 -0.0206 -0.3700
15711TIP3    H168624   2.355   0.720  13.231 -0.6912  0.4087 -0.2328
15711TIP3    H268625   2.444   0.721  13.354 -0.1232  0.5880 -0.6378
15712TIP3   OH268626   0.420   5.732  12.833  0.9329 -0.3798 -0.1799
15712TIP3    H168627   0.373   5.731  12.916  3.7020 -2.8967  1.5286
15712TIP3    H268628   0.442   5.825  12.819 -0.3396  0.2040  1.3976
15713TIP3   OH268629   2.116   1.035   5.602  0.3475  0.0972  0.4599
15713TIP3    H168630   2.099   0.946   5.634 -0.8635 -0.0822 -0.5916
15713TIP3    H268631   2.100   1.091   5.679 -0.1994 -0.4914  0.7889
15714TIP3   OH268632   0.538   5.797  16.244 -0.6011 -0.4557 -0.1627
15714TIP3    H168633   0.478   5.868  16.268  0.1727 -0.4211  1.8917
15714TIP3    H268634   0.573   5.822  16.159 -0.6388  1.4512  0.3439
15715TIP3   OH268635   0.888   4.806   5.577 -0.6080 -0.1634 -0.2302
15715TIP3    H168636   0.849   4.856   5.649 -0.7633  0.3162 -0.6380
15715TIP3    H268637   0.879   4.715   5.604  0.6656  0.0355  1.0359
15716TIP3   OH268638   4.542   0.016   5.292  0.5935 -0.1409 -0.0410
15716TIP3    H168639   4.562   0.012   5.385  2.2358  1.7516 -0.2565
15716TIP3    H268640   4.471   0.080   5.285  0.4258 -0.3310 -0.0760
15717TIP3   OH268641   2.717   6.095   4.977 -0.3489  0.1552  0.0686
15717TIP3    H168642   2.724   6.134   4.890 -0.9291  0.9355  0.3546
15717TIP3    H268643   2.794   6.039   4.985 -0.0582  0.4237 -0.7738
15718TIP3   OH268644   4.812   0.242   0.844  0.2360 -0.4903 -0.0613
15718TIP3    H168645   4.895   0.254   0.799 -0.2165 -2.0827 -1.4262
15718TIP3    H268646   4.767   0.326   0.835  1.2362  0.0354 -0.2691
15719TIP3   OH268647   6.090   4.798  16.067  0.2379 -0.5137  0.6181
15719TIP3    H168648   6.016   4.742  16.090 -1.8846  1.0151 -1.8910
15719TIP3    H268649   6.128   4.757  15.989  0.3163  0.1448  0.3028
15720TIP3   OH268650   2.555   6.150  13.457  0.3851  0.2950  0.1833
15720TIP3    H168651   2.636   6.099  13.454 -0.2128 -0.7335  1.1825
15720TIP3    H268652   2.546   6.185  13.368  0.7775 -1.4117 -0.5682
15721TIP3   OH268653   2.197   0.682  11.642  0.2859 -0.2342 -0.3839
15721TIP3    H168654   2.234   0.689  11.730 -0.1559 -2.7205  0.0716
15721TIP3    H268655   2.151   0.765  11.629  0.7970  0.4091  1.5078
15722TIP3   OH268656   1.717   4.875  10.293 -0.1719  0.6586  0.6442
15722TIP3    H168657   1.778   4.888  10.220  0.9775  1.0087  1.6288
15722TIP3    H268658   1.633   4.905  10.259  0.0901 -0.2722 -0.9038
15723TIP3   OH268659   1.363   4.991  14.497 -0.1297 -0.5901  0.2163
15723TIP3    H168660   1.320   4.915  14.536  0.7904 -0.3092  1.8487
15723TIP3    H268661   1.418   5.026  14.566  0.1919  1.0237 -0.7972
15724TIP3   OH268662   3.338   0.861   5.971  0.0840 -0.2761 -0.4055
15724TIP3    H168663   3.262   0.870   6.029 -0.4117 -2.3995 -0.6466
15724TIP3    H268664   3.411   0.841   6.030  0.1602  0.2547 -0.3102
15725TIP3   OH268665   5.653   6.545   4.092 -0.2059 -0.1340  0.0545
15725TIP3    H168666   5.663   6.454   4.123 -0.5247 -0.3463 -0.4550
15725TIP3    H268667   5.676   6.598   4.168  0.4425 -0.6379  0.2194
15726TIP3   OH268668   5.245   2.291   0.473 -0.0461  0.2698  0.1795
15726TIP3    H168669   5.294   2.341   0.539  0.5263 -0.1803  0.0995
15726TIP3    H268670   5.299   2.215   0.455  0.1182  0.7030 -1.2892
15727TIP3   OH268671   2.984   3.650   4.431  0.0753  0.6116  0.1547
15727TIP3    H168672   3.030   3.621   4.352 -2.4024 -1.5124 -0.6707
15727TIP3    H268673   2.927   3.720   4.401 -0.9551 -0.2768 -0.0338
15728TIP3   OH268674   5.187   4.614  12.677  0.0178 -0.0137 -0.0095
15728TIP3    H168675   5.231   4.550  12.733  1.0079 -0.2284 -0.9814
15728TIP3    H268676   5.128   4.661  12.735  1.5280  0.2568  1.3790
15729TIP3   OH268677   3.716   0.583  10.827 -0.0489  0.4040  0.3373
15729TIP3    H168678   3.693   0.670  10.860 -1.4324 -0.4819  1.8083
15729TIP3    H268679   3.732   0.597  10.733 -2.5477  1.8684  0.0523
15730TIP3   OH268680   2.952   4.216  15.306  0.1284 -0.7000 -0.4637
15730TIP3    H168681   2.950   4.172  15.221  1.1436  0.0191 -0.8845
15730TIP3    H268682   2.879   4.278  15.302 -1.3014 -2.2800  0.1316
15731TIP3   OH268683   6.877   2.791  15.648  0.5293 -0.2180  0.6396
15731TIP3    H168684   6.935   2.839  15.707  2.5795 -2.5980  0.7034
15731TIP3    H268685   6.894   2.828  15.562  1.1371  0.0087  0.8544
15732TIP3   OH268686   1.727   1.519  13.692 -0.1619 -0.0592  0.4760
15732TIP3    H168687   1.768   1.577  13.756  0.7349 -3.7010  3.5738
15732TIP3    H268688   1.800   1.486  13.640  0.4287 -2.8007  2.7731
15733TIP3   OH268689   5.873   4.880   4.397  0.1965 -0.3967 -0.5742
15733TIP3    H168690   5.782   4.856   4.380  0.3935 -1.3085 -0.3721
15733TIP3    H268691   5.922   4.842   4.324  0.3990  0.2439 -0.7763
15734TIP3   OH268692   6.436   2.683   2.356  0.4066 -0.1161  0.6448
15734TIP3    H168693   6.446   2.768   2.313  0.4337  0.7353  2.2359
15734TIP3    H268694   6.522   2.642   2.347  1.7776  1.8134  3.3265
15735TIP3   OH268695   1.377   0.179   4.063  0.9158 -0.4363  0.5314
15735TIP3    H168696   1.363   0.270   4.087 -0.8033  1.3187 -5.4452
15735TIP3    H268697   1.472   0.168   4.066  1.2908  2.0757  0.0328
15736TIP3   OH268698   5.874   1.396  15.193  0.1514 -0.3545 -0.1527
15736TIP3    H168699   5.824   1.469  15.156  2.0689  1.2910  0.3710
15736TIP3    H268700   5.838   1.386  15.281 -0.7400 -0.6870 -0.5362
15737TIP3   OH268701   6.653   1.913  12.590  0.5007 -0.2139  0.0683
15737TIP3    H168702   6.675   1.899  12.498  0.0524  0.9388 -0.2406
15737TIP3    H268703   6.730   1.886  12.638  0.5862 -1.2279 -0.6189
15738TIP3   OH268704   0.102   3.965  14.545 -0.6972 -0.1359  0.5759
15738TIP3    H168705   0.096   3.870  14.533 -1.2743  0.0681 -0.9557
15738TIP3    H268706   0.012   3.996  14.534 -0.4511  0.6292  0.6879
15739TIP3   OH268707   3.588   0.324  16.794 -0.1261  0.2137  0.3189
15739TIP3    H168708   3.566   0.284  16.878  0.9022  2.6201  1.8593
15739TIP3    H268709   3.684   0.324  16.792 -0.1058  1.6130 -0.0507
15740TIP3   OH268710   1.614   5.636  14.478  0.3600  0.0727  1.0542
15740TIP3    H168711   1.692   5.659  14.428 -0.7435  1.6150 -0.0475
15740TIP3    H268712   1.591   5.549  14.448 -0.3218  0.9893 -1.2713
15741TIP3   OH268713   4.305   0.772  10.708  0.0967  0.4220 -0.0195
15741TIP3    H168714   4.233   0.831  10.730 -0.0250  1.1221 -2.1046
15741TIP3    H268715   4.320   0.722  10.788 -2.3449  0.6152  0.6333
15742TIP3   OH268716   1.393   1.892   0.904 -0.0544  0.2648  0.2977
15742TIP3    H168717   1.486   1.912   0.899  0.2043 -1.0118 -0.4735
15742TIP3    H268718   1.375   1.887   0.998  0.7674  0.0585  0.4504
15743TIP3   OH268719   0.918   2.974   5.360 -0.0179 -0.6947  0.6153
15743TIP3    H168720   0.999   2.999   5.316 -0.9175  1.0401 -0.1896
15743TIP3    H268721   0.862   2.941   5.289 -0.3548 -0.9486  0.9981
15744TIP3   OH268722   5.091   2.688   2.478 -0.2824 -0.0141 -0.1160
15744TIP3    H168723   5.073   2.735   2.396 -1.8808 -2.8026 -1.5215
15744TIP3    H268724   5.115   2.757   2.540  1.3405  2.2030 -2.9604
15745TIP3   OH268725   4.886   0.477   1.557 -0.2695 -0.0783  0.0891
15745TIP3    H168726   4.877   0.436   1.643  0.2867  0.2533  0.3133
15745TIP3    H268727   4.875   0.406   1.494 -0.7273 -0.3103  0.4365
15746TIP3   OH268728   6.158   3.378   3.011 -0.0456  0.2739  0.3532
15746TIP3    H168729   6.136   3.412   3.098  1.0044 -3.2213  2.2083
15746TIP3    H268730   6.089   3.315   2.992 -0.7445  1.6074 -1.8741
15747TIP3   OH268731   3.511   5.620  13.023  0.0187 -0.0651 -0.3667
15747TIP3    H168732   3.575   5.642  12.955  0.5512 -1.6533 -0.4176
15747TIP3    H268733   3.430   5.600  12.974  0.2232 -0.5771 -0.5081
15748TIP3   OH268734   3.520   3.375   1.032 -0.2784 -0.4809 -0.3061
15748TIP3    H168735   3.457   3.424   1.085 -0.5631 -1.1263 -0.0297
15748TIP3    H268736   3.477   3.364   0.947 -0.3244 -0.4767 -0.2834
15749TIP3   OH268737   3.182   6.353   6.002 -0.3052  0.0743 -0.6269
15749TIP3    H168738   3.155   6.267   6.033  0.3253 -0.3412 -1.1960
15749TIP3    H268739   3.277   6.352   6.009 -0.3618  1.4373  1.1613
15750TIP3   OH268740   6.023   0.898  16.384 -0.0206  0.4574 -0.8760
15750TIP3    H168741   6.053   0.984  16.354 -0.4672  0.6884 -0.6690
15750TIP3    H268742   6.014   0.908  16.478 -1.4605  0.6333 -0.9988
15751TIP3   OH268743   4.829   2.029   1.867  1.0123  0.2973  0.5847
15751TIP3    H168744   4.833   1.962   1.799  0.9551 -1.6919  2.4023
15751TIP3    H268745   4.737   2.054   1.871  0.2956 -2.2453  2.2316
15752TIP3   OH268746   2.778   2.153   4.327 -0.5698 -0.6876 -0.0704
15752TIP3    H168747   2.849   2.176   4.387  0.2745  0.0071 -1.2999
15752TIP3    H268748   2.773   2.058   4.331  0.7373 -0.7836 -0.2845
15753TIP3   OH268749   5.236   1.378  15.412  0.1305 -0.1860  0.0940
15753TIP3    H168750   5.177   1.436  15.364 -0.7230  0.7289  2.1152
15753TIP3    H268751   5.216   1.395  15.504  2.0565 -1.4504  0.8037
15754TIP3   OH268752   5.851   0.628  12.960 -0.0381  0.0811 -0.2269
15754TIP3    H168753   5.812   0.581  12.887 -0.9056 -1.3154  1.0767
15754TIP3    H268754   5.781   0.687  12.990  0.4465  0.9333 -0.7498
15755TIP3   OH268755   5.795   2.831  13.459  0.1491  0.6542  0.2524
15755TIP3    H168756   5.834   2.881  13.530 -3.2516  1.2808  1.9014
15755TIP3    H268757   5.834   2.744  13.466  0.4109  0.8922  2.4978
15756TIP3   OH268758   2.826   5.492   3.213 -0.4606  0.3153  0.7306
15756TIP3    H168759   2.767   5.441   3.158  3.1651 -2.6831 -0.8180
15756TIP3    H268760   2.823   5.449   3.298 -2.0218  1.5789  1.3685
15757TIP3   OH268761   0.597   4.386   2.138 -0.2086  0.0388  0.5187
15757TIP3    H168762   0.642   4.447   2.079 -0.2942  0.4287  0.8452
15757TIP3    H268763   0.633   4.300   2.117  1.0247  0.3966  1.0650
15758TIP3   OH268764   4.024   2.268   4.848 -0.2659  0.1157  0.5703
15758TIP3    H168765   4.023   2.272   4.753 -0.6240  0.1160  0.5714
15758TIP3    H268766   4.101   2.319   4.874  0.1418 -0.3385  0.2639
15759TIP3   OH268767   1.498   3.265  11.674  0.0250 -0.3859 -0.1951
15759TIP3    H168768   1.464   3.254  11.763  0.3153 -0.2862 -0.0720
15759TIP3    H268769   1.421   3.256  11.618 -0.0248 -1.2890  0.0086
15760TIP3   OH268770   4.247   5.233   1.923  0.3561  0.5488  1.1103
15760TIP3    H168771   4.285   5.163   1.870 -0.8192 -0.2000  1.2170
15760TIP3    H268772   4.155   5.235   1.898 -0.1665  0.3827  2.8808
15761TIP3   OH268773   1.972   6.053   5.074 -0.0169 -0.2687 -0.1493
15761TIP3    H168774   1.954   6.145   5.057  0.0659 -0.4175 -1.0960
15761TIP3    H268775   1.913   6.005   5.016  0.2599 -0.8083 -0.0003
15762TIP3   OH268776   2.365   4.770  15.575 -0.2868  0.4837 -0.4855
15762TIP3    H168777   2.433   4.716  15.617  0.1776  1.5668  0.1914
15762TIP3    H268778   2.389   4.770  15.483 -0.7548 -1.1091 -0.6438
15763TIP3   OH268779   1.464   6.014  13.463 -0.0894 -0.2015  0.5864
15763TIP3    H168780   1.464   6.104  13.497  1.6367 -1.2066  3.6665
15763TIP3    H268781   1.546   6.007  13.415 -0.8402  0.1631 -0.8220
15764TIP3   OH268782   5.109   6.641  13.546  0.6554 -0.6260  0.4604
15764TIP3    H168783   5.063   6.724  13.560  0.4419 -0.5430 -0.6317
15764TIP3    H268784   5.076   6.583  13.614  1.5287  0.4619  1.8574
15765TIP3   OH268785   6.741   6.630  12.418 -0.2689 -0.0371  0.2391
15765TIP3    H168786   6.748   6.724  12.403  0.1943  0.2259  1.8793
15765TIP3    H268787   6.749   6.620  12.513 -0.4152 -1.7245  0.1095
15766TIP3   OH268788   0.119   2.627  12.712 -0.4991 -0.3396  0.2101
15766TIP3    H168789   0.062   2.576  12.770 -0.3700 -0.9707 -0.2103
15766TIP3    H268790   0.078   2.713  12.708 -1.4903 -0.8223 -0.1831
15767TIP3   OH268791   6.791   0.940   2.050  0.1330  0.1668 -0.1854
15767TIP3    H168792   6.810   0.891   1.970  0.1807  1.1193 -0.7765
15767TIP3    H268793   6.805   1.032   2.025 -0.7147  0.5415  0.6665
15768TIP3   OH268794   5.389   3.265  13.321  0.5080 -0.4673 -0.1226
15768TIP3    H168795   5.481   3.239  13.325  0.7133 -0.1478 -1.9037
15768TIP3    H268796   5.366   3.256  13.228 -1.2832 -0.6210  0.3100
15769TIP3   OH268797   2.210   6.074  11.000  0.0745  0.3098 -0.6385
15769TIP3    H168798   2.231   6.033  10.916 -0.5297 -0.8541 -0.2338
15769TIP3    H268799   2.284   6.133  11.017  1.9368 -1.9731 -0.3491
15770TIP3   OH268800   6.182   0.369  11.191  0.0973  0.0677 -0.4135
15770TIP3    H168801   6.164   0.280  11.160 -2.9813  0.4723 -0.0911
15770TIP3    H268802   6.255   0.359  11.253 -0.7031 -2.3584  0.2447
15771TIP3   OH268803   4.564   3.170   2.864  0.0721  0.5355 -0.8342
15771TIP3    H168804   4.537   3.084   2.831 -1.2530  0.1974  0.9951
15771TIP3    H268805   4.656   3.159   2.887  0.4017  0.1465 -2.2107
15772TIP3   OH268806   2.425   1.179  12.407  0.2132 -0.3732 -0.3781
15772TIP3    H168807   2.363   1.220  12.467  1.4219  3.0399 -1.2493
15772TIP3    H268808   2.389   1.195  12.320  1.2238 -0.2845 -0.7931
15773TIP3   OH268809   6.390   4.669  16.304 -0.4467  0.4157  0.5523
15773TIP3    H168810   6.483   4.676  16.282 -0.2422  2.0258  1.7661
15773TIP3    H268811   6.357   4.758  16.299 -2.2051 -0.2457 -0.8455
15774TIP3   OH268812   0.143   1.921  11.333  0.0699 -0.1480  0.1913
15774TIP3    H168813   0.062   1.970  11.349 -0.1040  0.0406 -1.1281
15774TIP3    H268814   0.157   1.928  11.239  1.9545  0.3249  0.4603
15775TIP3   OH268815   0.882   4.916  16.456 -0.4040 -0.3002  0.2832
15775TIP3    H168816   0.817   4.960  16.510  0.0397 -0.7836  1.2355
15775TIP3    H268817   0.895   4.831  16.498  0.6148 -0.3310 -0.0560
15776TIP3   OH268818   1.978   4.967  14.382 -0.3246 -0.0093  0.0840
15776TIP3    H168819   2.049   5.006  14.332 -0.8945  0.2635 -0.5249
15776TIP3    H268820   1.945   5.039  14.437  0.4426 -0.3606  1.0426
15777TIP3   OH268821   4.885   6.008   3.307  0.2451 -0.0525  0.0688
15777TIP3    H168822   4.973   6.002   3.272  0.3152 -0.9620  0.3870
15777TIP3    H268823   4.861   6.100   3.296  0.7168 -0.0644 -1.2479
15778TIP3   OH268824   0.773   5.938  15.777  0.0354  0.7816 -0.2100
15778TIP3    H168825   0.720   6.017  15.763  0.4336  1.0890 -0.0242
15778TIP3    H268826   0.859   5.972  15.804 -0.4272  0.2328  2.1241
15779TIP3   OH268827   3.842   5.339  12.227  0.3196  0.4693 -0.2023
15779TIP3    H168828   3.933   5.314  12.211  0.1347  0.3326 -1.1079
15779TIP3    H268829   3.794   5.301  12.154 -0.3570  1.1676 -0.1300
15780TIP3   OH268830   0.374   1.412   5.291 -0.1400  0.4380  0.3434
15780TIP3    H168831   0.408   1.478   5.232  0.8915 -1.2430 -1.0529
15780TIP3    H268832   0.448   1.388   5.347 -0.6856  0.9028  1.3034
15781TIP3   OH268833   4.067   5.681  12.371 -0.3114 -0.2775  0.6518
15781TIP3    H168834   4.072   5.605  12.312 -1.2296 -0.5874  0.9577
15781TIP3    H268835   4.158   5.708  12.381 -0.1599  0.1841 -1.4083
15782TIP3   OH268836   3.704   1.183   4.122  0.3696 -0.5777 -0.3380
15782TIP3    H168837   3.719   1.243   4.049  0.1901  0.9535  0.8247
15782TIP3    H268838   3.613   1.156   4.113  0.1848  0.0401 -0.4095
15783TIP3   OH268839   6.514   3.718  15.084  1.1094 -0.5953  1.0484
15783TIP3    H168840   6.442   3.698  15.144 -0.0436  1.2429  0.3441
15783TIP3    H268841   6.569   3.778  15.133  1.1072 -0.4536  0.8752
15784TIP3   OH268842   6.134   3.610  13.737 -0.0666 -0.2875 -0.3482
15784TIP3    H168843   6.229   3.609  13.723  0.2817  0.0683  1.7211
15784TIP3    H268844   6.109   3.518  13.743  0.1653 -0.3796 -0.7707
15785TIP3   OH268845   0.445   6.274   1.184  0.4961 -0.3873  0.2801
15785TIP3    H168846   0.461   6.368   1.176  0.4480 -0.2873  1.2598
15785TIP3    H268847   0.528   6.237   1.214  0.3012 -0.5500  0.6256
15786TIP3   OH268848   4.751   6.353  13.442 -0.3499 -0.0912  0.0704
15786TIP3    H168849   4.691   6.304  13.385  1.0147 -0.6890 -0.9117
15786TIP3    H268850   4.721   6.333  13.530 -0.3492 -2.0843 -0.3272
15787TIP3   OH268851   1.604   3.092   1.772 -0.4873  0.2044 -0.0177
15787TIP3    H168852   1.575   3.014   1.818 -0.4379  0.0505 -0.2486
15787TIP3    H268853   1.654   3.060   1.698  0.2751  0.4726  0.3720
15788TIP3   OH268854   2.476   2.481  16.822  0.1820  0.0161 -0.3254
15788TIP3    H168855   2.495   2.389  16.844  1.0154 -0.2583 -2.0417
15788TIP3    H268856   2.558   2.513  16.783 -0.1578  1.4543  0.1059
15789TIP3   OH268857   6.625   1.751  11.293 -0.3289 -0.2822  0.3756
15789TIP3    H168858   6.553   1.781  11.347 -0.7744 -2.5528  1.1527
15789TIP3    H268859   6.641   1.661  11.322  0.3392 -1.1183 -2.3006
15790TIP3   OH268860   0.376   2.340   0.825 -0.5060 -0.3932 -0.3325
15790TIP3    H168861   0.305   2.279   0.804  0.2523 -1.3087 -0.3416
15790TIP3    H268862   0.440   2.327   0.756 -0.2300  0.2560 -0.2016
15791TIP3   OH268863   3.340   4.384   1.738  0.0417 -0.1324 -0.4637
15791TIP3    H168864   3.328   4.427   1.653  1.1357 -0.1668 -0.6539
15791TIP3    H268865   3.377   4.453   1.794 -0.2482 -0.2350 -0.1437
15792TIP3   OH268866   6.002   3.902   0.963  0.1698  0.6476 -0.1579
15792TIP3    H168867   5.984   3.851   1.042 -1.4586  3.2224  1.2390
15792TIP3    H268868   5.965   3.988   0.980 -1.4267  0.9980 -4.2311
15793TIP3   OH268869   4.645   0.260   6.410  0.0730  0.1035 -0.4666
15793TIP3    H168870   4.562   0.212   6.401  0.7268 -0.8030 -1.9873
15793TIP3    H268871   4.618   0.352   6.421 -1.1606 -0.3908  1.1856
15794TIP3   OH268872   4.659   2.461  12.449  0.1794 -0.1348  0.5282
15794TIP3    H168873   4.666   2.384  12.393 -3.1592 -1.9102  2.2167
15794TIP3    H268874   4.568   2.490  12.440  0.4227  1.5300  2.4810
15795TIP3   OH268875   6.826   6.731   0.866  0.4272  0.2638  0.3963
15795TIP3    H168876   6.749   6.782   0.844 -0.7773 -1.1234  1.2440
15795TIP3    H268877   6.878   6.730   0.785 -1.6834 -0.8961 -1.0460
15796TIP3   OH268878   2.863   1.804   0.571 -0.6121  0.0572 -1.1261
15796TIP3    H168879   2.848   1.894   0.599 -1.7848  0.3193 -2.5015
15796TIP3    H268880   2.902   1.811   0.484 -0.8396 -0.7773 -1.3083
15797TIP3   OH268881   5.486   5.622  16.822 -0.0490  0.8398  0.3621
15797TIP3    H168882   5.531   5.554  16.871  1.8321  0.7393 -1.3731
15797TIP3    H268883   5.483   5.697  16.882 -0.6855 -0.2326  1.7099
15798TIP3   OH268884   0.475   3.615  15.413  0.4465  0.4384 -0.0166
15798TIP3    H168885   0.397   3.562  15.429  0.6534  0.0451 -0.2944
15798TIP3    H268886   0.509   3.636  15.500  0.4364  0.0019  0.0907
15799TIP3   OH268887   2.188   3.681   1.074  0.5549  0.1042 -0.0853
15799TIP3    H168888   2.259   3.703   1.134  0.6578 -0.2854 -0.0581
15799TIP3    H268889   2.160   3.593   1.101  0.2830  0.1207 -0.3038
15800TIP3   OH268890   4.692   1.310   0.075 -0.2099  0.1282 -0.0167
15800TIP3    H168891   4.755   1.319   0.146 -0.9487 -0.5698  0.7493
15800TIP3    H268892   4.638   1.235   0.100 -0.9048  0.2781 -0.9979
15801TIP3   OH268893   4.735   0.979   0.671  0.6548  0.0873  0.5008
15801TIP3    H168894   4.650   0.986   0.628  2.3312 -1.9125 -3.7152
15801TIP3    H268895   4.725   0.907   0.733 -1.2042  1.3594  1.7869
15802TIP3   OH268896   4.040   4.512  12.697  0.3198 -0.0973 -0.4475
15802TIP3    H168897   4.010   4.458  12.624  1.1324  0.5081 -1.2512
15802TIP3    H268898   4.104   4.572  12.658  1.1334 -0.0862  0.8469
15803TIP3   OH268899   1.556   1.014  13.408  0.2239 -0.0642  0.2463
15803TIP3    H168900   1.638   0.990  13.365  0.0841 -1.1791  0.5608
15803TIP3    H268901   1.490   1.008  13.338 -0.0974 -2.4412  0.6604
15804TIP3   OH268902   3.077   4.828   3.234 -0.2697  0.3685  0.3465
15804TIP3    H168903   3.168   4.801   3.224 -0.9860 -2.3993  0.4695
15804TIP3    H268904   3.054   4.801   3.323 -1.7199 -0.7681 -0.3298
15805TIP3   OH268905   3.387   1.247  11.082  0.2391 -0.0705 -0.2910
15805TIP3    H168906   3.458   1.309  11.098  0.1388  0.3830 -1.4989
15805TIP3    H268907   3.322   1.298  11.033 -1.3462 -0.2084  1.5397
15806TIP3   OH268908   5.066   1.849  15.072 -0.3076 -0.4183  0.9066
15806TIP3    H168909   5.039   1.759  15.091 -0.3989 -0.2725  1.4818
15806TIP3    H268910   5.099   1.846  14.983 -1.9312 -0.6616  0.2815
15807TIP3   OH268911   4.311   6.508  12.397  0.0720 -0.5274 -0.3434
15807TIP3    H168912   4.356   6.545  12.320  0.0178 -1.6244 -0.9169
15807TIP3    H268913   4.236   6.566  12.410  0.5377  0.1532 -0.6089
15808TIP3   OH268914   3.549   0.552  14.474 -0.8430 -0.5474  0.5054
15808TIP3    H168915   3.511   0.631  14.511 -0.6391  0.1913 -0.8038
15808TIP3    H268916   3.475   0.494  14.458 -1.1120 -0.2200  0.5590
15809TIP3   OH268917   1.275   3.705   2.417  0.2576 -0.6258 -0.3910
15809TIP3    H168918   1.202   3.706   2.354  0.2396 -1.7726 -0.4032
15809TIP3    H268919   1.331   3.634   2.386  2.4462  1.4701 -1.5433
15810TIP3   OH268920   2.289   4.694  13.676  0.6452 -0.2652 -0.4489
15810TIP3    H168921   2.271   4.787  13.695  0.6205 -0.1264 -1.1262
15810TIP3    H268922   2.381   4.682  13.701  0.5380 -0.1648  0.0144
15811TIP3   OH268923   6.496   6.238   4.077  0.2574  0.0159  0.1580
15811TIP3    H168924   6.559   6.283   4.020  1.1659  0.1259  1.2113
15811TIP3    H268925   6.411   6.272   4.050  0.4270 -1.2678 -2.3626
15812TIP3   OH268926   6.600   3.008  16.857  0.2883  0.5572  0.3612
15812TIP3    H168927   6.655   3.086  16.866 -0.1508  0.9569 -0.3345
15812TIP3    H268928   6.653   2.947  16.806  0.1173  0.9135 -0.2467
15813TIP3   OH268929   5.720   3.843   4.606  0.1848 -0.3247  0.2360
15813TIP3    H168930   5.721   3.873   4.697  2.4677 -0.7548  0.4163
15813TIP3    H268931   5.676   3.913   4.558  0.3924  0.6697  1.4406
15814TIP3   OH268932   3.336   2.126  15.926 -0.4466 -0.6329  0.3462
15814TIP3    H168933   3.401   2.065  15.959  1.0202  2.0265  2.8974
15814TIP3    H268934   3.386   2.202  15.897 -2.2565  0.9641  1.1091
15815TIP3   OH268935   1.771   3.760  16.311  0.0243 -0.2513 -0.5594
15815TIP3    H168936   1.761   3.823  16.240  3.3538 -0.6292 -1.5515
15815TIP3    H268937   1.755   3.675  16.269 -2.0498 -0.2765  0.1942
15816TIP3   OH268938   4.701   0.536   3.762 -0.5721 -0.2968 -0.1041
15816TIP3    H168939   4.738   0.450   3.743 -2.3009 -0.6165 -2.6540
15816TIP3    H268940   4.692   0.578   3.676  0.2444  2.5077  1.0456
15817TIP3   OH268941   5.866   5.057  13.535  0.3846  0.3778 -0.5552
15817TIP3    H168942   5.871   4.970  13.495 -1.4038  0.9745 -2.2181
15817TIP3    H268943   5.823   5.042  13.620 -1.2221 -0.2338 -1.4370
15818TIP3   OH268944   6.543   1.291   2.617 -0.3137 -0.3512  0.3844
15818TIP3    H168945   6.529   1.351   2.690  0.9412  0.5114 -0.0468
15818TIP3    H268946   6.638   1.281   2.611 -0.3590 -0.1758 -1.2798
15819TIP3   OH268947   6.459   1.098  16.179 -0.0288 -0.0959 -0.1221
15819TIP3    H168948   6.418   1.117  16.264  0.4097 -1.9116  0.5395
15819TIP3    H268949   6.550   1.079  16.200 -0.2282 -1.9945 -0.7595
15820TIP3   OH268950   1.171   0.586  11.196 -0.4731  0.5127  0.3511
15820TIP3    H168951   1.122   0.574  11.277  0.4374  2.6756  1.3194
15820TIP3    H268952   1.258   0.615  11.225  0.3694 -0.1652 -1.3723
15821TIP3   OH268953   4.671   6.262   9.850  0.3539 -0.1989  0.0126
15821TIP3    H168954   4.616   6.183   9.846  1.7369 -1.1809 -0.2131
15821TIP3    H268955   4.626   6.324   9.793 -1.5228 -0.2855  1.2834
15822TIP3   OH268956   6.402   4.933  12.779 -0.1333 -0.2721 -0.0581
15822TIP3    H168957   6.420   4.989  12.704 -1.5603  1.4011  0.7748
15822TIP3    H268958   6.330   4.976  12.825 -0.6392 -2.2930  1.1928
15823TIP3   OH268959   0.629   0.248  13.965 -0.4555 -0.5326  0.5219
15823TIP3    H168960   0.641   0.202  14.048 -1.2890 -0.1001  0.8997
15823TIP3    H268961   0.707   0.303  13.956 -1.2023  0.8333  1.9728
15824TIP3   OH268962   1.424   6.835  12.648 -0.5223  0.3680  0.2425
15824TIP3    H168963   1.418   6.742  12.626 -1.2821  0.7431 -1.2771
15824TIP3    H268964   1.470   6.837  12.732  0.2939 -1.3174 -0.1239
15825TIP3   OH268965   4.139   4.870   1.008  1.0658 -0.3776 -0.5307
15825TIP3    H168966   4.134   4.923   1.088  1.2702  0.4163 -1.0408
15825TIP3    H268967   4.133   4.780   1.040 -0.7268 -0.0304  0.2220
15826TIP3   OH268968   6.230   6.078  13.105  0.1237 -0.2375  0.1449
15826TIP3    H168969   6.287   6.046  13.175 -0.2397 -0.6586  0.2553
15826TIP3    H268970   6.184   6.152  13.144  3.1771  2.4959 -1.0290
15827TIP3   OH268971   0.293   2.409   4.037 -0.0569 -0.6412  0.5100
15827TIP3    H168972   0.316   2.447   4.122 -0.9505  1.4868 -0.1300
15827TIP3    H268973   0.248   2.480   3.990  0.3949 -1.7515 -1.7460
15828TIP3   OH268974   6.404   1.986  12.744  0.1882  0.1212 -0.2545
15828TIP3    H168975   6.487   1.962  12.702  0.0805 -1.6899  0.4646
15828TIP3    H268976   6.338   1.969  12.677  0.1781 -1.1266  0.0352
15829TIP3   OH268977   1.303   6.773   5.118 -0.1799 -0.5013 -0.4638
15829TIP3    H168978   1.383   6.734   5.084  0.4178 -1.1511  1.5506
15829TIP3    H268979   1.319   6.784   5.212 -1.9430  0.6467 -0.2373
15830TIP3   OH268980   2.574   3.849  15.630  0.6317  0.1209 -0.1808
15830TIP3    H168981   2.573   3.801  15.547  1.1864 -0.3700  0.0912
15830TIP3    H268982   2.569   3.941  15.603 -1.2290 -0.0941 -0.6667
15831TIP3   OH268983   5.213   2.924   0.178  0.1185  0.0645 -0.4159
15831TIP3    H168984   5.251   2.895   0.095 -0.3148 -0.5577 -0.4095
15831TIP3    H268985   5.201   3.018   0.168  0.0963 -0.0013 -1.0538
15832TIP3   OH268986   0.941   3.892  12.210  0.1582  0.0433  0.2315
15832TIP3    H168987   0.946   3.970  12.266 -1.5601 -0.0600  0.6109
15832TIP3    H268988   1.014   3.901  12.149  1.2924  0.8458  1.6375
15833TIP3   OH268989   4.903   6.448  16.671 -0.6941 -0.4646 -0.5676
15833TIP3    H168990   4.992   6.421  16.692 -0.6264 -1.1448 -1.6191
15833TIP3    H268991   4.878   6.509  16.741 -0.0879 -1.6787  0.7371
15834TIP3   OH268992   2.459   0.037  13.158 -0.2656  0.7322  0.5734
15834TIP3    H168993   2.548   0.055  13.190 -0.6376  2.8061  0.5977
15834TIP3    H268994   2.426  -0.031  13.217  1.9195 -1.4713 -0.6066
15835TIP3   OH268995   0.289   2.891  11.810  0.5117 -0.1538 -0.0769
15835TIP3    H168996   0.356   2.886  11.742 -0.5923 -0.5697 -1.1719
15835TIP3    H268997   0.285   2.803  11.846  1.1096  0.0711  0.5545
15836TIP3   OH268998   5.046   3.167   4.166 -0.0195 -0.3241  0.1039
15836TIP3    H168999   5.001   3.090   4.129 -1.4376  0.7124 -0.4307
15836TIP3    H269000   5.125   3.177   4.113  0.9882 -2.2597  1.1322
15837TIP3   OH269001   5.886   5.633   4.576  0.5111  0.0025 -0.5834
15837TIP3    H169002   5.953   5.570   4.551  1.7959  0.5927  1.1758
15837TIP3    H269003   5.865   5.612   4.666 -0.7283  0.6530 -0.7005
15838TIP3   OH269004   1.263   1.279  12.379  0.1011 -0.6643  0.3319
15838TIP3    H169005   1.306   1.217  12.437 -0.2272  0.2870  1.6200
15838TIP3    H269006   1.316   1.358  12.384 -0.3735 -0.3130 -0.0610
15839TIP3   OH269007   5.346   5.262  12.364  0.0573  0.6254 -0.2960
15839TIP3    H169008   5.271   5.285  12.308 -0.0261  0.8147 -0.1059
15839TIP3    H269009   5.422   5.297  12.317 -0.1049  1.7007  0.1997
15840TIP3   OH269010   5.150   4.615  13.309  0.0320 -0.0578  0.1229
15840TIP3    H169011   5.162   4.554  13.236  0.1225 -1.8796  1.5820
15840TIP3    H269012   5.230   4.667  13.311 -0.2839  0.5263 -1.5060
15841TIP3   OH269013   5.500   5.128   2.640  0.1017 -0.5531  0.1921
15841TIP3    H169014   5.494   5.151   2.547  0.9462  0.0759  0.2887
15841TIP3    H269015   5.577   5.072   2.646 -0.7898 -1.8261  0.2913
15842TIP3   OH269016   0.351   4.251  12.342 -0.4954  0.4317  0.2306
15842TIP3    H169017   0.264   4.241  12.305 -0.5219  0.4370  0.2916
15842TIP3    H269018   0.401   4.177  12.308 -0.1290  1.1875 -0.9428
15843TIP3   OH269019   3.101   1.937   3.640  0.5967  0.0754 -0.0819
15843TIP3    H169020   3.036   1.869   3.655  1.3427 -0.2606  1.8497
15843TIP3    H269021   3.176   1.891   3.603 -0.4063  0.5675 -3.0371
15844TIP3   OH269022   2.468   5.761  14.850  0.2660  0.3755  0.1274
15844TIP3    H169023   2.405   5.805  14.907  1.0180  0.7189  0.7129
15844TIP3    H269024   2.537   5.731  14.910 -0.4157 -1.9909 -0.1819
15845TIP3   OH269025   2.505   6.329  12.930 -0.3810 -0.4808 -0.6808
15845TIP3    H169026   2.588   6.378  12.931 -0.8900  0.4108 -1.4326
15845TIP3    H269027   2.531   6.240  12.953  0.5791  0.0909  0.6679
15846TIP3   OH269028   3.514   4.531   0.175  0.3175  0.2379  0.1749
15846TIP3    H169029   3.601   4.508   0.209 -0.0639 -0.6674  0.5635
15846TIP3    H269030   3.475   4.584   0.245  0.1394 -0.3004  0.4952
15847TIP3   OH269031   6.560   2.266   1.769 -0.6993 -0.6601 -0.1319
15847TIP3    H169032   6.511   2.311   1.837 -2.1471  0.4112 -1.7967
15847TIP3    H269033   6.512   2.183   1.756  0.3405 -1.4770  0.9995
15848TIP3   OH269034   2.418   4.279  15.000 -0.0842 -0.4880 -0.2111
15848TIP3    H169035   2.473   4.226  15.059  2.8691 -0.4659 -2.6726
15848TIP3    H269036   2.418   4.366  15.039 -1.6469 -1.2940  1.7865
15849TIP3   OH269037   5.466   3.247   4.613  0.6805  0.2981  0.0007
15849TIP3    H169038   5.382   3.207   4.636  0.8780  0.4435  1.0229
15849TIP3    H269039   5.454   3.340   4.635  0.9836  0.3860 -0.2087
15850TIP3   OH269040   0.439   1.874  13.206 -0.4694  0.6224 -0.0453
15850TIP3    H169041   0.389   1.794  13.220  2.5610 -1.5441 -0.6286
15850TIP3    H269042   0.500   1.878  13.280  0.0569  1.8696 -0.5180
15851TIP3   OH269043   1.234   2.777  10.817 -0.1684 -0.2775 -0.0741
15851TIP3    H169044   1.246   2.692  10.859  2.3209 -0.3032 -0.7338
15851TIP3    H269045   1.231   2.758  10.723 -0.8485  0.2744 -0.1802
15852TIP3   OH269046   3.892   2.122  12.592 -0.1919  0.0096  0.1140
15852TIP3    H169047   3.880   2.149  12.683  2.2041 -0.5902  0.6767
15852TIP3    H269048   3.959   2.181  12.558  1.1518 -1.6820 -0.3044
15853TIP3   OH269049   0.883   1.765  12.678  0.2014 -0.0338  0.2014
15853TIP3    H169050   0.904   1.853  12.708 -0.4123  0.4133 -0.6470
15853TIP3    H269051   0.959   1.712  12.703  0.7207  0.7999  0.4192
15854TIP3   OH269052   4.494   0.369  12.874  0.1785  0.4195 -0.1023
15854TIP3    H169053   4.450   0.450  12.898 -1.1018 -0.2999  0.1070
15854TIP3    H269054   4.543   0.390  12.795 -0.9150  1.1641 -0.6016
15855TIP3   OH269055   2.056   2.201   3.320  0.3445 -0.0185  0.8294
15855TIP3    H169056   2.040   2.114   3.284 -1.9241  1.0312 -1.0058
15855TIP3    H269057   2.130   2.234   3.269 -0.3753 -0.0011 -0.2547
15856TIP3   OH269058   5.669   5.432   5.743 -0.2381  0.1769  0.6163
15856TIP3    H169059   5.757   5.448   5.710  0.3871 -1.5746  1.3130
15856TIP3    H269060   5.668   5.339   5.763 -2.1840  0.2186  0.8568
15857TIP3   OH269061   3.764   2.157   3.424  0.0743  0.2357 -0.2295
15857TIP3    H169062   3.813   2.227   3.467  3.2385 -1.3586 -0.9122
15857TIP3    H269063   3.792   2.163   3.332 -0.7418 -0.9993 -0.5672
15858TIP3   OH269064   6.185   1.457   2.964 -0.3347  0.7357 -0.5431
15858TIP3    H169065   6.256   1.499   2.916 -0.2435  1.7960  0.4464
15858TIP3    H269066   6.219   1.446   3.053 -1.7347  2.3251  0.2713
15859TIP3   OH269067   2.540   0.732  16.101 -0.5926  0.1951 -0.2493
15859TIP3    H169068   2.521   0.718  16.008  0.5167  1.1611 -0.6406
15859TIP3    H269069   2.613   0.673  16.119 -0.0585  0.8255 -0.2983
15860TIP3   OH269070   2.265   4.804   2.919  0.0758  1.2886  0.6434
15860TIP3    H169071   2.338   4.847   2.873  0.8181 -0.0840  0.5003
15860TIP3    H269072   2.199   4.789   2.852  0.1668  1.4353  0.5212
15861TIP3   OH269073   5.027   2.379   6.015  0.0958 -0.5866 -0.5931
15861TIP3    H169074   5.043   2.467   6.048  0.4881 -1.1051  0.6327
15861TIP3    H269075   5.057   2.321   6.084 -2.0803 -1.6812 -0.4743
15862TIP3   OH269076   4.388   6.108  12.376  0.2836 -0.0720 -0.3148
15862TIP3    H169077   4.468   6.121  12.427  1.3888 -0.0968 -1.9429
15862TIP3    H269078   4.339   6.041  12.424 -0.0017  1.7286  2.0653
15863TIP3   OH269079   2.871   4.131   3.874  0.2006  0.3432  0.0499
15863TIP3    H169080   2.893   4.040   3.852  2.7493  0.7708  0.5030
15863TIP3    H269081   2.861   4.131   3.969  0.4573  0.5810  0.0765
15864TIP3   OH269082   4.802   1.484   1.729  0.3994 -0.8206 -0.2871
15864TIP3    H169083   4.754   1.417   1.777 -1.7584  0.2955 -0.7310
15864TIP3    H269084   4.825   1.443   1.646 -1.3216 -0.9315 -0.7498
15865TIP3   OH269085   0.131   4.857  13.564 -0.0888 -0.3902 -0.1532
15865TIP3    H169086   0.219   4.881  13.593 -0.0658  0.4952 -0.8928
15865TIP3    H269087   0.112   4.917  13.492 -1.7481  0.2363  0.7220
15866TIP3   OH269088   4.631   1.554  14.865  0.0986 -0.0381  0.1135
15866TIP3    H169089   4.572   1.507  14.925  0.4505  0.1069  0.5802
15866TIP3    H269090   4.715   1.554  14.910  0.3248  0.2329 -0.3056
15867TIP3   OH269091   3.224   1.534  13.990  0.0334 -0.8607 -0.0291
15867TIP3    H169092   3.260   1.447  14.007  0.3520 -0.4425  1.6244
15867TIP3    H269093   3.173   1.555  14.068 -0.4170  0.2511 -0.5996
15868TIP3   OH269094   6.269   2.665   5.167 -0.0133  0.1061 -0.0828
15868TIP3    H169095   6.194   2.722   5.182 -0.4506 -0.5733  0.3597
15868TIP3    H269096   6.340   2.704   5.218 -0.0082  0.8541 -0.6495
15869TIP3   OH269097   3.292   6.498  10.809 -0.4329 -0.0046  0.0588
15869TIP3    H169098   3.332   6.552  10.877  0.0124 -0.7476  0.3926
15869TIP3    H269099   3.355   6.427  10.794 -2.0597 -1.7940  1.3091
15870TIP3   OH269100   5.315   3.766  16.581  0.0921  0.0633  0.2888
15870TIP3    H169101   5.321   3.679  16.620  1.5807  0.3052  0.6688
15870TIP3    H269102   5.399   3.808  16.601  0.4998  0.6276 -2.1495
15871TIP3   OH269103   1.082   6.023  11.091  0.1030 -0.8726 -0.2924
15871TIP3    H169104   1.128   6.052  11.170 -0.2537  1.1903 -0.7648
15871TIP3    H269105   0.990   6.019  11.117  0.1890 -2.0269 -0.1357
15872TIP3   OH269106   6.446   2.271  16.579 -0.4759 -0.8320 -0.6121
15872TIP3    H169107   6.418   2.234  16.663  0.9900  0.3786  0.4810
15872TIP3    H269108   6.511   2.338  16.603 -0.3145 -0.1625 -2.7004
15873TIP3   OH269109   4.217   1.300   2.088  0.1337  0.0924  0.4237
15873TIP3    H169110   4.155   1.342   2.029  0.0021  0.0464  0.5281
15873TIP3    H269111   4.296   1.287   2.036 -0.1181 -0.3162  0.1357
15874TIP3   OH269112   6.041   3.132  11.676  0.0311 -0.4215  0.8038
15874TIP3    H169113   5.992   3.198  11.627  0.4598 -1.2961 -0.8708
15874TIP3    H269114   5.980   3.104  11.745 -1.0293  0.0372  0.0906
15875TIP3   OH269115   3.619   4.216  11.621  0.5484  0.3093  0.0734
15875TIP3    H169116   3.656   4.134  11.589 -0.9006 -0.2830 -0.1707
15875TIP3    H269117   3.688   4.253  11.677  1.1735 -1.1477  0.3279
15876TIP3   OH269118   6.034   2.389   3.038 -0.3132  0.5002  0.5442
15876TIP3    H169119   6.083   2.377   2.957 -0.7910 -1.2412  0.4819
15876TIP3    H269120   6.073   2.328   3.099 -1.4820  0.0945  0.9180
15877TIP3   OH269121   3.268   1.326   1.892  0.3256  0.2736 -0.3876
15877TIP3    H169122   3.222   1.315   1.975  0.0235  0.0516 -0.5841
15877TIP3    H269123   3.214   1.279   1.828  0.5709  0.4206 -0.7040
15878TIP3   OH269124   1.299   4.508   3.225  0.1277  0.0900  0.8629
15878TIP3    H169125   1.221   4.466   3.191  0.3178  0.7812 -0.4958
15878TIP3    H269126   1.274   4.600   3.236  1.2540  0.7746 -1.5222
15879TIP3   OH269127   2.476   1.009   2.332  0.5989 -0.3090 -0.1240
15879TIP3    H169128   2.426   1.075   2.284 -0.9200 -0.6181  0.9616
15879TIP3    H269129   2.443   0.926   2.300 -0.4584 -0.5213  1.4040
15880TIP3   OH269130   1.333   6.150   0.687 -0.5426  0.3695 -0.8360
15880TIP3    H169131   1.260   6.197   0.649 -0.2900  0.1032 -1.6805
15880TIP3    H269132   1.407   6.211   0.680 -0.8344  0.9442  0.7390
15881TIP3   OH269133   4.158   2.886  12.850  0.1260  0.1588 -0.7992
15881TIP3    H169134   4.172   2.961  12.907  0.0782  0.7247 -1.5114
15881TIP3    H269135   4.074   2.849  12.878 -0.8213  1.5341 -1.6646
15882TIP3   OH269136   0.384   3.892  12.777 -0.4335 -0.0941  0.8360
15882TIP3    H169137   0.386   3.909  12.682 -1.1237  1.6108  1.0940
15882TIP3    H269138   0.458   3.833  12.792  0.0386  0.0706 -0.6834
15883TIP3   OH269139   0.889   6.072   0.357 -0.3675 -0.5611  0.8115
15883TIP3    H169140   0.871   6.043   0.446  0.0206  0.1510  1.1299
15883TIP3    H269141   0.915   6.164   0.366  1.5441 -0.9964  0.1713
15884TIP3   OH269142   3.042   3.860   4.799 -0.0693 -0.1806  0.2877
15884TIP3    H169143   3.001   3.932   4.751 -0.1895  0.7604  1.7275
15884TIP3    H269144   3.090   3.811   4.733  0.3805  1.4888 -0.6811
15885TIP3   OH269145   6.619   3.918  14.464 -0.7849 -0.5573  0.2730
15885TIP3    H169146   6.532   3.956  14.457 -1.3345 -1.7409  0.4294
15885TIP3    H269147   6.678   3.993  14.460 -1.7773  0.2216 -0.3219
15886TIP3   OH269148   1.068   2.914   2.138  0.2365 -0.3586  0.7900
15886TIP3    H169149   0.997   2.977   2.127  0.5454 -0.1211  0.0684
15886TIP3    H269150   1.126   2.955   2.202  1.0642  0.6884 -0.5687
15887TIP3   OH269151   6.203   5.556  11.859 -0.1907 -0.3970  0.1697
15887TIP3    H169152   6.278   5.504  11.831  1.4759  1.6765  0.5387
15887TIP3    H269153   6.199   5.542  11.954 -1.3555 -1.8006 -0.0568
15888TIP3   OH269154   0.030   1.883   5.619 -0.6605  0.0528 -0.2989
15888TIP3    H169155   0.019   1.800   5.665  3.9816 -0.6679  0.0757
15888TIP3    H269156   0.030   1.858   5.526 -1.2923 -0.0138 -0.2824
15889TIP3   OH269157   0.018   0.990   0.483  0.2139  0.2373  0.2689
15889TIP3    H169158   0.073   0.919   0.516  0.8439  0.8159  0.4698
15889TIP3    H269159  -0.040   0.947   0.419  1.1482 -0.3142 -0.2378
15890TIP3   OH269160   5.271   1.848   0.687  0.0882  0.0954 -0.0445
15890TIP3    H169161   5.315   1.816   0.608  0.6981  0.8765 -0.0342
15890TIP3    H269162   5.341   1.854   0.753 -0.0052  1.3779 -0.0325
15891TIP3   OH269163   2.143   3.482  11.853  0.1572 -0.1161 -0.3713
15891TIP3    H169164   2.228   3.451  11.819  0.0635 -2.1777  1.0574
15891TIP3    H269165   2.079   3.449  11.790  0.0679 -3.0549  1.0811
15892TIP3   OH269166   3.680   3.244  13.837 -0.0135  0.2797 -0.6559
15892TIP3    H169167   3.668   3.194  13.757  0.3495 -1.7030  0.4825
15892TIP3    H269168   3.767   3.283  13.828 -0.0482  0.2322 -1.2755
15893TIP3   OH269169   4.816   5.342  11.580 -0.4896 -0.6087 -0.0770
15893TIP3    H169170   4.877   5.372  11.647 -1.2140 -1.5777  1.0408
15893TIP3    H269171   4.760   5.418  11.563  0.9776  0.2905 -1.1159
15894TIP3   OH269172   6.843   4.048  12.085  0.4083  0.2642  0.5714
15894TIP3    H169173   6.788   4.023  12.160  1.2102 -1.2355  0.6978
15894TIP3    H269174   6.795   4.119  12.043 -0.0870  1.1185  2.4786
15895TIP3   OH269175   3.964   3.343   5.695  0.1971 -0.3440  0.9079
15895TIP3    H169176   3.958   3.355   5.790  1.1902  0.2019  0.9107
15895TIP3    H269177   3.908   3.411   5.659 -0.4078 -0.7311  1.1033
15896TIP3   OH269178   0.325   3.087  11.417 -0.4596  0.1709 -0.1081
15896TIP3    H169179   0.370   3.054  11.339  1.4224  1.1477  0.4813
15896TIP3    H269180   0.312   3.010  11.472  0.6347 -0.1496 -0.2633
15897TIP3   OH269181   2.827   4.946   1.154 -0.1151  0.5781 -0.1072
15897TIP3    H169182   2.900   4.885   1.150 -1.8181 -1.5428 -2.3874
15897TIP3    H269183   2.751   4.890   1.173 -1.6814  2.0220 -1.7607
15898TIP3   OH269184   5.385   5.481   2.999  0.0268 -0.1644  0.4623
15898TIP3    H169185   5.429   5.490   2.915 -0.1196  1.4185  0.5296
15898TIP3    H269186   5.302   5.526   2.988  0.1323  0.3267  1.5386
15899TIP3   OH269187   1.614   2.929  13.891 -0.3156 -0.0682  0.7157
15899TIP3    H169188   1.581   2.934  13.802  2.4277  1.8117 -0.3240
15899TIP3    H269189   1.685   2.864  13.886  0.5889  0.8557  1.2153
15900TIP3   OH269190   3.229   1.538   3.059  0.0011 -0.6892 -0.5100
15900TIP3    H169191   3.236   1.445   3.084 -0.8577 -0.3411  1.2255
15900TIP3    H269192   3.292   1.582   3.116  0.2828 -0.1675 -1.2125
15901TIP3   OH269193   5.655   4.957  15.780 -0.2249  0.1620 -0.0209
15901TIP3    H169194   5.739   4.964  15.826 -0.9043  0.4314  1.2107
15901TIP3    H269195   5.679   4.936  15.690  1.0965 -2.3765  0.8373
15902TIP3   OH269196   6.686   5.835   4.112 -0.1321 -0.4610  0.7432
15902TIP3    H169197   6.736   5.916   4.108 -2.4240  1.0665  1.3755
15902TIP3    H269198   6.738   5.772   4.061  1.2500  1.6297 -0.5504
15903TIP3   OH269199   4.057   5.004  13.780  0.3806  0.1785 -0.4948
15903TIP3    H169200   4.033   5.044  13.864 -1.3156  0.7724 -1.1979
15903TIP3    H269201   3.988   5.033  13.720  1.7236  0.0475 -2.1819
15904TIP3   OH269202   2.193   1.917   5.073  0.1764  0.0236  0.0790
15904TIP3    H169203   2.195   1.822   5.081  0.8338  0.1150  1.1772
15904TIP3    H269204   2.284   1.942   5.061  0.4865  0.7133  2.9885
15905TIP3   OH269205   4.831   5.615  16.417  0.1637 -0.1539 -0.1138
15905TIP3    H169206   4.909   5.646  16.372  0.6680 -1.0023  0.1507
15905TIP3    H269207   4.858   5.607  16.509 -0.2105 -0.5216 -0.0351
15906TIP3   OH269208   5.449   2.402  13.560  0.0417  0.1497 -0.5813
15906TIP3    H169209   5.522   2.344  13.581 -0.0228  0.1304 -0.4113
15906TIP3    H269210   5.472   2.440  13.475  0.5867  0.6976 -0.1958
15907TIP3   OH269211   0.881   1.153   6.112 -0.8987 -0.1844 -0.0321
15907TIP3    H169212   0.953   1.115   6.162 -1.3482  0.6708  1.3136
15907TIP3    H269213   0.814   1.085   6.111 -0.9382 -0.1582  0.6512
15908TIP3   OH269214   0.508   4.312  13.072 -0.3075  0.4249  0.1009
15908TIP3    H169215   0.534   4.347  13.157  1.8400 -2.2854  0.6862
15908TIP3    H269216   0.429   4.361  13.050  0.3886  2.8993  2.4899
15909TIP3   OH269217   5.246   3.726   1.839 -0.3401  0.5879  0.4790
15909TIP3    H169218   5.183   3.793   1.815 -0.4696  0.0307 -0.8152
15909TIP3    H269219   5.279   3.693   1.756 -1.3607 -1.9660  0.9920
15910TIP3   OH269220   3.081   0.270   3.707  0.0124 -0.1489 -0.0046
15910TIP3    H169221   2.996   0.227   3.695 -0.6792  1.2392 -0.3658
15910TIP3    H269222   3.092   0.276   3.802  1.0189 -2.7249  0.1184
15911TIP3   OH269223   5.842   5.274  12.133 -0.3536 -0.2707  0.2407
15911TIP3    H169224   5.909   5.338  12.154  1.0081 -1.2336 -0.9789
15911TIP3    H269225   5.818   5.294  12.042  0.0331 -1.4072 -0.1296
15912TIP3   OH269226   3.416   0.798   4.227 -0.1254  0.0815  0.0598
15912TIP3    H169227   3.493   0.749   4.198 -0.8143  0.0163 -1.8267
15912TIP3    H269228   3.343   0.737   4.214 -0.4725 -0.1871  2.6698
15913TIP3   OH269229   5.164   4.943  10.004  0.3470  0.0167  0.1722
15913TIP3    H169230   5.243   4.992   9.981 -0.3573  1.8594  1.4757
15913TIP3    H269231   5.147   4.889   9.927  1.2721  1.7211 -1.3220
15914TIP3   OH269232   3.835   4.472  12.876  0.7859  0.1722  0.0791
15914TIP3    H169233   3.790   4.388  12.867 -2.1649  1.7715 -1.6280
15914TIP3    H269234   3.892   4.478  12.800 -0.2822  0.3742 -0.7236
15915TIP3   OH269235   5.604   3.994   2.671  0.7158  0.8340  0.6782
15915TIP3    H169236   5.612   3.975   2.578 -1.0521  0.2782  0.5991
15915TIP3    H269237   5.640   4.082   2.681 -0.7628  1.6655 -0.8626
15916TIP3   OH269238   0.211   2.216  13.666 -0.0243  0.5055  0.1604
15916TIP3    H169239   0.236   2.135  13.621 -1.3110 -0.0867  0.4860
15916TIP3    H269240   0.222   2.284  13.600  1.0511  0.0800 -0.1249
15917TIP3   OH269241   1.659   3.311  15.857  0.3955 -0.1365  0.0218
15917TIP3    H169242   1.617   3.310  15.943  1.6226 -0.1016  0.6519
15917TIP3    H269243   1.653   3.402  15.828  1.1742  0.1547  0.7128
15918TIP3   OH269244   3.031   2.876   1.405 -0.1262 -0.7091  0.0966
15918TIP3    H169245   3.097   2.845   1.342 -2.6927 -2.5489 -1.9008
15918TIP3    H269246   3.015   2.967   1.379  2.3811  0.2114  1.4278
15919TIP3   OH269247   4.796   4.475   5.224 -0.2677  0.6104  0.1183
15919TIP3    H169248   4.724   4.415   5.204  0.3483 -0.1180  0.0268
15919TIP3    H269249   4.790   4.490   5.318  0.8492 -1.3291  0.5399
15920TIP3   OH269250   6.434   2.375  16.155 -0.2086 -0.0118 -0.2143
15920TIP3    H169251   6.513   2.329  16.127 -0.1730 -0.2402  0.2512
15920TIP3    H269252   6.383   2.309  16.201 -0.4415  0.2627 -0.0746
15921TIP3   OH269253   4.301   0.317   4.727  0.3214 -0.2801 -0.0648
15921TIP3    H169254   4.264   0.355   4.807  0.1686  0.2153 -0.3686
15921TIP3    H269255   4.394   0.337   4.731  0.0817  1.0863 -0.7407
15922TIP3   OH269256   2.338   5.519  16.765  0.5843 -0.1903  0.0679
15922TIP3    H169257   2.377   5.550  16.847 -0.5635  0.5365  0.3683
15922TIP3    H269258   2.244   5.522  16.781  0.3148  0.4751 -1.4593
15923TIP3   OH269259   1.914   4.774  15.302 -0.8101  0.0352  0.1811
15923TIP3    H169260   1.837   4.766  15.359 -1.1890 -0.2052 -0.3518
15923TIP3    H269261   1.980   4.817  15.356 -1.2593  0.0738  0.7063
15924TIP3   OH269262   0.271   3.446  10.751  0.6449 -0.0448 -0.3538
15924TIP3    H169263   0.290   3.467  10.843 -1.2971  0.1795  0.0458
15924TIP3    H269264   0.294   3.526  10.704 -1.4470  1.1050  0.4285
15925TIP3   OH269265   5.513   6.881   5.366  0.5514 -0.1020  0.0019
15925TIP3    H169266   5.561   6.799   5.364  0.0805 -0.3930  0.3825
15925TIP3    H269267   5.422   6.856   5.352  0.6041  0.5343 -1.7040
15926TIP3   OH269268   1.341   6.665   2.249 -0.0310 -0.5084  0.7213
15926TIP3    H169269   1.300   6.750   2.264  0.3059 -0.3107  0.5374
15926TIP3    H269270   1.390   6.676   2.167  0.6964 -0.6223  1.1299
15927TIP3   OH269271   0.752   6.082  10.466 -0.2913  0.1097 -0.1091
15927TIP3    H169272   0.753   6.056  10.373 -1.2735 -3.2085  0.6867
15927TIP3    H269273   0.661   6.071  10.493  0.4116 -1.4170  1.8338
15928TIP3   OH269274   0.028   1.162   4.925  0.4998 -0.3627  0.0596
15928TIP3    H169275   0.008   1.238   4.871  0.2380 -0.4972 -0.0328
15928TIP3    H269276   0.093   1.194   4.988  1.1446 -0.3184 -0.6148
15929TIP3   OH269277   6.279   2.497  13.928 -0.0128  0.4027  0.1073
15929TIP3    H169278   6.264   2.499  14.022 -0.1056  0.7051  0.0858
15929TIP3    H269279   6.220   2.428  13.896 -0.9287  1.1673  0.1055
15930TIP3   OH269280   6.840   6.363   0.394 -0.6053 -0.6965  0.3554
15930TIP3    H169281   6.839   6.452   0.359 -0.6050 -0.8199  0.0424
15930TIP3    H269282   6.783   6.367   0.471 -0.0023 -0.2384  0.7925
15931TIP3   OH269283   4.680   3.361  14.641 -0.4761  0.0537  0.2684
15931TIP3    H169284   4.694   3.273  14.607  0.0049 -0.2140  1.1451
15931TIP3    H269285   4.765   3.405  14.630 -1.0422  0.8335 -1.3337
15932TIP3   OH269286   0.902   6.636  10.931 -0.1701 -0.3174 -0.4746
15932TIP3    H169287   0.993   6.606  10.936 -0.5215 -1.2865  0.4502
15932TIP3    H269288   0.875   6.614  10.841 -0.0977 -1.9186 -0.1384
15933TIP3   OH269289   0.427   0.543  15.729  0.6106 -0.1065 -0.2351
15933TIP3    H169290   0.456   0.543  15.638  0.1367 -1.3289 -0.4049
15933TIP3    H269291   0.418   0.451  15.751  0.4305  0.1823  0.9640
15934TIP3   OH269292   6.325   6.055   1.213 -0.1234  0.3372  0.0190
15934TIP3    H169293   6.362   6.002   1.142 -1.1265 -0.5322  0.1086
15934TIP3    H269294   6.397   6.066   1.274  0.2710 -0.4538 -0.2824
15935TIP3   OH269295   0.985   3.807  15.464 -0.5032  0.0673 -0.0218
15935TIP3    H169296   0.911   3.849  15.421 -1.3777  0.1913  1.5296
15935TIP3    H269297   1.062   3.837  15.415 -1.0692  3.5361  0.9735
15936TIP3   OH269298   0.007   3.236   1.971  0.0322 -0.0733 -0.0838
15936TIP3    H169299  -0.002   3.329   1.952  0.3221  0.0120  0.1855
15936TIP3    H269300   0.099   3.225   1.998 -0.5590 -0.0006  2.1949
15937TIP3   OH269301   4.456   2.691  11.845 -0.2375  0.4595 -0.3190
15937TIP3    H169302   4.381   2.683  11.786 -0.8001  2.5140  0.0160
15937TIP3    H269303   4.445   2.620  11.908  0.2217 -1.6189 -2.4448
15938TIP3   OH269304   2.800   5.486  10.020 -1.3896  0.5086  0.0931
15938TIP3    H169305   2.870   5.439   9.974 -0.6823  1.1339  0.5059
15938TIP3    H269306   2.846   5.547  10.077 -2.2536 -0.0610  1.4438
15939TIP3   OH269307   3.882   4.349  10.710 -0.4072  0.3635  0.4758
15939TIP3    H169308   3.884   4.436  10.669 -0.7640  0.2705  0.2586
15939TIP3    H269309   3.802   4.349  10.762 -1.9849 -0.8270 -1.7600
15940TIP3   OH269310   6.756   1.438  12.186 -0.4757 -0.2546 -0.3803
15940TIP3    H169311   6.831   1.484  12.147 -0.4689  0.8458  0.8844
15940TIP3    H269312   6.685   1.502  12.183 -0.5029 -0.1809  1.2858
15941TIP3   OH269313   3.623   5.747  11.861  0.0005 -0.0904  0.3205
15941TIP3    H169314   3.564   5.802  11.810  1.0000  0.8148  0.0952
15941TIP3    H269315   3.568   5.710  11.930 -0.8639  0.5725  0.0048
15942TIP3   OH269316   2.001   1.790  15.436  0.2038  0.4793 -0.1494
15942TIP3    H169317   2.066   1.757  15.374 -0.6288  0.2318 -0.9134
15942TIP3    H269318   1.916   1.764  15.398 -0.3189  0.1991  1.1680
15943TIP3   OH269319   0.430   5.546   4.532 -0.0195  0.0189  0.1507
15943TIP3    H169320   0.443   5.568   4.440 -2.2123  0.8306 -0.0236
15943TIP3    H269321   0.421   5.630   4.576  1.8610 -0.3182  1.3157
15944TIP3   OH269322   5.470   1.793   1.743 -0.4465  0.6821 -0.3116
15944TIP3    H169323   5.429   1.712   1.771  1.8071 -0.4138  0.1033
15944TIP3    H269324   5.398   1.853   1.728 -2.1021 -0.7791  1.3051
15945TIP3   OH269325   2.046   1.702  12.852  0.2764 -0.5731 -0.0343
15945TIP3    H169326   1.964   1.744  12.828 -0.2828 -0.4847  1.9059
15945TIP3    H269327   2.023   1.641  12.922  1.2589 -3.3486 -1.9493
15946TIP3   OH269328   0.053   6.895   0.312 -0.0783 -0.2587  0.0888
15946TIP3    H169329   0.012   6.909   0.226 -0.4761  0.8471  0.4390
15946TIP3    H269330   0.144   6.919   0.300 -0.0339 -0.5379 -0.1352
15947TIP3   OH269331   0.714   0.449   6.302  0.0663  0.4064 -0.2080
15947TIP3    H169332   0.620   0.466   6.309 -0.4722 -1.2235 -2.3381
15947TIP3    H269333   0.747   0.521   6.249 -0.0122  0.8747  0.3739
15948TIP3   OH269334   0.539   3.250   1.008 -0.6199  0.8547  0.2714
15948TIP3    H169335   0.604   3.242   0.938  1.6432 -0.9105  2.4443
15948TIP3    H269336   0.555   3.337   1.045  0.0538  0.6979  0.3626
15949TIP3   OH269337   1.000   5.754   2.431  0.1262 -0.5577 -0.5201
15949TIP3    H169338   1.062   5.698   2.385  1.7301  1.3850 -0.8386
15949TIP3    H269339   1.019   5.843   2.400 -1.5550  0.3365  0.7934
15950TIP3   OH269340   4.734   3.501   0.487 -0.4457  0.0131 -0.2581
15950TIP3    H169341   4.680   3.442   0.540  0.9343 -4.5595 -3.2877
15950TIP3    H269342   4.822   3.492   0.524 -0.3933  1.0581 -0.1234
15951TIP3   OH269343   1.249   6.209  12.104  0.1208  0.4568 -0.2777
15951TIP3    H169344   1.190   6.283  12.088 -1.1672 -0.2443  0.9765
15951TIP3    H269345   1.327   6.249  12.143 -0.2631  1.2320 -0.2755
15952TIP3   OH269346   1.052   5.525  15.507  0.1835 -0.4729  0.0722
15952TIP3    H169347   1.131   5.487  15.543 -0.7241 -2.2636  0.2758
15952TIP3    H269348   1.050   5.614  15.542  1.5540 -0.7331  0.8827
15953TIP3   OH269349   4.849   0.750  11.406 -0.2837 -0.4508  0.7144
15953TIP3    H169350   4.928   0.804  11.397 -0.7959  0.0129 -1.6641
15953TIP3    H269351   4.801   0.790  11.479  0.8298  0.3488  1.0409
15954TIP3   OH269352   1.991   3.123  16.120 -0.6106  0.0750 -0.0059
15954TIP3    H169353   1.954   3.143  16.206  0.1021  1.3173  0.0337
15954TIP3    H269354   2.004   3.028  16.121 -0.1786  0.1256  1.4456
15955TIP3   OH269355   4.906   2.454  12.568 -0.1763 -0.3095 -0.6604
15955TIP3    H169356   4.827   2.480  12.521 -1.4080 -2.2418  0.2289
15955TIP3    H269357   4.956   2.401  12.504 -1.2313 -1.8527 -0.2621
15956TIP3   OH269358   0.432   2.147   4.280  0.4689  0.1812 -0.2202
15956TIP3    H169359   0.379   2.067   4.282 -0.5812  0.8530 -0.0433
15956TIP3    H269360   0.421   2.185   4.367  2.2343 -0.2621  0.2223
15957TIP3   OH269361   3.495   6.751   3.553 -0.1004  0.1127 -0.0041
15957TIP3    H169362   3.555   6.817   3.518 -0.3317 -0.8893 -2.4691
15957TIP3    H269363   3.538   6.719   3.632  0.6694  2.1857  0.4833
15958TIP3   OH269364   2.811   5.531   0.368  0.0351  0.1934  0.1574
15958TIP3    H169365   2.777   5.580   0.293  1.2325  1.5182  0.4308
15958TIP3    H269366   2.775   5.443   0.358 -2.0392  1.0511 -0.4879
15959TIP3   OH269367   3.979   5.202   1.835  0.6365 -0.2274 -0.1355
15959TIP3    H169368   4.030   5.176   1.759 -0.2130  0.9929 -1.1640
15959TIP3    H269369   3.889   5.176   1.815  0.3350  0.4472  0.2614
15960TIP3   OH269370   4.768   5.051   1.220 -0.0340 -0.2049 -0.0973
15960TIP3    H169371   4.862   5.036   1.214  0.0254  0.7037 -2.0250
15960TIP3    H269372   4.759   5.116   1.290  0.5303 -1.8486  1.5933
15961TIP3   OH269373   0.129   5.572   3.150 -0.1179 -0.6909 -0.0468
15961TIP3    H169374   0.126   5.569   3.055 -1.5378 -0.3595 -0.0364
15961TIP3    H269375   0.039   5.592   3.176  0.1214 -1.3815  1.3861
15962TIP3   OH269376   0.542   2.190   0.982  0.5112  0.1521  0.2742
15962TIP3    H169377   0.631   2.188   0.948  0.2695 -1.7074 -0.3803
15962TIP3    H269378   0.497   2.257   0.930  1.3599  0.6692  0.1990
15963TIP3   OH269379   2.591   4.169  12.860 -0.3441  0.1110  0.0029
15963TIP3    H169380   2.540   4.142  12.937 -0.0410  0.9408  0.5091
15963TIP3    H269381   2.657   4.101  12.850  0.6128  0.7757  1.4571
15964TIP3   OH269382   4.154   3.476  16.572  0.0646  0.2081  0.1909
15964TIP3    H169383   4.204   3.505  16.495 -0.0557  0.1679  0.0970
15964TIP3    H269384   4.211   3.412  16.614 -0.0846 -0.1537 -0.1501
15965TIP3   OH269385   0.457   5.387  15.083  0.6399  0.2034 -0.1369
15965TIP3    H169386   0.412   5.470  15.071  1.6148  0.3419 -4.2389
15965TIP3    H269387   0.393   5.321  15.059  0.7278 -0.0467  0.3057
15966TIP3   OH269388   6.634   5.840   2.285 -0.0113  0.0970  0.0832
15966TIP3    H169389   6.718   5.794   2.276 -0.4689 -0.4277 -2.0366
15966TIP3    H269390   6.656   5.932   2.273  0.2956 -0.0321 -0.3994
15967TIP3   OH269391   5.300   6.140   3.480 -0.1372  0.4001  0.5957
15967TIP3    H169392   5.242   6.215   3.466  0.6505  1.0210  0.6062
15967TIP3    H269393   5.301   6.127   3.575  1.4616  1.7959  0.8012
15968TIP3   OH269394   5.149   2.568  13.026  0.3483 -0.4749 -0.4941
15968TIP3    H169395   5.067   2.537  13.064 -0.5883  1.9843 -0.2861
15968TIP3    H269396   5.142   2.549  12.933 -1.4367  1.5024 -0.8282
15969TIP3   OH269397   6.697   2.197   4.622 -0.0412  0.1197 -0.1887
15969TIP3    H169398   6.787   2.228   4.633 -0.5835  1.5986  0.3348
15969TIP3    H269399   6.690   2.176   4.529  1.6472 -2.7848  0.2289
15970TIP3   OH269400   4.517   6.559   2.894  0.7044 -1.0307 -0.1450
15970TIP3    H169401   4.430   6.525   2.913  0.5715 -0.6003  0.0228
15970TIP3    H269402   4.560   6.563   2.979  0.8209 -1.0574 -0.2030
15971TIP3   OH269403   1.661   3.319  14.457  0.1780 -0.1615 -0.3491
15971TIP3    H169404   1.607   3.266  14.515  0.3837  0.1703  0.1511
15971TIP3    H269405   1.664   3.405  14.499  1.7557 -0.3830  0.0800
15972TIP3   OH269406   2.086   3.253  13.349  0.4073  0.6310 -0.1692
15972TIP3    H169407   2.164   3.202  13.330 -0.5116 -1.7711  1.9472
15972TIP3    H269408   2.120   3.335  13.385  1.9057  1.6165 -3.4413
15973TIP3   OH269409   1.947   3.328   5.785 -0.4973 -0.3173  0.1391
15973TIP3    H169410   1.994   3.385   5.845 -0.9016  0.4149 -0.2314
15973TIP3    H269411   1.965   3.364   5.698  0.4071 -1.5992 -0.2301
15974TIP3   OH269412   2.983   4.688   1.847 -0.6425 -0.1917 -0.0831
15974TIP3    H169413   2.933   4.769   1.836 -0.7763 -0.2677 -0.0341
15974TIP3    H269414   3.069   4.708   1.813 -0.7530 -0.1069 -0.3120
15975TIP3   OH269415   4.664   5.487  11.200 -0.0028  0.2367 -0.2789
15975TIP3    H169416   4.593   5.542  11.165  0.1509  0.6611  0.0663
15975TIP3    H269417   4.620   5.409  11.232 -0.2599  0.2832 -0.5052
15976TIP3   OH269418   4.916   3.639   3.863  0.1851 -0.5853  0.0282
15976TIP3    H169419   4.924   3.593   3.946  0.5354  0.6918  0.7299
15976TIP3    H269420   4.980   3.596   3.805  2.4565  0.6459  1.4628
15977TIP3   OH269421   5.764   0.927   5.992  0.2926  0.2693 -0.6544
15977TIP3    H169422   5.745   0.842   5.954 -0.3895  0.5536 -0.9781
15977TIP3    H269423   5.845   0.915   6.042 -1.0750 -1.2178  1.3798
15978TIP3   OH269424   1.593   4.077   4.222 -0.5636  0.6738  0.2226
15978TIP3    H169425   1.586   4.054   4.129  0.5777 -0.2659  0.3507
15978TIP3    H269426   1.558   4.002   4.268  1.0523  0.0970  0.5855
15979TIP3   OH269427   2.506   5.696   2.221  0.3181  0.2063 -0.6360
15979TIP3    H169428   2.483   5.788   2.235  0.1882  0.4292 -2.1399
15979TIP3    H269429   2.422   5.650   2.223  0.4481 -0.0399  0.9376
15980TIP3   OH269430   4.848   3.169  14.564 -0.2183  0.2290  0.5803
15980TIP3    H169431   4.891   3.102  14.617  0.7164 -0.0861 -0.5465
15980TIP3    H269432   4.898   3.249  14.583  1.0152 -0.1665 -0.8388
15981TIP3   OH269433   4.724   4.491   0.717  0.0042 -0.2733 -0.1260
15981TIP3    H169434   4.732   4.433   0.642  0.6680  0.9222 -1.0246
15981TIP3    H269435   4.683   4.570   0.682 -0.8340 -0.1555  1.0502
15982TIP3   OH269436   2.020   5.154   2.176 -0.5347 -0.1056 -0.3010
15982TIP3    H169437   1.933   5.190   2.161 -0.9818 -0.0852  1.9301
15982TIP3    H269438   2.071   5.228   2.210  0.1584 -0.2869 -0.9202
15983TIP3   OH269439   1.452   0.275   4.836  0.2294  0.5541 -0.3592
15983TIP3    H169440   1.418   0.235   4.916  0.0443  0.2589 -0.5849
15983TIP3    H269441   1.503   0.351   4.867  2.2267 -0.9426  0.2080
15984TIP3   OH269442   4.562   3.354  14.201  0.4817 -0.1308 -0.8122
15984TIP3    H169443   4.501   3.409  14.151  0.7376  1.0064  0.0798
15984TIP3    H269444   4.643   3.406  14.205  0.6057 -0.3839  0.3907
15985TIP3   OH269445   5.300   4.820   1.119 -0.4968  0.2546  0.2861
15985TIP3    H169446   5.257   4.776   1.193  0.4537  0.9395  1.2680
15985TIP3    H269447   5.392   4.797   1.127 -0.4542 -0.1764 -1.0800
15986TIP3   OH269448   4.767   1.409   3.240 -0.4732  0.6879 -0.3233
15986TIP3    H169449   4.708   1.404   3.165  0.6713 -0.5567 -1.1898
15986TIP3    H269450   4.845   1.453   3.206  0.7362 -1.3631 -0.3911
15987TIP3   OH269451   3.335   5.344   2.094  0.5462 -0.1986  0.3487
15987TIP3    H169452   3.410   5.324   2.039  0.2597 -1.5763  0.4432
15987TIP3    H269453   3.261   5.304   2.050 -0.5766  2.8727 -0.8641
15988TIP3   OH269454   0.423   6.856  11.685 -0.0777  0.3848 -0.1856
15988TIP3    H169455   0.486   6.792  11.650 -0.5067 -1.2800  1.8783
15988TIP3    H269456   0.439   6.935  11.633  3.8489  0.1458  0.3276
15989TIP3   OH269457   5.812   0.900   0.824  0.2566 -1.0704 -1.0800
15989TIP3    H169458   5.904   0.892   0.801  0.2075 -0.8871 -1.3464
15989TIP3    H269459   5.810   0.891   0.919  0.8055  0.9625 -0.8164
15990TIP3   OH269460   6.243   0.189  14.338 -0.1373  0.1044  0.0369
15990TIP3    H169461   6.208   0.236  14.414 -0.5952 -0.2022  0.0210
15990TIP3    H269462   6.272   0.258  14.278 -0.0941  0.3538  0.3400
15991TIP3   OH269463   1.887   2.248   0.415 -0.3978 -0.0183  0.4284
15991TIP3    H169464   1.934   2.189   0.475  0.3842  0.5456  0.3746
15991TIP3    H269465   1.955   2.284   0.358 -0.6619  1.9030  1.2577
15992TIP3   OH269466   2.159   6.255  16.768  0.1815 -0.2150  0.1778
15992TIP3    H169467   2.137   6.340  16.730 -3.3120  0.0591  2.4028
15992TIP3    H269468   2.085   6.199  16.746  0.8276 -1.7069  1.6150
15993TIP3   OH269469   6.830   6.808  11.203  0.7893  0.5087  0.2481
15993TIP3    H169470   6.879   6.782  11.281 -1.6760  1.8372  2.3911
15993TIP3    H269471   6.778   6.730  11.181  1.0271  0.3265  0.3275
15994TIP3   OH269472   1.467   0.940   4.388  0.2906 -0.0163  0.6840
15994TIP3    H169473   1.420   0.974   4.463  1.3834 -1.2913  2.0180
15994TIP3    H269474   1.413   0.867   4.357 -0.0178  0.3257  0.4168
15995TIP3   OH269475   3.739   3.705  11.034 -0.7771 -0.3386 -0.1556
15995TIP3    H169476   3.676   3.691  10.963 -0.0415 -0.3820 -0.8077
15995TIP3    H269477   3.756   3.799  11.033  0.2791 -0.5185 -0.9589
15996TIP3   OH269478   0.651   6.508   3.742 -0.1170  0.2584  0.6376
15996TIP3    H169479   0.688   6.593   3.715 -0.2285 -0.3087 -1.4658
15996TIP3    H269480   0.565   6.506   3.700 -1.0194 -0.0352  2.4223
15997TIP3   OH269481   5.770   4.680  14.609  0.5323 -0.9027 -0.0655
15997TIP3    H169482   5.687   4.638  14.631  0.4319 -0.7808 -0.2063
15997TIP3    H269483   5.823   4.609  14.571  0.4077 -0.9285 -0.1907
15998TIP3   OH269484   2.465   6.532   1.204 -0.4055  0.1246 -0.0002
15998TIP3    H169485   2.554   6.511   1.232 -1.1931 -2.0038  1.1963
15998TIP3    H269486   2.449   6.620   1.238  1.1782  0.4925 -0.1301
15999TIP3   OH269487   1.485   0.959  16.063 -0.7162 -0.7442 -0.2415
15999TIP3    H169488   1.558   1.020  16.053  0.9822 -2.4940  0.8859
15999TIP3    H269489   1.410   1.015  16.085  0.3936  1.0440 -0.7751
16000TIP3   OH269490   5.405   3.309  11.992 -0.2770 -0.3025 -0.0063
16000TIP3    H169491   5.366   3.295  11.906 -1.2317  0.9882  0.1903
16000TIP3    H269492   5.454   3.391  11.984 -0.6394  0.0053  0.7452
16001TIP3   OH269493   4.283   3.466   1.308 -0.0557  0.9160  0.2081
16001TIP3    H169494   4.214   3.437   1.249 -0.1173  1.4723 -0.0044
16001TIP3    H269495   4.256   3.435   1.394 -0.0182  0.1915 -0.0386
16002TIP3   OH269496   3.714   3.128  15.902 -0.0132 -0.2322 -0.0261
16002TIP3    H169497   3.773   3.112  15.828 -1.6298  0.0189 -1.4260
16002TIP3    H269498   3.753   3.204  15.947  1.0092 -0.4025 -0.5881
16003TIP3   OH269499   1.696   6.554   2.192 -0.1311  0.2196  0.5676
16003TIP3    H169500   1.785   6.587   2.178 -0.1360 -0.1606 -0.4600
16003TIP3    H269501   1.669   6.593   2.275  0.9267  0.4828  0.8085
16004TIP3   OH269502   0.888   5.564  16.296  0.2034  0.0398 -0.2134
16004TIP3    H169503   0.881   5.591  16.204  1.1718  0.1493 -0.2704
16004TIP3    H269504   0.894   5.647  16.344 -2.3604  0.0655  0.1804
16005TIP3   OH269505   3.785   3.886   2.886  0.4213 -0.2012 -0.2433
16005TIP3    H169506   3.708   3.878   2.942  2.3580 -2.1577  2.3597
16005TIP3    H269507   3.781   3.810   2.828  0.3186 -0.1708 -0.2771
16006TIP3   OH269508   2.009   3.372  10.580  0.4374 -0.0523 -0.0804
16006TIP3    H169509   1.915   3.382  10.593  0.8958  2.1521  2.3125
16006TIP3    H269510   2.035   3.448  10.528  0.7271 -1.6068 -2.3734
16007TIP3   OH269511   1.568   4.632  10.923  0.3923  0.4030 -0.0617
16007TIP3    H169512   1.547   4.672  10.839  1.5523  0.0559 -0.5358
16007TIP3    H269513   1.572   4.706  10.984  2.4075  1.0596 -0.9054
16008TIP3   OH269514   1.964   0.497   5.732 -0.2995  0.6048  0.7109
16008TIP3    H169515   1.953   0.441   5.808  2.5419  0.1649  0.9009
16008TIP3    H269516   1.935   0.443   5.658 -1.3336  0.3821  1.2564
16009TIP3   OH269517   5.900   3.083   3.251  0.0480 -0.0379 -0.2496
16009TIP3    H169518   5.897   3.151   3.184 -0.0984 -0.5895 -0.8054
16009TIP3    H269519   5.976   3.106   3.304  0.4732  0.1142 -0.9149
16010TIP3   OH269520   5.671   0.780  16.758  0.4988  0.0378  0.7773
16010TIP3    H169521   5.575   0.787  16.758  0.5810  1.7206  0.3077
16010TIP3    H269522   5.693   0.758  16.668  0.6453  2.5114  0.1339
16011TIP3   OH269523   4.360   0.823   0.395 -0.0862  0.0332 -0.6606
16011TIP3    H169524   4.273   0.835   0.432  0.3944 -1.2324  0.9935
16011TIP3    H269525   4.345   0.812   0.301 -1.8009 -0.8172 -0.3263
16012TIP3   OH269526   1.522   5.276   2.013 -0.4265  0.5500 -0.5800
16012TIP3    H169527   1.542   5.225   1.934  0.2378  1.5420 -1.0664
16012TIP3    H269528   1.431   5.252   2.035  0.3016 -1.9198  0.0534
16013TIP3   OH269529   3.045   0.031   3.135  0.0345 -0.1440 -0.4200
16013TIP3    H169530   2.956   0.051   3.106  0.7233  1.5242 -1.5265
16013TIP3    H269531   3.092   0.007   3.055  0.7350 -0.3810  0.0498
16014TIP3   OH269532   2.318   3.173   3.996  0.0311 -0.1834  0.1288
16014TIP3    H169533   2.301   3.200   4.086  0.0913  1.1272 -0.2307
16014TIP3    H269534   2.250   3.215   3.944 -0.1445 -1.1160 -0.4257
16015TIP3   OH269535   5.906   2.086   1.108  0.0730 -0.4578 -0.5037
16015TIP3    H169536   5.815   2.059   1.090  0.7552 -2.3999 -1.3724
16015TIP3    H269537   5.939   2.018   1.167  0.2176  1.6975  2.0763
16016TIP3   OH269538   0.040   4.480  13.887 -0.0266 -0.0433 -0.3986
16016TIP3    H169539   0.013   4.475  13.978  0.3886  0.2312 -0.2593
16016TIP3    H269540   0.131   4.509  13.890  0.4052 -1.2467 -0.8387
16017TIP3   OH269541   5.568   4.149  14.394  0.2062 -0.3573 -0.1127
16017TIP3    H169542   5.536   4.110  14.313  0.8682 -1.2458  0.0423
16017TIP3    H269543   5.607   4.077  14.442 -0.4922  0.0809  1.1723
16018TIP3   OH269544   5.525   1.351   3.966 -0.1255 -0.1958 -0.4670
16018TIP3    H169545   5.560   1.324   4.051  1.2040  0.7165 -0.6866
16018TIP3    H269546   5.563   1.289   3.903  1.0712  0.7127 -0.6880
16019TIP3   OH269547   1.792   4.982  16.724  0.1781 -0.0088 -0.7507
16019TIP3    H169548   1.814   4.933  16.644 -0.4392 -0.0267 -0.9124
16019TIP3    H269549   1.855   5.054  16.726 -1.3679  1.4922 -2.6263
16020TIP3   OH269550   6.231   3.753   3.157  0.1436 -0.3316 -0.0869
16020TIP3    H169551   6.180   3.790   3.230 -0.8813 -0.5847 -0.6558
16020TIP3    H269552   6.202   3.662   3.152  0.3709 -0.3738 -0.6670
16021TIP3   OH269553   4.396   4.893   0.846 -0.0743 -0.0192 -0.4081
16021TIP3    H169554   4.373   4.934   0.762 -0.5281 -0.5930 -0.5742
16021TIP3    H269555   4.330   4.923   0.907  0.2720  0.4198 -0.2464
16022TIP3   OH269556   5.727   0.254  13.874 -0.0126  0.1074 -0.3445
16022TIP3    H169557   5.711   0.235  13.781 -1.6712 -0.1116 -0.0429
16022TIP3    H269558   5.662   0.201  13.920  0.0562  1.0764  0.8941
16023TIP3   OH269559   2.742   6.337   3.221  0.0003 -0.2192  0.1685
16023TIP3    H169560   2.783   6.295   3.146 -0.2348 -2.1436  1.0505
16023TIP3    H269561   2.816   6.364   3.276  0.1376 -0.7861  0.2634
16024TIP3   OH269562   4.789   5.322   1.829 -0.0475 -0.2739  0.8082
16024TIP3    H169563   4.840   5.398   1.803  0.4969 -0.3935  1.4663
16024TIP3    H269564   4.748   5.348   1.912 -0.2782 -0.5072  0.7657
16025TIP3   OH269565   3.442   3.644   0.621 -0.1332  0.6355 -0.1606
16025TIP3    H169566   3.376   3.693   0.670 -0.3628  0.3820 -0.2186
16025TIP3    H269567   3.480   3.709   0.562  0.7355  1.1578  0.9232
16026TIP3   OH269568   2.779   5.671   2.614  0.0331  0.3936 -0.7724
16026TIP3    H169569   2.777   5.730   2.689  0.3813 -1.5237  0.8410
16026TIP3    H269570   2.836   5.714   2.550  1.8671  0.9524  1.1288
16027TIP3   OH269571   0.310   5.943  13.985  0.2156  0.5199  0.7527
16027TIP3    H169572   0.293   6.012  14.049 -0.1282 -0.5928  1.9159
16027TIP3    H269573   0.283   5.980  13.901 -1.9299  1.0690  1.6330
16028TIP3   OH269574   0.969   3.413  10.050  0.5805 -0.3255  0.1200
16028TIP3    H169575   0.941   3.503  10.067  1.0546 -0.0729 -0.3909
16028TIP3    H269576   0.938   3.363  10.125  0.4557  0.2945  0.4865
16029TIP3   OH269577   3.029   4.377  15.728 -0.0720  0.1769 -0.6866
16029TIP3    H169578   3.121   4.391  15.750 -0.2145 -0.1293  0.1696
16029TIP3    H269579   3.014   4.284  15.747 -0.7212  0.3813 -0.1430
16030TIP3   OH269580   6.249   5.888   0.059  0.2034 -0.2519  0.3342
16030TIP3    H169581   6.265   5.958   0.122  1.8973  0.6751 -1.0292
16030TIP3    H269582   6.319   5.824   0.076  1.4790  0.6129 -1.3457
16031TIP3   OH269583   3.132   1.399  11.010  0.0341  0.1573  0.0380
16031TIP3    H169584   3.065   1.468  11.004 -1.0847 -0.9002 -0.0368
16031TIP3    H269585   3.141   1.367  10.920  0.3742  0.0529  0.1099
16032TIP3   OH269586   3.456   3.718   1.749  0.4094  0.6165  0.7027
16032TIP3    H169587   3.458   3.625   1.768 -0.4950  0.7605  1.6136
16032TIP3    H269588   3.543   3.750   1.772  0.6497  0.0291  0.5995
16033TIP3   OH269589   6.657   2.586  14.651 -0.4192  0.5050  0.3472
16033TIP3    H169590   6.725   2.626  14.705 -0.6101  2.9432 -1.0432
16033TIP3    H269591   6.576   2.603  14.698 -0.2889 -0.4634  0.9422
16034TIP3   OH269592   2.334   5.447   3.989 -0.4638 -0.4398 -0.0350
16034TIP3    H169593   2.397   5.405   4.048 -1.1725  0.5679  1.4904
16034TIP3    H269594   2.249   5.431   4.029 -0.9750  0.2630 -0.8079
16035TIP3   OH269595   3.759   0.536   1.431 -0.0286 -0.4053 -0.6259
16035TIP3    H169596   3.853   0.525   1.425  0.4887  2.6077  0.1614
16035TIP3    H269597   3.728   0.534   1.340  1.0806  0.2716 -1.0411
16036TIP3   OH269598   4.513   2.275  12.173  0.3518  0.5888  0.5238
16036TIP3    H169599   4.564   2.241  12.247  0.7004 -0.4749 -0.1760
16036TIP3    H269600   4.555   2.237  12.096  0.4353  2.2540 -0.2877
16037TIP3   OH269601   4.147   5.261   2.442  0.0539  0.1852 -0.2340
16037TIP3    H169602   4.078   5.199   2.466 -0.8465  0.5363 -1.7813
16037TIP3    H269603   4.200   5.270   2.521 -0.4806 -1.6484  0.3779
16038TIP3   OH269604   0.368   0.247  14.034  0.2757 -0.3318  0.2913
16038TIP3    H169605   0.310   0.247  13.958 -1.8697 -0.6957  1.8098
16038TIP3    H269606   0.455   0.265  13.999 -0.6382 -0.4339 -2.2042
16039TIP3   OH269607   1.283   5.390   1.431  0.5827 -0.1591 -0.5696
16039TIP3    H169608   1.364   5.416   1.475  0.9286 -2.6195  0.4309
16039TIP3    H269609   1.254   5.469   1.385  1.0959  2.1480  2.6922
16040TIP3   OH269610   6.209   2.103  14.624 -0.0360  0.0452 -0.1244
16040TIP3    H169611   6.157   2.104  14.704  1.9437  0.5407  1.2286
16040TIP3    H269612   6.249   2.190  14.620  0.9318 -0.4117 -0.9355
16041TIP3   OH269613   0.093   1.514   5.524 -0.4166 -0.2126  0.3919
16041TIP3    H169614   0.147   1.437   5.539 -0.5431 -1.1451 -3.1045
16041TIP3    H269615   0.155   1.587   5.522  0.3274 -0.8470 -0.4795
16042TIP3   OH269616   0.925   0.521   1.013 -0.0369  0.0241  0.2374
16042TIP3    H169617   0.968   0.543   1.095 -1.1533  3.3616  0.0986
16042TIP3    H269618   0.832   0.533   1.032 -0.3426  0.3631 -1.3709
16043TIP3   OH269619   5.224   0.870  11.222  0.3823  0.3222  0.1658
16043TIP3    H169620   5.179   0.848  11.304  0.4027 -3.1721 -0.5891
16043TIP3    H269621   5.249   0.785  11.185  1.6535  1.8285 -2.7784
16044TIP3   OH269622   6.607   0.368   4.391 -0.4220  0.1586  0.4976
16044TIP3    H169623   6.532   0.391   4.445 -0.9901  0.0412 -0.2238
16044TIP3    H269624   6.604   0.430   4.318  0.7289  0.7603  0.9218
16045TIP3   OH269625   5.243   3.171   3.887 -0.2610 -0.2978 -0.0463
16045TIP3    H169626   5.281   3.239   3.943  1.9666 -2.0057  0.6366
16045TIP3    H269627   5.231   3.214   3.802  0.3998  1.1449  0.5522
16046TIP3   OH269628   4.917   6.754  13.972  0.0560 -0.3167  0.0523
16046TIP3    H169629   4.964   6.775  14.053 -1.3121  0.3862  0.7189
16046TIP3    H269630   4.878   6.668  13.989  0.3143 -0.4624 -0.1081
16047TIP3   OH269631   0.249   4.422  16.252 -0.3251  0.2053  0.0991
16047TIP3    H169632   0.335   4.380  16.241 -0.2432  0.4346 -0.1587
16047TIP3    H269633   0.187   4.359  16.216 -0.6071 -1.2647  2.8519
16048TIP3   OH269634   5.531   1.240  15.808 -0.0197  0.5831  0.0898
16048TIP3    H169635   5.600   1.174  15.816 -0.9859 -0.3912  0.4965
16048TIP3    H269636   5.471   1.222  15.880  1.3965  4.0285  2.3907
16049TIP3   OH269637   1.108   5.113   3.816  0.4102 -0.4128 -0.2556
16049TIP3    H169638   1.174   5.046   3.804  0.9602  0.3550 -1.7232
16049TIP3    H269639   1.071   5.095   3.903  2.2479 -1.0945  0.4318
16050TIP3   OH269640   2.428   6.002   2.256 -0.1020  0.0671 -0.0535
16050TIP3    H169641   2.394   5.986   2.344  0.2247 -0.7322 -0.0596
16050TIP3    H269642   2.387   6.084   2.229 -3.2089 -1.4970 -0.6165
16051TIP3   OH269643   5.933   2.921   0.719 -0.3151 -0.7089 -0.3110
16051TIP3    H169644   5.957   3.012   0.738  1.1739 -1.0775 -0.3420
16051TIP3    H269645   5.851   2.928   0.671  0.1994  0.6748 -1.0398
16052TIP3   OH269646   5.142   2.287   5.778  0.6322 -0.2585 -0.3823
16052TIP3    H169647   5.230   2.252   5.791  0.7548  0.5233  1.1744
16052TIP3    H269648   5.121   2.330   5.861 -2.1910 -2.4653  0.2151
16053TIP3   OH269649   2.702   4.311  13.111 -0.3804 -0.1862 -0.3688
16053TIP3    H169650   2.724   4.347  13.025 -1.9284  3.1718  0.4819
16053TIP3    H269651   2.766   4.351  13.170 -3.4034  3.2187  0.9173
16054TIP3   OH269652   4.419   1.214   1.927  0.2057 -0.0318 -0.4245
16054TIP3    H169653   4.348   1.169   1.882  0.8055 -0.0612 -1.3769
16054TIP3    H269654   4.492   1.213   1.864  0.7179  0.9097  0.1237
16055TIP3   OH269655   6.087   6.505  16.513 -0.6037  0.0090  0.2623
16055TIP3    H169656   6.045   6.588  16.489 -0.1486  0.0882 -0.2925
16055TIP3    H269657   6.174   6.530  16.543 -1.0121 -0.1324  1.6386
16056TIP3   OH269658   0.952   0.607   5.108 -0.2131  0.2232 -0.5288
16056TIP3    H169659   0.864   0.626   5.143  0.1585  1.3631 -0.1480
16056TIP3    H269660   1.007   0.678   5.143  0.6524  0.0910 -1.5750
16057TIP3   OH269661   6.726   3.783  11.316  0.8636  0.5086  0.0237
16057TIP3    H169662   6.656   3.805  11.255  0.0802 -1.6838  0.0538
16057TIP3    H269663   6.758   3.868  11.347  0.0125  1.6224 -1.9696
16058TIP3   OH269664   0.577   5.602   3.674 -0.2192 -0.0081 -0.8784
16058TIP3    H169665   0.648   5.563   3.725  0.1291  0.9737 -0.5901
16058TIP3    H269666   0.612   5.686   3.644 -0.9000  0.0290 -1.6031
16059TIP3   OH269667   4.222   3.096  11.294 -0.4287 -0.1015  0.3084
16059TIP3    H169668   4.207   3.124  11.204 -0.7622 -0.5657  0.2168
16059TIP3    H269669   4.214   3.176  11.346 -0.6223  0.1014 -0.0319
16060TIP3   OH269670   5.227   3.751   5.413  0.2541 -0.2651 -0.1359
16060TIP3    H169671   5.211   3.845   5.409  0.3189 -0.2102  0.7684
16060TIP3    H269672   5.287   3.740   5.486 -0.8963 -1.1588  0.7176
16061TIP3   OH269673   2.434   2.187  12.279  0.6125 -0.0181 -0.7096
16061TIP3    H169674   2.498   2.142  12.224  0.3664  1.3235 -2.1705
16061TIP3    H269675   2.395   2.253  12.221 -0.6959  0.4968  0.6935
16062TIP3   OH269676   4.949   1.011   1.259 -0.5585  0.9243 -0.3947
16062TIP3    H169677   4.910   1.016   1.171 -0.0305 -0.0925 -0.6967
16062TIP3    H269678   4.877   0.983   1.315 -0.4013 -0.5597 -0.8849
16063TIP3   OH269679   5.507   1.465  11.572 -0.0931  0.1648 -0.0258
16063TIP3    H169680   5.453   1.504  11.642 -0.2617  1.4091 -0.8156
16063TIP3    H269681   5.476   1.375  11.565 -1.0971  0.4524  0.4932
16064TIP3   OH269682   5.121   5.596   4.140 -0.6279 -0.3504 -0.0160
16064TIP3    H169683   5.046   5.606   4.199 -0.7146  0.1573 -0.2054
16064TIP3    H269684   5.198   5.610   4.196 -0.7481  2.4127 -0.4034
16065TIP3   OH269685   2.066   2.241   3.893 -0.1491 -0.1014  0.3043
16065TIP3    H169686   2.070   2.327   3.853 -1.7003 -0.2268 -0.1963
16065TIP3    H269687   1.978   2.209   3.872 -0.0362 -1.2986  1.5116
16066TIP3   OH269688   2.608   0.284  15.239 -0.0825 -0.0346  0.0755
16066TIP3    H169689   2.545   0.346  15.201 -0.1694 -0.8563 -1.1497
16066TIP3    H269690   2.661   0.338  15.298 -0.6727  1.0495 -0.3474
16067TIP3   OH269691   1.999   5.375   2.360 -0.3108  0.6380 -0.1555
16067TIP3    H169692   1.962   5.462   2.350 -1.3851  0.3130  0.8685
16067TIP3    H269693   2.070   5.386   2.423 -0.3750  0.7909 -0.1108
16068TIP3   OH269694   3.659   3.422  15.840 -0.2213  0.3398  0.2105
16068TIP3    H169695   3.598   3.364  15.885  0.3672  0.1038  0.7136
16068TIP3    H269696   3.695   3.369  15.768  1.1675 -0.3244  1.3461
16069TIP3   OH269697   0.912   3.541   3.638  0.4878  0.1808  0.2068
16069TIP3    H169698   0.863   3.494   3.571 -1.9059  2.1562  0.4155
16069TIP3    H269699   0.888   3.497   3.720 -0.1431  0.4866  0.1942
16070TIP3   OH269700   0.002   5.232  14.730  0.2626 -0.0341  0.3624
16070TIP3    H169701  -0.075   5.210  14.782  0.1882 -0.7755 -0.0418
16070TIP3    H269702  -0.016   5.194  14.643  1.9763 -2.1531  0.8365
16071TIP3   OH269703   3.392   4.389   3.736  0.5084 -0.4796  0.1565
16071TIP3    H169704   3.359   4.474   3.705 -0.1514 -0.7009  0.2356
16071TIP3    H269705   3.413   4.404   3.828 -0.1191 -0.5330  0.3168
16072TIP3   OH269706   0.292   1.562   0.525 -0.0562 -0.1821 -0.4046
16072TIP3    H169707   0.256   1.523   0.605  0.8709 -0.0143  0.1002
16072TIP3    H269708   0.233   1.635   0.506 -0.8969 -0.8606 -0.4831
16073TIP3   OH269709   3.175   1.990  16.257 -0.6105 -0.1650  0.2941
16073TIP3    H169710   3.181   2.030  16.344 -0.7937 -0.2678  0.3555
16073TIP3    H269711   3.102   1.928  16.265  0.7290 -1.7685  0.7069
16074TIP3   OH269712   3.550   5.399   0.641 -0.1949 -0.4907 -0.1181
16074TIP3    H169713   3.513   5.318   0.673  0.3846 -0.4873  0.5893
16074TIP3    H269714   3.640   5.376   0.615  0.2390  0.0759  0.8296
16075TIP3   OH269715   0.565   3.227  13.765  0.2362 -0.4414  0.3409
16075TIP3    H169716   0.633   3.164  13.744  0.5145 -0.0561  0.0748
16075TIP3    H269717   0.612   3.303  13.800  0.0222  0.1741 -0.6825
16076TIP3   OH269718   0.041   4.734   4.736  0.3131  0.1768 -1.0660
16076TIP3    H169719   0.043   4.783   4.654 -1.2605  0.0393 -1.2106
16076TIP3    H269720   0.011   4.796   4.802  2.0853  0.4367 -0.4345
16077TIP3   OH269721   0.552   4.646   3.073 -0.1127  0.0375 -0.0883
16077TIP3    H169722   0.501   4.696   3.010 -0.1233 -1.0082 -0.9352
16077TIP3    H269723   0.634   4.627   3.028 -0.3526 -1.2332 -0.0290
16078TIP3   OH269724   3.828   4.810   5.189 -0.1939 -0.2923 -0.1084
16078TIP3    H169725   3.832   4.859   5.106  0.3914 -0.1253  0.0196
16078TIP3    H269726   3.841   4.719   5.163 -1.1122 -0.3785 -0.3260
16079TIP3   OH269727   2.664   3.939  12.039 -0.5423 -0.3978  0.5308
16079TIP3    H169728   2.703   4.023  12.015 -0.6437 -0.0542  1.5089
16079TIP3    H269729   2.614   3.913  11.962 -1.5012  1.0383  0.6330
16080TIP3   OH269730   1.426   1.278   2.276  0.4360 -0.5087 -0.3256
16080TIP3    H169731   1.350   1.316   2.232 -0.4499  0.5472  1.9505
16080TIP3    H269732   1.391   1.237   2.355  1.9741 -2.1323 -0.3957
16081TIP3   OH269733   4.149   4.784  15.800  0.7934 -0.1774  0.1482
16081TIP3    H169734   4.142   4.808  15.892  0.0010 -0.1558  0.0923
16081TIP3    H269735   4.229   4.828  15.769  0.3057  0.9900  0.4770
16082TIP3   OH269736   3.741   0.874  14.564  0.5733 -0.0242  0.2153
16082TIP3    H169737   3.814   0.929  14.593  1.2697 -1.3179  1.0011
16082TIP3    H269738   3.705   0.921  14.489  1.4041  1.2808  0.5849
16083TIP3   OH269739   6.074   1.672   0.278  0.2194 -0.1205 -0.3723
16083TIP3    H169740   6.136   1.641   0.212  1.3837  0.0188  0.6185
16083TIP3    H269741   6.127   1.685   0.356 -1.3423 -1.6441  1.0252
16084TIP3   OH269742   6.173   4.966   2.241 -0.1796  0.5185 -0.4639
16084TIP3    H169743   6.089   4.947   2.201  0.4168 -2.3928 -0.5867
16084TIP3    H269744   6.152   5.003   2.327 -1.5010  1.7046 -1.2579
16085TIP3   OH269745   3.913   2.715  14.350 -0.0114 -0.3595  0.3592
16085TIP3    H169746   3.924   2.677  14.263  0.6279  0.6358 -0.0047
16085TIP3    H269747   3.827   2.756  14.348 -0.6909 -1.7219  0.7418
16086TIP3   OH269748   1.180   0.720  16.430 -0.2262 -0.1925  0.5506
16086TIP3    H169749   1.260   0.671  16.413 -0.9054 -0.9728 -0.4376
16086TIP3    H269750   1.142   0.737  16.344 -1.2650 -0.0589  1.0140
16087TIP3   OH269751   6.117   0.886   0.538 -0.2473 -0.0305 -0.9126
16087TIP3    H169752   6.112   0.959   0.600 -0.1092 -0.3286 -0.5459
16087TIP3    H269753   6.207   0.854   0.547 -1.0965 -2.1374  1.1339
16088TIP3   OH269754   4.766   1.298  13.232 -0.5062 -0.8261  0.0784
16088TIP3    H169755   4.780   1.222  13.176  0.9872 -1.5530  1.3599
16088TIP3    H269756   4.844   1.351  13.221  0.0897 -1.2637  1.8261
16089TIP3   OH269757   4.012   1.420  13.388 -0.1696 -0.3715  0.1840
16089TIP3    H169758   4.098   1.412  13.346 -0.0298  0.2272  0.3410
16089TIP3    H269759   3.950   1.416  13.316 -0.0057 -0.7491  0.0623
16090TIP3   OH269760   6.803   5.270  12.301  0.2417 -0.0870  0.4826
16090TIP3    H169761   6.742   5.342  12.310  1.2572  1.3006 -2.4543
16090TIP3    H269762   6.749   5.196  12.274 -0.3887  0.6276 -0.2651
16091TIP3   OH269763   4.447   1.588   4.469  0.0478 -0.0626 -0.2206
16091TIP3    H169764   4.481   1.546   4.390 -1.2285 -0.1356 -0.7490
16091TIP3    H269765   4.461   1.523   4.538 -0.2326 -0.6257 -0.6824
16092TIP3   OH269766   4.895   0.999  15.881  0.5772 -0.2341 -0.2119
16092TIP3    H169767   4.987   0.973  15.879  0.1929 -1.8197  0.9855
16092TIP3    H269768   4.850   0.934  15.828  0.3623  1.8196 -2.7268
16093TIP3   OH269769   1.530   3.683   3.811  0.0414 -0.1913 -0.4270
16093TIP3    H169770   1.534   3.772   3.777 -3.1446  0.1444 -0.2218
16093TIP3    H269771   1.546   3.627   3.735  1.2189  0.5152 -0.7260
16094TIP3   OH269772   5.095   6.091   2.507 -0.0075 -0.1620  0.4404
16094TIP3    H169773   5.123   6.031   2.576  3.3712 -0.5483 -1.0905
16094TIP3    H269774   5.029   6.041   2.458 -0.3363 -0.9767  1.6601
16095TIP3   OH269775   5.914   3.801   0.723 -0.0933 -0.4482  0.3324
16095TIP3    H169776   5.836   3.856   0.721  0.3722  0.2014 -1.3901
16095TIP3    H269777   5.948   3.811   0.812 -0.4597  1.4611  0.3011
16096TIP3   OH269778   5.267   2.127   1.819 -0.3430 -0.1894 -0.0778
16096TIP3    H169779   5.249   2.173   1.900  2.0767  0.0424  0.3996
16096TIP3    H269780   5.318   2.050   1.846 -0.7336 -0.9006 -1.2636
16097TIP3   OH269781   1.913   4.861   1.230  0.2316 -0.0356 -0.1062
16097TIP3    H169782   1.902   4.798   1.301 -0.4377  1.6667  1.3875
16097TIP3    H269783   1.829   4.907   1.225  0.2768 -0.0750 -2.0015
16098TIP3   OH269784   5.483   3.107  10.243  0.6930 -0.4376 -0.1061
16098TIP3    H169785   5.555   3.064  10.289  0.0953 -1.0456  0.2876
16098TIP3    H269786   5.526   3.171  10.186  1.6205 -1.5785 -0.7362
16099TIP3   OH269787   5.392   0.943   2.028 -0.1134 -0.0258  0.0045
16099TIP3    H169788   5.365   0.908   1.942  1.0907 -1.3910  0.1325
16099TIP3    H269789   5.331   0.902   2.090  0.6662 -1.1929  0.0448
16100TIP3   OH269790   4.335   0.213   5.395  0.7235 -0.0620  0.3771
16100TIP3    H169791   4.256   0.194   5.447  1.2872 -1.5791  0.7303
16100TIP3    H269792   4.405   0.219   5.460  0.8797  1.6882  0.1090
16101TIP3   OH269793   5.269   3.559  12.004 -0.6106  0.2252  0.2343
16101TIP3    H169794   5.178   3.583  12.021 -1.3430  0.3737 -3.2239
16101TIP3    H269795   5.271   3.464  12.008 -1.3308  0.1298 -1.1538
16102TIP3   OH269796   1.054   2.388   5.713 -0.3364  0.0547 -0.0301
16102TIP3    H169797   1.136   2.382   5.664 -0.9363 -0.7597 -0.9831
16102TIP3    H269798   1.043   2.302   5.754  0.2729  0.8068  1.7641
16103TIP3   OH269799   6.290   3.716  16.526  0.3754 -0.3752  0.2186
16103TIP3    H169800   6.218   3.655  16.541  1.1892 -0.9824  1.9469
16103TIP3    H269801   6.248   3.801  16.512 -0.7505 -1.1756 -1.5954
16104TIP3   OH269802   5.687   6.768  15.461  0.1695  0.0558 -0.4846
16104TIP3    H169803   5.743   6.763  15.384  0.5501  1.2578 -0.2951
16104TIP3    H269804   5.626   6.840  15.442 -0.7915 -0.7001 -0.3459
16105TIP3   OH269805   3.784   6.075  10.991 -0.2276  0.1846 -0.2766
16105TIP3    H169806   3.691   6.057  10.980 -0.0537 -1.1319  0.2476
16105TIP3    H269807   3.787   6.164  11.027 -1.4367 -0.7564  2.3803
16106TIP3   OH269808   4.550   5.993  15.963 -0.7474  0.0399  0.5739
16106TIP3    H169809   4.491   6.057  15.923 -1.8272 -0.5321  1.2222
16106TIP3    H269810   4.631   6.042  15.978 -0.8670  0.6984 -0.7841
16107TIP3   OH269811   5.081   5.059  10.455 -0.1546 -0.1915  0.9801
16107TIP3    H169812   5.152   5.072  10.392 -0.8976 -1.2286 -0.1135
16107TIP3    H269813   5.051   4.970  10.440 -1.9483  0.3295  1.1312
16108TIP3   OH269814   5.547   2.455   5.230  0.4939 -0.1962 -0.7166
16108TIP3    H169815   5.547   2.546   5.199  0.8352  0.2545  0.5170
16108TIP3    H269816   5.563   2.403   5.152 -1.9625  0.6231 -1.8719
16109TIP3   OH269817   3.875   0.840   1.555 -0.7621 -0.1515  0.2438
16109TIP3    H169818   3.931   0.780   1.604 -0.1490  1.6471  1.9296
16109TIP3    H269819   3.889   0.818   1.463 -1.7993 -3.5673  0.7716
16110TIP3   OH269820   0.121   6.484   3.780  1.0665  0.1788  0.2268
16110TIP3    H169821   0.031   6.478   3.747  1.5336 -1.2424 -0.8866
16110TIP3    H269822   0.115   6.546   3.853 -0.7516  0.3607 -0.0155
16111TIP3   OH269823   5.145   1.326   1.927  0.3306 -0.3572 -0.0528
16111TIP3    H169824   5.167   1.330   2.020  2.0377  0.5282 -0.4438
16111TIP3    H269825   5.089   1.249   1.919 -0.3575 -0.1200  1.7865
16112TIP3   OH269826   2.291   1.149   0.257 -0.2486  0.1216  0.3458
16112TIP3    H169827   2.335   1.209   0.317  0.6857 -1.7460  1.6153
16112TIP3    H269828   2.251   1.206   0.191 -1.0110  2.2627  2.5097
16113TIP3   OH269829   5.175   6.240  10.707  0.6609  0.4937 -0.4905
16113TIP3    H169830   5.179   6.335  10.710 -1.3916  0.6533 -1.2676
16113TIP3    H269831   5.125   6.221  10.627 -0.8170 -1.1397  0.7422
16114TIP3   OH269832   1.103   0.556  12.755 -0.0900 -0.0843 -0.8090
16114TIP3    H169833   1.160   0.613  12.703 -1.5453  2.0447 -0.1831
16114TIP3    H269834   1.025   0.545  12.700  0.9997 -3.5376 -1.9702
16115TIP3   OH269835   3.230   1.561  14.979 -0.4372 -0.1338 -0.3049
16115TIP3    H169836   3.288   1.499  14.935 -0.1011  0.2992 -0.4693
16115TIP3    H269837   3.288   1.622  15.024 -0.7551 -0.9850  1.3722
16116TIP3   OH269838   6.046   0.023   3.606 -0.0152 -0.2210  0.0851
16116TIP3    H169839   6.030   0.076   3.684 -1.9459  0.2023 -0.5526
16116TIP3    H269840   6.091   0.083   3.545 -0.5496  0.1385  0.0396
16117TIP3   OH269841   3.436   3.831   5.533  0.2990  0.2948  0.0340
16117TIP3    H169842   3.377   3.818   5.607  0.5116 -1.9002 -0.1344
16117TIP3    H269843   3.523   3.817   5.569  0.4228 -0.5082 -0.5687
16118TIP3   OH269844   1.807   6.735   3.521 -0.2787  0.0738  0.4728
16118TIP3    H169845   1.749   6.737   3.444 -0.2631 -0.7181  0.4337
16118TIP3    H269846   1.890   6.771   3.490 -0.1557 -0.5935  0.0120
16119TIP3   OH269847   5.127   1.141  15.599 -0.1463 -0.5212 -0.1512
16119TIP3    H169848   5.069   1.144  15.523  0.1527  0.3167 -0.3620
16119TIP3    H269849   5.121   1.229  15.637  0.5800 -0.5831  0.1307
16120TIP3   OH269850   1.958   1.852   4.418  0.4440  0.5286  0.1708
16120TIP3    H169851   1.892   1.895   4.363  0.9704 -0.4233 -1.2767
16120TIP3    H269852   2.041   1.870   4.373  0.7593 -1.2713 -0.0309
16121TIP3   OH269853   0.170   1.666  13.951  0.3066  0.2293  0.2440
16121TIP3    H169854   0.117   1.724  13.897 -0.8353  0.4592  1.5544
16121TIP3    H269855   0.107   1.610  13.996  1.3090 -0.9892  0.1864
16122TIP3   OH269856   5.605   3.273   1.224 -0.0137 -0.0530  0.4820
16122TIP3    H169857   5.682   3.325   1.198 -0.3067 -0.0573 -0.4525
16122TIP3    H269858   5.573   3.237   1.141 -1.2882  0.3199  0.7946
16123TIP3   OH269859   1.869   5.343  15.936  0.2416 -0.1602  0.1314
16123TIP3    H169860   1.790   5.396  15.925 -0.1709 -0.6107  0.8191
16123TIP3    H269861   1.898   5.325  15.846 -0.5164 -0.0971 -0.1372
16124TIP3   OH269862   5.543   3.243  16.741 -0.3930  0.1240 -0.8218
16124TIP3    H169863   5.625   3.207  16.706 -0.8123 -2.7599  0.8188
16124TIP3    H269864   5.475   3.187  16.705 -1.6469  2.0135 -1.5564
16125TIP3   OH269865   2.635   2.427   3.498 -0.2621 -0.0567 -0.1097
16125TIP3    H169866   2.730   2.424   3.514 -0.0842  0.7444 -0.9338
16125TIP3    H269867   2.621   2.365   3.427 -0.3386 -0.0900 -0.0649
16126TIP3   OH269868   5.923   3.641   2.629 -0.3262  0.1166 -0.4439
16126TIP3    H169869   5.855   3.576   2.645  0.1861 -0.7638 -1.6807
16126TIP3    H269870   5.976   3.641   2.709 -0.3017 -1.0484 -0.4404
16127TIP3   OH269871   1.634   0.444   2.460 -0.2290 -0.1325  0.5357
16127TIP3    H169872   1.729   0.460   2.458 -0.3563  0.6525  0.8046
16127TIP3    H269873   1.607   0.453   2.368  0.3035 -2.6163  0.0443
16128TIP3   OH269874   1.711   0.290  11.978  0.3470 -0.0801  0.0050
16128TIP3    H169875   1.711   0.199  11.951  2.1051 -0.0967 -0.0594
16128TIP3    H269876   1.730   0.288  12.072  0.7817  0.2342 -0.0741
16129TIP3   OH269877   6.751   5.474   2.062 -0.1214  0.4428 -0.3768
16129TIP3    H169878   6.787   5.494   2.149 -0.8106  0.2865 -0.0485
16129TIP3    H269879   6.809   5.406   2.027 -0.6512 -0.5163  0.5531
16130TIP3   OH269880   2.977   0.364  15.092  0.5600  0.1059 -0.1119
16130TIP3    H169881   2.944   0.453  15.076 -1.8429 -0.6641  0.1624
16130TIP3    H269882   3.052   0.356  15.033  0.5279  2.1415 -0.5187
16131TIP3   OH269883   6.043   3.028  16.595 -0.0011  0.7180 -0.6933
16131TIP3    H169884   6.066   3.085  16.668  1.0677 -0.2496 -0.2533
16131TIP3    H269885   6.094   3.062  16.521 -0.2273  1.0015 -0.7244
16132TIP3   OH269886   5.566   3.479  13.248 -0.1181 -0.3032  0.3162
16132TIP3    H169887   5.613   3.525  13.317 -1.4290 -0.3944  1.3107
16132TIP3    H269888   5.516   3.411  13.294 -0.6471 -0.6769 -0.7763
16133TIP3   OH269889   5.292   3.051  10.661 -0.1004 -0.1128  0.4436
16133TIP3    H169890   5.315   3.143  10.647  0.8307 -0.1681  1.5091
16133TIP3    H269891   5.376   3.009  10.681 -0.3435 -1.4145 -1.0543
16134TIP3   OH269892   6.716   4.348   6.231 -0.9634 -0.4339  0.1607
16134TIP3    H169893   6.744   4.277   6.290 -0.6703 -1.0188 -0.6622
16134TIP3    H269894   6.657   4.401   6.284 -0.4558 -0.7637  1.0846
16135TIP3   OH269895   1.716   2.432  16.435 -0.3714  0.7013 -0.2064
16135TIP3    H169896   1.684   2.361  16.380  2.7034 -1.6575  0.7785
16135TIP3    H269897   1.686   2.409  16.523  3.0289 -1.2250  0.6303
16136TIP3   OH269898   4.857   2.708   0.872 -0.3224  0.0518  0.1930
16136TIP3    H169899   4.837   2.782   0.929  0.3535  0.8824 -0.6343
16136TIP3    H269900   4.929   2.738   0.817 -0.7519 -0.8409 -0.8941
16137TIP3   OH269901   1.915   6.165   2.434  0.0791  0.2340 -0.2335
16137TIP3    H169902   1.939   6.204   2.518  0.3931  0.4758 -0.4328
16137TIP3    H269903   1.908   6.239   2.374  0.4079  0.0122 -0.5510
16138TIP3   OH269904   5.410   2.335  16.060 -0.0352 -0.3484 -0.1465
16138TIP3    H169905   5.341   2.338  15.995 -1.5268  2.7339  1.3606
16138TIP3    H269906   5.476   2.276  16.023 -1.1966  0.4884 -3.9393
16139TIP3   OH269907   4.478   5.672  14.797  0.6513  0.0359  0.0368
16139TIP3    H169908   4.431   5.752  14.772 -0.1925  0.1514  1.8113
16139TIP3    H269909   4.447   5.653  14.886  0.5725 -2.4793 -0.4572
16140TIP3   OH269910   1.193   0.050  15.722 -0.2433 -0.0684 -0.1900
16140TIP3    H169911   1.250   0.127  15.721  0.7799 -0.7539  1.1412
16140TIP3    H269912   1.209   0.007  15.639  1.9634 -0.7457  0.5224
16141TIP3   OH269913   3.561   6.064   0.458  0.6447 -0.4039  0.4066
16141TIP3    H169914   3.566   6.152   0.421  0.3555 -1.2070 -1.6271
16141TIP3    H269915   3.652   6.034   0.460  0.7198 -0.1595  0.9016
16142TIP3   OH269916   0.235   0.372  11.096  0.2575  0.4253  0.1817
16142TIP3    H169917   0.254   0.378  11.003  0.8679 -0.0163  0.2743
16142TIP3    H269918   0.167   0.305  11.103  1.8730 -1.2698  0.2580
16143TIP3   OH269919   2.154   0.984  13.073  0.4128  0.1035 -0.0198
16143TIP3    H169920   2.119   0.905  13.114  2.4818  0.3513  2.4383
16143TIP3    H269921   2.188   1.036  13.145  0.1826  2.7392 -1.6885
16144TIP3   OH269922   1.586   1.091   1.233 -0.0243  0.1791  0.2231
16144TIP3    H169923   1.573   1.129   1.320 -0.8551  0.9581 -0.2344
16144TIP3    H269924   1.630   1.159   1.183  1.4660 -0.6652  0.3234
16145TIP3   OH269925   5.861   3.647   4.922  0.2114  0.1321  0.5878
16145TIP3    H169926   5.946   3.606   4.937  0.2381  0.0294  0.1596
16145TIP3    H269927   5.828   3.606   4.843  0.1273  0.7592  0.2903
16146TIP3   OH269928   1.585   2.646  13.701  0.3334 -0.6633 -0.2214
16146TIP3    H169929   1.514   2.703  13.669  1.4527  1.6107  1.0721
16146TIP3    H269930   1.549   2.604  13.779 -0.2388 -1.1326 -0.7269
16147TIP3   OH269931   2.432   6.243   4.890  0.6482  0.0314 -0.0385
16147TIP3    H169932   2.452   6.322   4.940  1.1589  0.6176 -1.1224
16147TIP3    H269933   2.509   6.187   4.901  0.5426 -0.0686  0.2253
16148TIP3   OH269934   2.151   0.254   2.973  0.3881  0.0119 -0.1554
16148TIP3    H169935   2.167   0.295   2.888  1.5480 -0.6306 -0.2711
16148TIP3    H269936   2.158   0.160   2.956 -1.4736 -0.2303  0.2525
16149TIP3   OH269937   3.070   0.922   1.819 -0.1455  0.3282  0.1781
16149TIP3    H169938   3.117   0.839   1.825 -0.3627  0.2006  0.1269
16149TIP3    H269939   3.015   0.913   1.742 -0.0237  0.5963  0.0600
16150TIP3   OH269940   4.669   4.068   0.982 -0.0721  0.3221  0.5432
16150TIP3    H169941   4.731   4.089   0.912  0.7619 -1.2199  0.7625
16150TIP3    H269942   4.714   4.093   1.062 -0.4255  0.7259  0.6198
16151TIP3   OH269943   0.963   3.399  12.592  0.4440  0.1450 -0.1673
16151TIP3    H169944   0.921   3.373  12.510 -1.4619 -0.0490  0.7997
16151TIP3    H269945   0.991   3.489  12.577 -0.0817  0.1887 -0.9628
16152TIP3   OH269946   1.518   4.358  11.011  0.1364 -0.4003  0.1295
16152TIP3    H169947   1.554   4.445  10.999 -0.1601 -0.1683  0.8500
16152TIP3    H269948   1.424   4.369  10.998 -0.4586  0.1902  3.8353
16153TIP3   OH269949   4.726   4.858   4.596  0.5767  0.1193 -0.5062
16153TIP3    H169950   4.685   4.944   4.609 -0.8502 -0.5276 -0.5126
16153TIP3    H269951   4.717   4.814   4.680  0.4171 -0.3815 -0.7822
16154TIP3   OH269952   1.094   4.006  14.998  0.1092  0.1253  0.2905
16154TIP3    H169953   1.156   4.077  14.984  0.2434 -0.2731 -1.2712
16154TIP3    H269954   1.022   4.046  15.046  1.0252  0.8522  1.1241
16155TIP3   OH269955   0.023   5.376  13.118 -0.3997  0.1313 -0.1373
16155TIP3    H169956   0.068   5.420  13.190 -0.9201 -0.9313  0.8767
16155TIP3    H269957   0.050   5.285  13.124 -1.6022 -0.2646 -0.3401
16156TIP3   OH269958   4.394   6.760  16.699  0.0466 -0.5863 -0.1182
16156TIP3    H169959   4.364   6.832  16.644 -0.5847 -1.1176 -0.4932
16156TIP3    H269960   4.383   6.791  16.789 -0.2565 -0.2317 -0.2780
16157TIP3   OH269961   1.054   0.456   1.252 -0.2017 -0.1900 -0.2542
16157TIP3    H169962   1.061   0.502   1.336 -2.7196  1.9193 -1.0505
16157TIP3    H269963   1.138   0.471   1.209  1.6587 -2.3993  2.2852
16158TIP3   OH269964   6.612   5.512  13.216  0.1390  0.0825  0.2320
16158TIP3    H169965   6.583   5.568  13.144  3.6246 -0.7458 -2.0804
16158TIP3    H269966   6.578   5.425  13.194  0.0987  0.0857  0.2839
16159TIP3   OH269967   5.044   3.199   2.273  0.0480  0.3540  0.3183
16159TIP3    H169968   5.039   3.105   2.255 -0.7562  0.2533  1.0049
16159TIP3    H269969   4.989   3.239   2.206 -0.1772  0.2656  0.4463
16160TIP3   OH269970   5.349   2.231  14.768 -0.4363 -0.4526 -0.1934
16160TIP3    H169971   5.439   2.263  14.756 -1.1236  1.7356  0.0236
16160TIP3    H269972   5.345   2.205  14.860 -0.6576  1.8324  0.5004
16161TIP3   OH269973   5.654   0.981  11.436  0.4507  0.0585 -0.2543
16161TIP3    H169974   5.625   1.045  11.501  0.2155 -0.0378 -0.2620
16161TIP3    H269975   5.599   0.997  11.360  0.2532 -0.2804 -0.1874
16162TIP3   OH269976   1.394   4.007  15.752 -0.3144 -0.6608 -0.4887
16162TIP3    H169977   1.314   3.962  15.724 -0.6064  0.3678 -1.3918
16162TIP3    H269978   1.402   3.986  15.845 -2.1957  0.0458 -0.1197
16163TIP3   OH269979   3.364   0.214  11.944  0.1277 -0.5028 -0.1508
16163TIP3    H169980   3.388   0.220  12.037 -1.7202  1.5339  0.2756
16163TIP3    H269981   3.432   0.263  11.899 -0.6876  1.3256  0.5305
16164TIP3   OH269982   0.082   4.396   1.073 -0.4333  0.3399 -0.1148
16164TIP3    H169983   0.144   4.440   1.015  0.7616 -0.6603  0.3790
16164TIP3    H269984   0.055   4.318   1.025  1.9571 -1.4810  1.3078
16165TIP3   OH269985   2.363   0.579  14.217 -0.0003  0.0396 -0.0793
16165TIP3    H169986   2.433   0.581  14.282 -0.4048 -0.6492  0.3856
16165TIP3    H269987   2.283   0.566  14.268 -0.3143 -0.6282 -0.7206
16166TIP3   OH269988   3.376   5.574   4.555  0.1402 -0.5150  0.5333
16166TIP3    H169989   3.338   5.519   4.487 -1.9354  1.8410 -0.4203
16166TIP3    H269990   3.414   5.648   4.508  0.8174  0.0020  1.8292
16167TIP3   OH269991   2.177   1.824   1.940 -0.1490 -0.8643  0.1862
16167TIP3    H169992   2.144   1.872   2.015 -0.9252 -1.1230  0.0237
16167TIP3    H269993   2.272   1.826   1.950 -0.2155 -0.2534  0.7648
16168TIP3   OH269994   3.051   4.630  11.525 -0.3430  0.0748 -0.0623
16168TIP3    H169995   3.006   4.593  11.601 -0.3261 -0.5321 -0.3377
16168TIP3    H269996   3.097   4.707  11.559  0.5156 -0.7723  0.7720
16169TIP3   OH269997   3.467   4.125   0.764 -0.0400 -0.2939  0.6072
16169TIP3    H169998   3.407   4.134   0.838 -0.4174  3.3269  0.0301
16169TIP3    H269999   3.413   4.085   0.695 -0.7494 -0.2796  1.1409
16170TIP3   OH270000   6.302   0.760  11.565 -0.2193  0.2684 -0.1503
16170TIP3    H170001   6.211   0.785  11.545  0.2957  1.0965 -1.6116
16170TIP3    H270002   6.323   0.693  11.500  0.1563 -0.0834  0.3282
16171TIP3   OH270003   6.060   1.309   0.025  0.6242 -0.1632 -0.6665
16171TIP3    H170004   6.051   1.235  -0.036  0.3545  0.3526 -1.2592
16171TIP3    H270005   5.976   1.312   0.070  1.1851 -1.2006  0.5014
16172TIP3   OH270006   1.640   2.185  15.719  0.0955  0.1472 -0.2144
16172TIP3    H170007   1.602   2.100  15.695 -2.0725  0.7155  0.9052
16172TIP3    H270008   1.636   2.237  15.639 -0.5757 -0.1343 -0.3673
16173TIP3   OH270009   5.795   5.130   0.308 -0.7895  0.2785 -0.1778
16173TIP3    H170010   5.747   5.096   0.233 -1.0067 -1.7096  0.7818
16173TIP3    H270011   5.727   5.146   0.374 -0.3680 -0.8171  0.5618
16174TIP3   OH270012   2.512   6.729   4.915 -0.4391  0.5444 -0.6951
16174TIP3    H170013   2.540   6.812   4.954  1.0336 -0.6422  0.9585
16174TIP3    H270014   2.423   6.716   4.948  0.7897 -0.4874  2.6903
16175TIP3   OH270015   4.795   1.570  13.460 -0.0842 -0.1636  0.2691
16175TIP3    H170016   4.760   1.539  13.543 -0.0663  0.1520  0.3979
16175TIP3    H270017   4.888   1.550  13.464  0.9278  3.8811  2.3190
16176TIP3   OH270018   0.073   6.901  12.860 -0.1606  0.3610 -0.1907
16176TIP3    H170019   0.106   6.860  12.780 -0.7876  1.0800 -0.8371
16176TIP3    H270020   0.068   6.994  12.838 -1.1903  0.4534  0.3869
16177TIP3   OH270021   0.513   0.077  11.157  0.0076  0.4037  0.0758
16177TIP3    H170022   0.541   0.081  11.066  1.7467  1.1473  0.6194
16177TIP3    H270023   0.472   0.162  11.174 -1.0386 -0.0188 -0.1944
16178TIP3   OH270024   0.700   3.191  11.662 -0.1095 -0.2277  0.3417
16178TIP3    H170025   0.654   3.163  11.741 -0.9171 -1.8212 -0.6384
16178TIP3    H270026   0.641   3.253  11.620  0.7077  1.3270  1.3864
16179TIP3   OH270027   3.292   2.681  13.794  0.0984  0.4034 -0.5687
16179TIP3    H170028   3.314   2.589  13.810 -2.5696  0.0294  1.5742
16179TIP3    H270029   3.287   2.720  13.881 -0.7573  2.0954 -1.3300
16180TIP3   OH270030   5.225   6.099   0.390 -0.0926 -0.3336 -0.0975
16180TIP3    H170031   5.187   6.183   0.365  3.6573  1.6675  0.3286
16180TIP3    H270032   5.149   6.044   0.411 -2.7128  2.9998 -0.0520
16181TIP3   OH270033   5.470   3.368  15.340 -0.6062  0.9328 -0.1370
16181TIP3    H170034   5.409   3.435  15.309 -2.2245  0.9833  2.7438
16181TIP3    H270035   5.422   3.286  15.334  0.5570  0.3088 -1.5288
16182TIP3   OH270036   3.038   2.075   5.166  0.0815 -0.1611 -0.3727
16182TIP3    H170037   2.989   2.021   5.105 -0.1822  0.7511 -0.9949
16182TIP3    H270038   3.068   2.014   5.234 -2.4054 -0.6530  0.3763
16183TIP3   OH270039   4.937   2.529  11.964  0.7723  0.6216 -0.0007
16183TIP3    H170040   4.882   2.537  11.886 -0.1929 -0.6597  0.4991
16183TIP3    H270041   5.012   2.478  11.936  0.8046  0.8177 -0.2714
16184TIP3   OH270042   3.716   2.633  12.540 -0.2026  0.2753  0.2729
16184TIP3    H170043   3.800   2.625  12.495 -0.7761  0.5931 -0.9170
16184TIP3    H270044   3.661   2.565  12.501 -0.0239 -1.0778  2.2473
16185TIP3   OH270045   0.864   4.380   2.803  0.8435  0.5881  0.3479
16185TIP3    H170046   0.937   4.318   2.801  1.4013  1.2442 -0.0910
16185TIP3    H270047   0.833   4.383   2.713 -0.2356 -0.2611  0.6711
16186TIP3   OH270048   0.051   3.312   0.243 -0.1129  0.5449 -0.6364
16186TIP3    H170049   0.006   3.380   0.193  0.0741 -0.6024 -2.4552
16186TIP3    H270050  -0.011   3.239   0.245  0.3978  0.1127 -0.3220
16187TIP3   OH270051   5.014   3.033  15.191  0.6648 -0.6383  0.5668
16187TIP3    H170052   4.965   3.005  15.113 -1.5766  0.2929  1.5392
16187TIP3    H270053   5.102   3.053  15.159  0.4507 -2.4087 -1.2901
16188TIP3   OH270054   5.808   4.787   0.519 -0.2048 -0.4592 -0.1138
16188TIP3    H170055   5.894   4.746   0.523  0.6435  1.3264  1.7379
16188TIP3    H270056   5.824   4.880   0.538 -2.4977 -0.0106 -0.0247
16189TIP3   OH270057   6.772   0.833  15.717 -0.4186 -0.2568  0.0946
16189TIP3    H170058   6.707   0.764  15.703 -1.6145  1.1436 -1.6758
16189TIP3    H270059   6.854   0.797  15.682 -0.7224 -1.2323  0.3706
16190TIP3   OH270060   4.872   3.859  13.835  0.1839 -0.3836 -0.1799
16190TIP3    H170061   4.884   3.824  13.923  0.2628 -1.3423 -0.5666
16190TIP3    H270062   4.813   3.798  13.792 -0.6690  0.6194 -0.4869
16191TIP3   OH270063   3.408   0.471  13.519  0.4418  0.5196  0.2859
16191TIP3    H170064   3.478   0.498  13.577  1.5163  0.6743 -1.0265
16191TIP3    H270065   3.430   0.380  13.496 -0.4605  0.1592  0.8240
16192TIP3   OH270066   5.024   3.587  10.926 -0.4209  0.5364  0.1868
16192TIP3    H170067   5.069   3.519  10.874 -1.1983  0.5834 -0.5727
16192TIP3    H270068   5.038   3.667  10.876  0.1046  0.8638  0.8471
16193TIP3   OH270069   3.618   4.548  16.733  0.0895  0.2178  0.3580
16193TIP3    H170070   3.601   4.605  16.808 -0.6386  1.0571 -0.4231
16193TIP3    H270071   3.588   4.598  16.658 -0.5364 -1.1885 -0.3619
16194TIP3   OH270072   1.119   5.996  12.296  0.1631  0.7608  0.5560
16194TIP3    H170073   1.143   6.046  12.374 -0.5208  0.7115  0.8131
16194TIP3    H270074   1.158   6.044  12.223 -0.9149  1.9873  0.7484
16195TIP3   OH270075   5.526   0.600  11.624 -0.2432 -0.1293 -0.7468
16195TIP3    H170076   5.560   0.655  11.552  0.9816  0.2953  0.1239
16195TIP3    H270077   5.494   0.663  11.689 -0.5003 -0.4992 -0.5125
16196TIP3   OH270078   2.235   5.365   9.822 -0.0104  0.3124  0.2345
16196TIP3    H170079   2.238   5.457   9.795  0.6643  0.0475 -0.6582
16196TIP3    H270080   2.185   5.321   9.752 -1.4841  0.1956  1.3137
16197TIP3   OH270081   4.514   3.746   6.344  0.0604 -0.1083  0.4984
16197TIP3    H170082   4.608   3.749   6.326  0.3329 -0.7116  1.7585
16197TIP3    H270083   4.484   3.836   6.328  1.1994  0.5618  1.9127
16198TIP3   OH270084   6.331   3.425   3.515 -0.2828  0.1092 -0.6239
16198TIP3    H170085   6.365   3.380   3.438 -1.0168 -1.5454 -0.0542
16198TIP3    H270086   6.320   3.355   3.580 -1.7822  1.0659  0.2234
16199TIP3   OH270087   4.574   1.328   1.449 -0.3099 -0.3029  0.1964
16199TIP3    H170088   4.526   1.293   1.374  0.7485 -1.2889 -0.0352
16199TIP3    H270089   4.587   1.420   1.428  2.1456 -1.0487 -2.0530
16200TIP3   OH270090   6.129   6.673   3.570 -0.0339 -0.3406  0.3152
16200TIP3    H170091   6.105   6.763   3.590  0.5223 -0.5924  2.3397
16200TIP3    H270092   6.073   6.649   3.496 -0.2647  1.6013 -0.1995
16201TIP3   OH270093   2.771   5.152  10.553  0.0251 -0.3252 -0.0144
16201TIP3    H170094   2.755   5.066  10.514  1.2282 -0.0798 -1.1357
16201TIP3    H270095   2.699   5.206  10.521 -0.0346 -0.5966 -0.3504
16202TIP3   OH270096   5.648   6.100   4.730  0.2853  0.3610  0.6062
16202TIP3    H170097   5.700   6.144   4.663  0.5927  1.4666  1.5278
16202TIP3    H270098   5.682   6.135   4.813 -0.0746 -0.9679  1.3429
16203TIP3   OH270099   0.758   0.641  14.508 -0.2641 -0.4413  0.1755
16203TIP3    H170100   0.696   0.642  14.581  0.7535 -0.3975  1.0631
16203TIP3    H270101   0.767   0.733  14.484 -0.1384 -0.3942  0.4001
16204TIP3   OH270102   1.953   3.198   0.873  0.6132  0.4937  1.0752
16204TIP3    H170103   2.042   3.185   0.908  0.9831  0.4935  0.1479
16204TIP3    H270104   1.963   3.265   0.806  0.0637 -0.1213  0.3664
16205TIP3   OH270105   2.140   3.828  14.286 -0.2225  0.2282  0.4147
16205TIP3    H170106   2.096   3.795  14.207  0.4128 -2.2501  0.9978
16205TIP3    H270107   2.073   3.877  14.332 -3.0613 -4.3916  1.9030
16206TIP3   OH270108   5.873   6.799  12.947  0.0580 -0.2466 -0.6288
16206TIP3    H170109   5.909   6.805  12.858 -1.2787  0.5692 -1.1519
16206TIP3    H270110   5.811   6.726  12.943 -0.7498  0.4298 -0.6627
16207TIP3   OH270111   3.557   0.906  16.167  0.0552  0.0962  0.2817
16207TIP3    H170112   3.463   0.903  16.145  0.1363 -0.0809 -0.0476
16207TIP3    H270113   3.599   0.937  16.087  0.1304  1.7511  0.9143
16208TIP3   OH270114   2.868   5.053   0.731  0.2890 -0.1391 -0.3303
16208TIP3    H170115   2.816   4.978   0.702 -0.0921 -0.2270  0.5673
16208TIP3    H270116   2.931   5.067   0.660 -1.2962  0.3198 -1.7001
16209TIP3   OH270117   1.921   4.061  15.015 -0.2675  0.3999  0.2032
16209TIP3    H170118   1.971   3.979  15.009 -0.1207  0.4525  0.6679
16209TIP3    H270119   1.986   4.130  15.003 -0.4195  0.4544 -0.3752
16210TIP3   OH270120   5.715   6.499   4.916  0.5764 -0.7861  0.3636
16210TIP3    H170121   5.794   6.458   4.951  0.6469  0.4983  1.8205
16210TIP3    H270122   5.716   6.587   4.952 -3.3388 -1.7408  3.4716
16211TIP3   OH270123   1.360   1.038   4.912  0.4403 -0.0539  0.2417
16211TIP3    H170124   1.339   0.957   4.958 -2.2620  1.5389  2.1242
16211TIP3    H270125   1.408   1.090   4.976 -0.0850  0.7699 -0.0060
16212TIP3   OH270126   2.893   0.716   5.304  0.0134  0.5257 -0.4624
16212TIP3    H170127   2.804   0.749   5.318  0.1941  0.8261  0.0149
16212TIP3    H270128   2.929   0.773   5.236  0.4565  1.5982  0.6336
16213TIP3   OH270129   0.819   5.812   4.506 -0.3070 -0.3436 -0.1062
16213TIP3    H170130   0.827   5.858   4.422 -2.3748  0.1604 -0.0690
16213TIP3    H270131   0.854   5.724   4.488 -1.4884 -0.5272 -1.7617
16214TIP3   OH270132   3.204   3.822  13.385  0.0662 -0.3315 -0.3392
16214TIP3    H170133   3.115   3.858  13.386 -0.3970 -1.4399  0.8161
16214TIP3    H270134   3.242   3.849  13.469  0.0723 -1.6192  0.0923
16215TIP3   OH270135   5.768   0.436  15.237 -0.4744 -0.0405  0.2724
16215TIP3    H170136   5.683   0.457  15.199 -0.5654  0.1308  0.5718
16215TIP3    H270137   5.831   0.458  15.168 -0.1771  5.1856  1.8159
16216TIP3   OH270138   4.466   0.933   3.085 -0.0845  0.4072  0.0716
16216TIP3    H170139   4.398   0.990   3.047  0.3641  1.1946  0.4228
16216TIP3    H270140   4.418   0.856   3.115 -0.7214  0.6281 -0.3406
16217TIP3   OH270141   5.563   5.232  10.813 -0.4710  0.0770 -0.6158
16217TIP3    H170142   5.525   5.155  10.771 -3.4980  1.9207 -1.5765
16217TIP3    H270143   5.588   5.289  10.740  1.5957  0.1584  0.0764
16218TIP3   OH270144   6.705   4.315   3.753 -0.2892 -0.0466  0.2712
16218TIP3    H170145   6.711   4.220   3.740 -1.4115 -0.4010  2.0574
16218TIP3    H270146   6.792   4.339   3.787 -0.5156 -0.7604  1.4406
16219TIP3   OH270147   1.743   3.773  13.376 -0.0180  0.0140 -0.4052
16219TIP3    H170148   1.777   3.862  13.373 -0.8605  0.3372 -0.4452
16219TIP3    H270149   1.716   3.760  13.466 -0.3393 -0.0352 -0.5085
16220TIP3   OH270150   2.212   3.309   1.762  0.6034  0.2278 -0.0162
16220TIP3    H170151   2.159   3.300   1.683  1.6509  0.0356 -0.7095
16220TIP3    H270152   2.187   3.234   1.816  0.8255 -0.3752 -0.7319
16221TIP3   OH270153   3.019   4.985   4.805 -0.4892  0.2713 -0.3564
16221TIP3    H170154   3.113   4.983   4.786 -0.7139 -1.1376 -1.4874
16221TIP3    H270155   3.014   4.984   4.900  0.6427  2.3953 -0.1928
16222TIP3   OH270156   6.618   1.733   2.673  0.1316 -0.0854  0.2864
16222TIP3    H170157   6.691   1.777   2.716  0.9598 -0.4845 -0.6538
16222TIP3    H270158   6.641   1.640   2.676 -0.3245 -0.2149 -0.0406
16223TIP3   OH270159   0.890   5.620   5.273 -0.7289 -0.0248 -0.3333
16223TIP3    H170160   0.820   5.631   5.337 -0.1069  1.4787  0.1407
16223TIP3    H270161   0.945   5.551   5.309 -1.7166 -0.9067 -0.4929
16224TIP3   OH270162   3.597   6.799   0.368 -0.0387 -0.0049 -0.0246
16224TIP3    H170163   3.596   6.796   0.273  2.0845  0.1679 -0.1064
16224TIP3    H270164   3.623   6.711   0.394 -1.8296 -0.4159  0.4811
16225TIP3   OH270165   3.512   2.047  11.761  0.0001 -0.2770 -0.3903
16225TIP3    H170166   3.536   2.092  11.842 -0.9187  0.2705 -0.4013
16225TIP3    H270167   3.551   2.100  11.691 -2.6762  1.7386 -0.5312
16226TIP3   OH270168   4.843   6.511  14.035  0.1377  0.0088  0.5828
16226TIP3    H170169   4.899   6.491  14.110 -0.1644 -0.4215  0.6950
16226TIP3    H270170   4.804   6.427  14.010 -0.5927  0.3245  0.6164
16227TIP3   OH270171   0.157   2.464  14.154 -0.4756  0.4784  0.4818
16227TIP3    H170172   0.147   2.462  14.058  0.2032  1.0285  0.3946
16227TIP3    H270173   0.079   2.510  14.185 -0.9650 -0.1673  0.2405
16228TIP3   OH270174   5.799   5.610  13.010  0.0935  0.0367 -0.0135
16228TIP3    H170175   5.846   5.555  12.946 -0.5044 -1.0656  0.4604
16228TIP3    H270176   5.777   5.550  13.081  0.3901  1.1601  1.0512
16229TIP3   OH270177   4.388   2.638   2.553  0.1603  0.1963  0.1448
16229TIP3    H170178   4.342   2.649   2.471  0.0502 -0.1669  0.1564
16229TIP3    H270179   4.442   2.560   2.540 -0.2080 -0.1369  0.5707
16230TIP3   OH270180   6.040   4.819  10.387 -0.1762  0.3612  0.5088
16230TIP3    H170181   6.058   4.742  10.333  0.9824  0.9023  0.0962
16230TIP3    H270182   5.977   4.870  10.336  0.0485  0.3158  0.1827
16231TIP3   OH270183   5.745   4.397  10.945  0.4031  0.1985  0.2167
16231TIP3    H170184   5.830   4.375  10.907  1.4886  2.7505  0.9830
16231TIP3    H270185   5.754   4.378  11.038 -1.1078 -2.7403 -0.0957
16232TIP3   OH270186   1.838   3.374   1.694  0.3428  0.3930 -0.1818
16232TIP3    H170187   1.916   3.325   1.719  1.6137  1.7062 -1.3580
16232TIP3    H270188   1.796   3.320   1.627 -0.9202 -1.2637  1.8445
16233TIP3   OH270189   0.286   4.590   0.003 -0.0445 -0.6213  0.3681
16233TIP3    H170190   0.225   4.626   0.067  1.3112  1.6202  0.5500
16233TIP3    H270191   0.367   4.575   0.052  0.2300 -1.3772 -0.2910
16234TIP3   OH270192   4.124   6.224   5.390  0.2074  0.0219  0.0157
16234TIP3    H170193   4.107   6.177   5.472  3.0846 -0.0923  0.6592
16234TIP3    H270194   4.059   6.190   5.329 -1.4958 -0.5083  2.0005
16235TIP3   OH270195   6.897   3.479   5.557  0.0086  0.3386  0.0975
16235TIP3    H170196   6.946   3.471   5.639  0.1337 -0.8468 -0.0750
16235TIP3    H270197   6.817   3.430   5.573 -0.9388  1.8604  0.2082
16236TIP3   OH270198   5.130   5.754   0.009  0.2620 -0.0436  0.2457
16236TIP3    H170199   5.043   5.759  -0.030  0.5340 -0.1127 -0.3736
16236TIP3    H270200   5.161   5.844   0.010  0.1859 -0.0194  0.4653
16237TIP3   OH270201   3.388   0.711  15.168 -0.4229 -0.0034 -0.3351
16237TIP3    H170202   3.368   0.686  15.078  0.2133  0.1112 -0.5164
16237TIP3    H270203   3.456   0.778  15.159 -1.5848  1.2849  0.1619
16238TIP3   OH270204   3.945   3.664  15.738  0.2398  0.8970 -0.2116
16238TIP3    H170205   3.865   3.640  15.692 -1.7569  1.9338  2.4473
16238TIP3    H270206   3.934   3.757  15.758 -0.6220 -0.0437  4.9082
16239TIP3   OH270207   6.537   5.655   2.075  0.5133  0.1788 -0.6783
16239TIP3    H170208   6.616   5.602   2.081 -0.2913 -0.9292  1.1703
16239TIP3    H270209   6.550   5.726   2.138  0.2121  0.2585 -0.7029
16240TIP3   OH270210   0.295   0.018   0.677 -0.1655 -0.0404 -0.2825
16240TIP3    H170211   0.376  -0.028   0.656  0.0600  0.0233  0.4146
16240TIP3    H270212   0.270   0.063   0.596  0.2080 -0.4862 -0.6478
16241TIP3   OH270213   5.632   2.035   1.431  0.1581  0.3014 -0.2206
16241TIP3    H170214   5.572   2.062   1.501 -1.5285  0.0328 -1.5051
16241TIP3    H270215   5.625   1.940   1.428 -2.4114  0.4235 -2.8412
16242TIP3   OH270216   0.669   1.496   2.453 -0.1560 -0.2667 -0.2427
16242TIP3    H170217   0.628   1.569   2.407 -1.7530 -1.9786 -1.7303
16242TIP3    H270218   0.602   1.427   2.453  1.5090 -1.9796  0.4268
16243TIP3   OH270219   2.944   0.255   2.153  0.0652  0.1352  0.2869
16243TIP3    H170220   2.856   0.231   2.123 -0.2265 -0.5847  1.6545
16243TIP3    H270221   2.955   0.209   2.236  2.1454 -0.6314 -0.3450
16244TIP3   OH270222   0.165   6.437  15.680 -0.3582 -0.4368  0.3054
16244TIP3    H170223   0.084   6.386  15.680 -1.7075  1.6075  0.7761
16244TIP3    H270224   0.143   6.517  15.728  1.7190  0.5205 -0.2478
16245TIP3   OH270225   3.517   1.200  13.561 -0.2624  0.1966  0.2173
16245TIP3    H170226   3.479   1.115  13.540 -0.8493  0.3864  0.4865
16245TIP3    H270227   3.535   1.240  13.476 -0.2209 -0.0893  0.0892
16246TIP3   OH270228   2.391   3.336  12.587  0.2390  0.1470 -0.3579
16246TIP3    H170229   2.484   3.318  12.571  0.3105 -0.0395  0.2420
16246TIP3    H270230   2.369   3.281  12.663 -0.0867  0.9758  0.1635
16247TIP3   OH270231   2.506   1.353  14.004 -0.1581 -0.3894 -0.0685
16247TIP3    H170232   2.571   1.418  14.028  0.4532 -0.9747 -0.1272
16247TIP3    H270233   2.556   1.280  13.968 -0.7860 -1.1437  0.5433
16248TIP3   OH270234   2.389   1.773  10.358  0.5731  0.0957 -0.3068
16248TIP3    H170235   2.462   1.730  10.314  0.3745  0.3151 -0.8593
16248TIP3    H270236   2.322   1.781  10.290  0.5526  1.1416 -0.1724
16249TIP3   OH270237   0.754   1.444  16.671  0.3808 -0.7944  0.1225
16249TIP3    H170238   0.695   1.383  16.626  0.8984 -1.6499  0.5710
16249TIP3    H270239   0.837   1.397  16.677  0.8360  0.0257  0.3489
16250TIP3   OH270240   5.811   4.309  14.798 -0.3074  0.2855  0.1454
16250TIP3    H170241   5.843   4.395  14.770 -0.6272  0.8980  1.5776
16250TIP3    H270242   5.867   4.247  14.752 -0.8660  1.1892 -1.9085
16251TIP3   OH270243   0.089   2.412  10.428 -0.3802  0.2553 -0.0792
16251TIP3    H170244   0.151   2.479  10.400  0.9579 -0.9559 -0.1388
16251TIP3    H270245   0.144   2.339  10.456 -1.7764 -1.3486 -1.3128
16252TIP3   OH270246   4.880   0.210  14.105  0.0081 -0.0207  0.0477
16252TIP3    H170247   4.899   0.304  14.103 -1.2788  0.3850  2.9658
16252TIP3    H270248   4.784   0.205  14.109  0.0975 -1.4376  0.7686
16253TIP3   OH270249   1.738   2.412   5.483  0.2868  0.2141 -0.3508
16253TIP3    H170250   1.798   2.477   5.521  1.2655 -1.1578  0.5440
16253TIP3    H270251   1.790   2.365   5.419 -0.2625 -0.0454 -0.6153
16254TIP3   OH270252   3.822   5.624  13.649  0.0430 -0.4726  0.0775
16254TIP3    H170253   3.875   5.646  13.726 -0.9161 -0.9719  0.9127
16254TIP3    H270254   3.886   5.613  13.578  1.2472 -2.4890  1.3621
16255TIP3   OH270255   2.543   6.897  11.057 -0.0717 -0.2679 -0.3837
16255TIP3    H170256   2.572   6.903  11.148  0.5916 -0.6427 -0.5600
16255TIP3    H270257   2.557   6.984  11.021 -0.8162  0.0178  0.0078
16256TIP3   OH270258   5.952   6.463  14.977 -0.0441 -0.1887  0.1068
16256TIP3    H170259   5.974   6.518  14.902  0.5117 -1.1054 -0.4132
16256TIP3    H270260   5.857   6.469  14.983 -0.2552 -1.2312 -1.5781
16257TIP3   OH270261   3.928   3.703  11.347 -0.1460  0.0400 -0.0415
16257TIP3    H170262   3.883   3.785  11.327  0.0314  0.1152 -0.1367
16257TIP3    H270263   4.004   3.730  11.399 -0.2529 -0.0930  0.1851
16258TIP3   OH270264   3.509   4.624  16.493  0.5312 -0.0209  0.2110
16258TIP3    H170265   3.445   4.573  16.444  2.4601 -0.0197 -2.5251
16258TIP3    H270266   3.533   4.696  16.434  0.7539  1.8340  2.4178
16259TIP3   OH270267   6.746   3.208   1.582  0.8043  0.6713 -0.5553
16259TIP3    H170268   6.839   3.218   1.563  1.2786 -0.5586  0.8611
16259TIP3    H270269   6.719   3.131   1.532  1.1325 -0.3002  0.6985
16260TIP3   OH270270   3.677   6.109  13.902 -0.2123  0.3297  0.1573
16260TIP3    H170271   3.640   6.025  13.878  1.6652  0.1986 -2.8280
16260TIP3    H270272   3.636   6.172  13.842  1.3992  0.8008 -0.5113
16261TIP3   OH270273   3.201   5.699  11.142 -0.4274 -0.6489 -0.4128
16261TIP3    H170274   3.200   5.611  11.181 -0.4903 -0.1861  0.6568
16261TIP3    H270275   3.113   5.710  11.106  0.7536 -2.6548 -4.4033
16262TIP3   OH270276   4.223   3.006  16.356  0.0724  0.0004 -0.3482
16262TIP3    H170277   4.160   3.022  16.426 -0.4379  1.3164 -1.0775
16262TIP3    H270278   4.248   3.093  16.325  0.4501 -0.5418 -1.6510
16263TIP3   OH270279   2.175   6.425   5.448  0.0477 -0.4131 -0.1522
16263TIP3    H170280   2.083   6.450   5.459  0.3254  0.9247 -0.7719
16263TIP3    H270281   2.199   6.388   5.533  0.0526  2.9082  1.4271
16264TIP3   OH270282   1.376   2.711   6.188 -0.1841  0.6171  0.1078
16264TIP3    H170283   1.394   2.637   6.246 -0.1313  1.7717  1.6100
16264TIP3    H270284   1.462   2.747   6.168 -0.2497  0.6395 -0.1338
16265TIP3   OH270285   5.162   3.987   5.148  0.0407  0.0052  0.5852
16265TIP3    H170286   5.151   4.010   5.240 -0.7459  1.0889  0.2424
16265TIP3    H270287   5.197   4.066   5.108  1.5530 -0.8474  0.1528
16266TIP3   OH270288   4.254   0.035   1.423 -0.7168  0.2698 -0.2956
16266TIP3    H170289   4.222   0.045   1.333  0.5876  0.3297 -0.7822
16266TIP3    H270290   4.234  -0.056   1.445 -0.4865  0.0645 -0.8941
16267TIP3   OH270291   1.192   2.865   6.288 -0.0780  0.4358 -0.0241
16267TIP3    H170292   1.254   2.897   6.354  1.2200 -0.8337 -0.5483
16267TIP3    H270293   1.245   2.806   6.233 -1.8797 -1.1395 -0.1770
16268TIP3   OH270294   0.537   6.357   0.885  0.5412 -0.1116 -0.3305
16268TIP3    H170295   0.536   6.445   0.923 -0.0059  0.1432 -0.9173
16268TIP3    H270296   0.481   6.363   0.808 -0.6171 -1.3093  0.3697
16269TIP3   OH270297   2.646   6.231  13.781  0.1656 -1.0663  0.2669
16269TIP3    H170298   2.592   6.253  13.857 -0.8156  1.0740 -0.9484
16269TIP3    H270299   2.597   6.162  13.736 -0.4975 -0.6263  0.2952
16270TIP3   OH270300   0.243   3.003  12.539  0.7030  0.4308 -0.5477
16270TIP3    H170301   0.301   2.993  12.614  2.2035  1.4631 -1.5054
16270TIP3    H270302   0.301   2.999  12.463 -0.9323 -2.1463 -1.8074
16271TIP3   OH270303   6.376   6.102  16.468 -0.1017 -0.9630 -0.4450
16271TIP3    H170304   6.287   6.119  16.438 -0.3424 -2.7192 -0.8664
16271TIP3    H270305   6.365   6.042  16.542  0.7074 -0.8777 -0.2426
16272TIP3   OH270306   3.823   0.339  14.258 -0.0962  0.1141 -0.0674
16272TIP3    H170307   3.887   0.280  14.297  0.3638  0.5076 -0.2223
16272TIP3    H270308   3.781   0.286  14.190 -0.3722 -0.3348  0.4472
16273TIP3   OH270309   6.406   3.430  14.446 -0.2994 -0.1318 -0.2495
16273TIP3    H170310   6.426   3.494  14.514 -0.3551 -0.9145  0.5209
16273TIP3    H270311   6.310   3.430  14.439 -0.2493  0.8437 -1.2269
16274TIP3   OH270312   1.305   6.302   1.051  0.5336  0.1445 -0.2108
16274TIP3    H170313   1.307   6.367   0.981 -1.6783 -1.6553 -2.1547
16274TIP3    H270314   1.266   6.225   1.010 -0.9814 -1.0090  3.0514
16275TIP3   OH270315   0.300   4.221   0.283 -0.3803  0.1771 -0.4685
16275TIP3    H170316   0.363   4.211   0.212 -0.6312  0.1711 -0.6908
16275TIP3    H270317   0.228   4.271   0.244 -0.0432  1.1055  0.0668
16276TIP3   OH270318   5.540   3.612   3.426  0.7050  0.2359 -0.2538
16276TIP3    H170319   5.451   3.643   3.410  0.8421  0.7042 -0.1381
16276TIP3    H270320   5.554   3.629   3.520  1.1622  0.8201 -0.4220
16277TIP3   OH270321   0.215   3.221   5.543 -0.0791 -0.6556 -0.7265
16277TIP3    H170322   0.258   3.177   5.470  0.3888  0.8396 -1.3972
16277TIP3    H270323   0.228   3.162   5.618  2.3290 -0.7434 -1.1182
16278TIP3   OH270324   3.080   3.080  10.858  0.6972 -0.2305  0.1163
16278TIP3    H170325   3.020   3.151  10.832  0.7214 -0.8568 -1.7813
16278TIP3    H270326   3.037   3.000  10.828  1.6499 -0.8475  0.3501
16279TIP3   OH270327   1.338   0.488   3.350  0.0911 -0.2511  0.1185
16279TIP3    H170328   1.400   0.560   3.340 -0.4939  0.3090  0.4753
16279TIP3    H270329   1.254   0.524   3.319 -0.4616 -0.3871  1.4017
16280TIP3   OH270330   4.655   2.000  11.500  0.2800  0.7076  0.3171
16280TIP3    H170331   4.630   1.924  11.553  1.5855 -0.1625 -0.2698
16280TIP3    H270332   4.621   1.981  11.413 -2.4748  2.4469  0.8539
16281TIP3   OH270333   5.993   0.437   2.366 -0.0114 -0.8444  0.2238
16281TIP3    H170334   5.940   0.518   2.363 -2.3060 -2.2238  0.7613
16281TIP3    H270335   6.066   0.458   2.423 -0.4856  0.8861  0.2596
16282TIP3   OH270336   1.551   2.555  13.967  0.1080  0.0203 -0.6537
16282TIP3    H170337   1.620   2.620  13.977 -0.5147  0.6789 -0.5426
16282TIP3    H270338   1.596   2.471  13.969  0.8596  0.4274 -0.1969
16283TIP3   OH270339   1.596   2.876   2.364  0.3120 -0.0972  0.2498
16283TIP3    H170340   1.630   2.937   2.429 -1.8938  0.2428  1.1720
16283TIP3    H270341   1.502   2.874   2.380 -0.3161 -0.1349 -2.8572
16284TIP3   OH270342   0.405   1.135   0.581 -0.3779 -0.3189  0.4711
16284TIP3    H170343   0.387   1.062   0.640  1.5523 -2.5924 -1.5678
16284TIP3    H270344   0.494   1.119   0.549 -0.4427  2.1383 -1.2200
16285TIP3   OH270345   1.982   1.227   1.209 -0.4533 -0.2687 -0.2690
16285TIP3    H170346   1.897   1.257   1.177  1.0320  2.6713 -1.8475
16285TIP3    H270347   1.988   1.136   1.178 -3.0537 -0.6333  0.0898
16286TIP3   OH270348   5.574   3.285   2.421 -0.4514  0.2241 -0.4569
16286TIP3    H170349   5.617   3.203   2.397  0.1187  1.1778 -2.9885
16286TIP3    H270350   5.624   3.353   2.375 -1.3820  1.9242  0.9380
16287TIP3   OH270351   2.387   5.929  12.246  0.3997 -0.0105 -0.9055
16287TIP3    H170352   2.393   5.891  12.334  1.3091 -0.7079 -1.2445
16287TIP3    H270353   2.295   5.920  12.222  0.0427  0.6736  0.1826
16288TIP3   OH270354   2.739   0.586   6.120 -0.1835  0.6338  0.4421
16288TIP3    H170355   2.649   0.618   6.116 -0.5740 -0.5557 -1.2298
16288TIP3    H270356   2.793   0.665   6.131 -1.2527  1.6454 -1.2332
16289TIP3   OH270357   2.720   6.664   1.470  0.0754  0.2711  0.0145
16289TIP3    H170358   2.711   6.752   1.507  0.3933  0.6322 -0.7549
16289TIP3    H270359   2.738   6.608   1.546 -1.6415  0.6060  0.7283
16290TIP3   OH270360   3.084   1.867   5.649 -0.1436  0.1195  0.4819
16290TIP3    H170361   3.004   1.827   5.682  0.4829 -0.5229  1.2536
16290TIP3    H270362   3.092   1.835   5.559 -0.2586 -0.5925  0.7158
16291TIP3   OH270363   2.622   3.327   5.869  0.0506  0.1502  0.2426
16291TIP3    H170364   2.539   3.374   5.878 -0.3378  0.2297 -2.6070
16291TIP3    H270365   2.688   3.396   5.864  0.0376  0.1810  0.4870
16292TIP3   OH270366   1.369   2.960  11.203  0.4467  0.3019  0.1304
16292TIP3    H170367   1.360   2.976  11.109  2.8531  2.1190  0.1142
16292TIP3    H270368   1.280   2.963  11.236 -0.3425  1.2436 -1.8858
16293TIP3   OH270369   2.135   5.342  12.842  0.1413  0.0126 -0.4201
16293TIP3    H170370   2.194   5.270  12.817  2.6055  1.1688  1.6189
16293TIP3    H270371   2.184   5.421  12.820 -0.6374  1.0176  1.2969
16294TIP3   OH270372   2.328   3.073  14.016 -0.0859 -0.3253  0.2840
16294TIP3    H170373   2.343   2.988  14.056  0.6619  0.5810  2.0695
16294TIP3    H270374   2.276   3.121  14.081 -1.5912  0.1901 -1.2217
16295TIP3   OH270375   4.601   1.038  16.729 -0.5557 -0.0375  0.5425
16295TIP3    H170376   4.688   1.011  16.699 -0.5715 -1.0011  1.3265
16295TIP3    H270377   4.591   1.128  16.696  0.0922 -0.4577 -0.8837
16296TIP3   OH270378   1.202   1.056   5.252  0.5995  0.4681 -0.5407
16296TIP3    H170379   1.178   1.098   5.335  2.1041 -2.5848  1.6176
16296TIP3    H270380   1.282   1.101   5.225  0.9654  0.4775  0.5148
16297TIP3   OH270381   4.863   1.912  10.823  0.0511 -0.7025 -0.3194
16297TIP3    H170382   4.809   1.891  10.747  0.8681  1.8291 -1.6832
16297TIP3    H270383   4.947   1.869  10.805 -0.6167 -2.5318  0.6187
16298TIP3   OH270384   3.100   6.747   0.236  0.0380 -0.1081 -0.1093
16298TIP3    H170385   3.193   6.760   0.219  0.5353 -1.7156  1.0735
16298TIP3    H270386   3.077   6.816   0.298  0.8478 -0.5578  0.7258
16299TIP3   OH270387   1.202   6.596  10.987  0.7369  0.3517  0.6854
16299TIP3    H170388   1.286   6.628  10.954  1.0273 -0.6970  0.3672
16299TIP3    H270389   1.206   6.502  10.973  0.3188  0.0266  2.5049
16300TIP3   OH270390   5.277   6.139  15.395 -0.2791 -0.3266  0.3229
16300TIP3    H170391   5.215   6.197  15.439  0.1248  0.0101  0.4586
16300TIP3    H270392   5.359   6.189  15.393 -1.1362  1.4014 -4.3415
16301TIP3   OH270393   4.942   6.775  11.141 -0.1667  0.0931 -0.5812
16301TIP3    H170394   4.928   6.870  11.147 -0.0888  0.0656  0.0835
16301TIP3    H270395   4.876   6.737  11.199  0.0182 -0.2414 -0.5872
16302TIP3   OH270396   1.227   0.139   5.312 -0.4804  0.6794 -0.3871
16302TIP3    H170397   1.176   0.060   5.298  1.1237 -0.9602  2.1544
16302TIP3    H270398   1.177   0.190   5.376 -1.7027  2.0339 -2.3035
16303TIP3   OH270399   2.432   1.716  11.528 -0.0899 -0.4118 -0.1499
16303TIP3    H170400   2.376   1.710  11.450  1.3854  1.4044 -1.4349
16303TIP3    H270401   2.385   1.775  11.587  0.0340  0.4351 -0.8677
16304TIP3   OH270402   0.036   4.652  14.494  0.2553 -0.7188 -0.4030
16304TIP3    H170403   0.105   4.690  14.440  0.3245  0.3637  0.4182
16304TIP3    H270404   0.083   4.607  14.565  0.1290 -0.1455  0.0488
16305TIP3   OH270405   0.819   5.418  11.236 -0.0221 -0.0388  0.0287
16305TIP3    H170406   0.829   5.467  11.155  2.3358 -1.9107 -0.9352
16305TIP3    H270407   0.888   5.451  11.293  0.1588 -0.7208  0.2065
16306TIP3   OH270408   6.303   2.251   4.995  0.1795 -0.1466  0.3467
16306TIP3    H170409   6.325   2.343   4.985 -2.1887  0.5186  0.4719
16306TIP3    H270410   6.326   2.211   4.912  1.7748  0.4145  0.4970
16307TIP3   OH270411   1.084   1.527  15.893  1.3150  0.3834 -0.0075
16307TIP3    H170412   1.026   1.603  15.897  0.5319 -0.1745 -0.4529
16307TIP3    H270413   1.053   1.469  15.962  1.1068 -0.0675 -0.4710
16308TIP3   OH270414   6.007   5.684   1.731  0.1300 -0.4994  0.5139
16308TIP3    H170415   6.022   5.771   1.694 -2.0886  0.3880  1.5683
16308TIP3    H270416   6.082   5.633   1.701  1.4235  1.7085 -0.2798
16309TIP3   OH270417   4.781   5.257   4.402 -0.1597  0.0056  0.2521
16309TIP3    H170418   4.696   5.283   4.436 -0.8375  1.3318 -2.1962
16309TIP3    H270419   4.844   5.311   4.450 -1.1581  2.6533 -1.2069
16310TIP3   OH270420   6.080   5.954  14.683  0.1630  0.1585  0.6130
16310TIP3    H170421   6.125   6.001  14.754  1.7034 -0.0625 -0.1749
16310TIP3    H270422   6.090   5.862  14.706  1.4743  0.0398 -0.3079
16311TIP3   OH270423   3.388   3.246  12.212 -0.6910 -0.4091  0.0799
16311TIP3    H170424   3.399   3.280  12.301 -1.6047 -0.1392  0.1016
16311TIP3    H270425   3.391   3.324  12.156 -1.2768 -0.4402 -0.0078
16312TIP3   OH270426   3.375   3.412  15.204 -0.0690  0.2891 -0.9438
16312TIP3    H170427   3.399   3.400  15.296 -0.2055  0.7815 -0.8419
16312TIP3    H270428   3.429   3.349  15.156  0.9576  0.9375 -0.6585
16313TIP3   OH270429   0.384   1.760  15.690  0.4701  0.4218 -0.0281
16313TIP3    H170430   0.469   1.721  15.711  0.4079  1.4915  2.5670
16313TIP3    H270431   0.402   1.854  15.683 -0.3584  0.5721 -0.2368
16314TIP3   OH270432   5.560   2.603   2.735 -0.1563 -0.1216  0.3927
16314TIP3    H170433   5.544   2.694   2.710 -1.3919  0.0027  1.4977
16314TIP3    H270434   5.637   2.607   2.792  0.4765  0.0634 -0.4612
16315TIP3   OH270435   5.592   2.423  13.841  0.6285 -0.4974 -0.3605
16315TIP3    H170436   5.552   2.336  13.844 -0.1917 -0.2075  4.0950
16315TIP3    H270437   5.524   2.479  13.803 -0.1125 -1.2971 -0.2555
16316TIP3   OH270438   4.243   1.054   3.015  0.0949 -0.0507 -0.7227
16316TIP3    H170439   4.151   1.040   2.995 -0.8238  1.4606  1.9672
16316TIP3    H270440   4.270   1.128   2.962 -0.4863  0.0385 -0.8874
16317TIP3   OH270441   1.160   0.685  12.226 -0.9261 -0.1653 -0.3822
16317TIP3    H170442   1.121   0.716  12.144  0.5368  1.0436 -0.6468
16317TIP3    H270443   1.251   0.665  12.204 -0.9477 -1.4720  0.5738
16318TIP3   OH270444   4.453   5.042  15.202  0.1811 -0.2224 -0.4799
16318TIP3    H170445   4.405   5.017  15.281 -0.2585 -0.7675 -0.9107
16318TIP3    H270446   4.404   5.002  15.130  0.1456  0.8897 -1.0955
16319TIP3   OH270447   6.661   3.610  10.886  0.1715 -0.7824  0.0791
16319TIP3    H170448   6.631   3.609  10.795  1.5565  1.6389 -0.4974
16319TIP3    H270449   6.729   3.543  10.889 -1.3816 -2.4359 -0.0289
16320TIP3   OH270450   4.726   6.303  10.494 -0.6697 -0.0928  0.1707
16320TIP3    H170451   4.791   6.367  10.521  0.1847 -0.0160 -1.8830
16320TIP3    H270452   4.642   6.350  10.498  0.1271  1.9192 -3.1966
16321TIP3   OH270453   4.396   1.579   5.813  0.1963 -0.0949  0.1145
16321TIP3    H170454   4.325   1.591   5.751 -1.0616 -1.4593  1.1929
16321TIP3    H270455   4.443   1.502   5.781  0.0591 -0.2921  0.3812
16322TIP3   OH270456   0.724   4.274  14.945  0.3998 -0.6739 -0.1296
16322TIP3    H170457   0.673   4.328  14.885 -0.6740  0.8267  2.0247
16322TIP3    H270458   0.809   4.265  14.902 -0.0502  1.0396 -1.4938
16323TIP3   OH270459   0.491   5.599   3.939 -0.0299  0.0586 -0.0619
16323TIP3    H170460   0.530   5.557   3.862  2.1763  0.4651  0.7335
16323TIP3    H270461   0.549   5.574   4.011 -0.8608  1.3291  1.1006
16324TIP3   OH270462   3.961   4.873  14.423 -0.3318  0.2032 -0.3382
16324TIP3    H170463   4.015   4.815  14.477 -2.0993 -0.8729  0.3425
16324TIP3    H270464   3.984   4.961  14.452 -3.2172 -0.3126  4.4000
16325TIP3   OH270465   4.405   4.151  13.171 -0.2336 -0.0268  0.4582
16325TIP3    H170466   4.368   4.159  13.259 -2.6444  0.6869 -0.5113
16325TIP3    H270467   4.415   4.242  13.142 -0.2324 -0.2534 -0.2684
16326TIP3   OH270468   3.474   0.582   0.449 -0.2397 -0.4884 -0.1564
16326TIP3    H170469   3.457   0.528   0.526 -0.7952  0.2029  0.2209
16326TIP3    H270470   3.469   0.672   0.481  0.4915 -0.2052 -0.8110
16327TIP3   OH270471   4.651   0.416  15.486  0.5941 -0.4759  0.8960
16327TIP3    H170472   4.714   0.488  15.490 -0.2934  0.3617  0.3873
16327TIP3    H270473   4.648   0.391  15.393  0.3020 -0.6098  0.9377
16328TIP3   OH270474   5.090   5.135   1.948 -0.3877 -0.1439  0.3934
16328TIP3    H170475   5.088   5.216   1.897  0.9082 -0.1196  0.3558
16328TIP3    H270476   5.093   5.164   2.039  0.4952 -0.1306  0.3671
16329TIP3   OH270477   0.904   5.971  14.788  0.1404  0.2020 -0.3191
16329TIP3    H170478   0.848   6.014  14.723  0.5524  0.0904 -0.7549
16329TIP3    H270479   0.976   5.934  14.736  1.3158  1.4478  0.3456
16330TIP3   OH270480   2.822   5.243   1.997  0.3693 -0.2699  0.7600
16330TIP3    H170481   2.815   5.331   1.960  2.1059 -0.5222 -0.3149
16330TIP3    H270482   2.796   5.185   1.926  3.1613 -0.7396 -0.0191
16331TIP3   OH270483   0.750   6.734  12.353  0.2194 -0.1145  0.7493
16331TIP3    H170484   0.739   6.732  12.257 -1.9983  2.7105  0.8196
16331TIP3    H270485   0.708   6.653  12.383  2.3227 -1.8571 -0.6404
16332TIP3   OH270486   3.302   4.521  11.527 -0.3300 -0.3083 -0.1486
16332TIP3    H170487   3.350   4.595  11.566  0.7519 -1.5574  0.9856
16332TIP3    H270488   3.217   4.558  11.504  0.7037  1.6787 -1.0775
16333TIP3   OH270489   6.013   5.847  14.079 -0.6452  0.4437 -0.1011
16333TIP3    H170490   6.023   5.924  14.136  0.7113  1.2532 -1.3552
16333TIP3    H270491   6.095   5.799  14.090 -0.3813  0.5946 -1.3216
16334TIP3   OH270492   3.056   0.603   0.457 -0.7549  0.2719 -0.5067
16334TIP3    H170493   3.127   0.550   0.420 -1.3042 -1.2594  0.5425
16334TIP3    H270494   3.048   0.572   0.547 -0.6863  2.6142  0.3760
16335TIP3   OH270495   4.193   5.935   4.061  0.1440 -0.3533  0.0500
16335TIP3    H170496   4.193   6.026   4.092 -0.5493 -0.0137 -0.9078
16335TIP3    H270497   4.285   5.916   4.042  0.0158  1.0387 -2.2247
16336TIP3   OH270498   5.004   5.750   3.704  0.2224  0.2989  0.1261
16336TIP3    H170499   4.942   5.760   3.775 -0.4567  1.3237 -0.5821
16336TIP3    H270500   4.989   5.826   3.648  0.9868 -0.2888 -0.9183
16337TIP3   OH270501   5.244   0.472  16.388 -0.2603  0.5564  0.5853
16337TIP3    H170502   5.307   0.541  16.408  0.5389 -0.1578  0.5873
16337TIP3    H270503   5.226   0.483  16.294  0.6351  0.1554  0.3577
16338TIP3   OH270504   3.778   0.797   4.410 -0.0903 -0.3908 -0.0678
16338TIP3    H170505   3.863   0.814   4.452  0.2915 -1.4002 -0.3991
16338TIP3    H270506   3.752   0.711   4.443  0.1281 -1.1333 -1.7262
16339TIP3   OH270507   5.885   4.223   3.133  0.2048 -0.1315 -0.0861
16339TIP3    H170508   5.961   4.276   3.109  0.8736 -1.1361 -0.2438
16339TIP3    H270509   5.823   4.285   3.171  0.7362  0.8461 -0.7847
16340TIP3   OH270510   3.245   6.193   3.789  0.6412  0.0326 -0.9830
16340TIP3    H170511   3.282   6.274   3.753  0.2960  1.9127  2.4586
16340TIP3    H270512   3.150   6.207   3.786  0.5793 -0.2017 -0.3349
16341TIP3   OH270513   1.428   6.313  15.330  0.3242 -0.0186 -0.4664
16341TIP3    H170514   1.481   6.386  15.296  1.6837 -0.1629  1.2405
16341TIP3    H270515   1.421   6.252  15.256  2.7910 -0.1132 -0.6931
16342TIP3   OH270516   4.224   1.787  14.839  0.3360 -0.2241 -0.2189
16342TIP3    H170517   4.188   1.876  14.838 -0.5034 -0.5394  0.4580
16342TIP3    H270518   4.319   1.799  14.830  0.2873  0.7732  0.5014
16343TIP3   OH270519   0.087   5.533  15.372  0.3692 -0.0515  0.4304
16343TIP3    H170520   0.166   5.500  15.328 -0.4969  0.0855 -1.2771
16343TIP3    H270521   0.118   5.559  15.459  2.5632  1.5234 -0.7160
16344TIP3   OH270522   4.555   5.111   2.612  0.5556 -1.2034 -0.1888
16344TIP3    H170523   4.502   5.051   2.664 -0.0643  0.4416  1.1784
16344TIP3    H270524   4.492   5.170   2.571  1.2166  0.1818  0.6980
16345TIP3   OH270525   4.627   5.379   0.760 -0.0106  0.4174 -0.0334
16345TIP3    H170526   4.553   5.402   0.703  0.6896  2.1165 -0.3072
16345TIP3    H270527   4.643   5.286   0.742  0.1606  0.8803 -2.6218
16346TIP3   OH270528   1.459   2.191  10.148  0.0406  0.4108 -0.3950
16346TIP3    H170529   1.411   2.240  10.081 -2.6952 -0.6712  0.5921
16346TIP3    H270530   1.391   2.164  10.211  2.1637 -0.3661  1.7299
16347TIP3   OH270531   1.858   3.996   5.439  0.5931  0.0944  0.0879
16347TIP3    H170532   1.855   4.035   5.527 -3.6738 -0.2135  0.2555
16347TIP3    H270533   1.871   3.903   5.455  1.0071  0.1873  0.3114
16348TIP3   OH270534   6.878   4.566   1.266 -0.0398 -0.0388  0.0518
16348TIP3    H170535   6.923   4.529   1.190  1.3694  0.4796  0.6040
16348TIP3    H270536   6.785   4.554   1.247  0.3023 -0.4935 -1.4540
16349TIP3   OH270537   6.780   2.790   4.052 -0.4399  0.1510  0.2536
16349TIP3    H170538   6.848   2.857   4.063 -0.1284 -0.0742 -0.2449
16349TIP3    H270539   6.720   2.829   3.988 -0.1905 -0.0939 -0.1323
16350TIP3   OH270540   4.709   6.288   5.216  0.3272 -0.0915 -0.8019
16350TIP3    H170541   4.734   6.379   5.234 -0.7049  0.1282 -0.3924
16350TIP3    H270542   4.697   6.249   5.302  0.0375 -0.4082 -0.9832
16351TIP3   OH270543   3.372   3.878  12.702  0.0538  0.2244 -0.1592
16351TIP3    H170544   3.284   3.866  12.738 -0.5402  3.5691 -0.2506
16351TIP3    H270545   3.429   3.875  12.779 -0.4289  0.5534  0.2200
16352TIP3   OH270546   5.882   1.143  14.163  0.2098  0.0916  0.2208
16352TIP3    H170547   5.878   1.224  14.112 -0.0132 -1.7171 -2.8304
16352TIP3    H270548   5.975   1.132  14.182  0.3990  0.3723 -0.5170
16353TIP3   OH270549   3.518   1.055  14.649 -0.1608  0.2018 -0.4325
16353TIP3    H170550   3.582   1.122  14.674  0.1527  0.4555 -1.8494
16353TIP3    H270551   3.558   0.972  14.676  0.8843  0.3384 -1.4759
16354TIP3   OH270552   6.227   1.421   1.095  0.0539 -0.5202 -0.4221
16354TIP3    H170553   6.279   1.342   1.110  0.3182 -0.3048 -0.2164
16354TIP3    H270554   6.234   1.438   1.001 -1.0508 -1.4796 -0.7070
16355TIP3   OH270555   2.905   1.056  13.571  0.0948 -0.4458 -0.5005
16355TIP3    H170556   2.927   1.113  13.644  1.2013 -0.5620 -0.7226
16355TIP3    H270557   2.928   1.108  13.493 -0.3787 -0.6015 -0.7468
16356TIP3   OH270558   4.530   4.761   9.988  0.3672 -0.2626 -0.3327
16356TIP3    H170559   4.456   4.822   9.990  1.8431  1.8478 -3.0581
16356TIP3    H270560   4.490   4.676   9.969 -1.5610  0.2296  1.1869
16357TIP3   OH270561   3.782   0.074   2.974 -0.7461  0.3672 -0.3168
16357TIP3    H170562   3.773   0.029   3.058  0.0571 -0.9784 -0.9210
16357TIP3    H270563   3.722   0.148   2.980 -0.1366  0.7729  1.7409
16358TIP3   OH270564   2.759   5.746   6.006  0.7062 -0.1933 -0.1620
16358TIP3    H170565   2.837   5.758   6.060  0.8406 -0.6761 -0.2398
16358TIP3    H270566   2.718   5.667   6.041 -0.2017  0.5153  0.4111
16359TIP3   OH270567   2.142   5.729  12.417 -0.1670 -0.2232 -0.3952
16359TIP3    H170568   2.133   5.704  12.325 -0.4139 -1.3469 -0.0681
16359TIP3    H270569   2.125   5.824  12.417  0.8318 -0.0150 -1.6460
16360TIP3   OH270570   5.687   2.670  16.282  0.3881  0.0236  0.6793
16360TIP3    H170571   5.713   2.613  16.355 -0.9103 -2.0144 -0.3254
16360TIP3    H270572   5.596   2.645  16.265  0.5321  0.7348 -1.3571
16361TIP3   OH270573   5.597   5.575   1.937  0.1182 -0.1518  0.7555
16361TIP3    H170574   5.653   5.629   1.881 -0.3175 -1.5484 -1.1181
16361TIP3    H270575   5.515   5.624   1.944  0.0909 -0.0778 -0.0543
16362TIP3   OH270576   6.401   3.736  16.278 -0.2329  0.9932  0.4559
16362TIP3    H170577   6.410   3.718  16.372  1.3007  0.4410  0.2382
16362TIP3    H270578   6.409   3.651  16.236  2.4835  1.5168 -0.3240
16363TIP3   OH270579   1.502   6.208  15.647 -0.0784 -0.7117 -0.0922
16363TIP3    H170580   1.529   6.143  15.712  1.4588 -1.3915 -1.3259
16363TIP3    H270581   1.439   6.161  15.591  0.0286 -0.7198 -0.2053
16364TIP3   OH270582   3.845   2.823  13.231 -0.1715 -0.3707 -0.2837
16364TIP3    H170583   3.865   2.808  13.138  1.4077 -1.1782  0.1674
16364TIP3    H270584   3.882   2.909  13.250  0.7416 -0.8087 -0.0605
16365TIP3   OH270585   4.821   0.385  12.458 -0.1191 -0.5850 -0.4020
16365TIP3    H170586   4.890   0.331  12.419  0.2748 -0.2792 -0.1331
16365TIP3    H270587   4.804   0.452  12.392 -0.7394 -1.1351 -0.8145
16366TIP3   OH270588   0.707   0.522   4.935  0.2397  0.1743  0.5119
16366TIP3    H170589   0.739   0.612   4.922 -1.0607  0.4121 -1.5008
16366TIP3    H270590   0.612   0.531   4.941 -0.1087 -1.1817 -1.7075
16367TIP3   OH270591   2.664   1.889   3.444 -0.4503 -0.1135  0.5660
16367TIP3    H170592   2.616   1.970   3.458 -1.4765 -0.6369  0.2498
16367TIP3    H270593   2.656   1.873   3.350 -0.7748 -0.8813  0.7167
16368TIP3   OH270594   1.612   2.635   0.239  0.5132  0.1117 -0.3780
16368TIP3    H170595   1.629   2.596   0.325 -1.4911  0.4854  0.2411
16368TIP3    H270596   1.693   2.681   0.217  2.0397 -2.1608  0.0579
16369TIP3   OH270597   1.618   2.670   3.946  0.5768  0.0155 -0.4557
16369TIP3    H170598   1.526   2.675   3.970  0.3540  0.0035 -1.2793
16369TIP3    H270599   1.663   2.649   4.027 -0.2888 -1.2645 -0.2832
16370TIP3   OH270600   1.001   2.966  15.549  0.0843  0.2533  0.4608
16370TIP3    H170601   1.055   2.939  15.623  0.6383  1.1180  0.3806
16370TIP3    H270602   0.935   3.024  15.588  0.6091  1.0175  0.2361
16371TIP3   OH270603   4.900   6.190   4.439  0.8599 -0.3685  0.4435
16371TIP3    H170604   4.856   6.145   4.511  1.9612 -2.2900 -0.0283
16371TIP3    H270605   4.926   6.120   4.379  3.1693  0.8234 -0.0546
16372TIP3   OH270606   4.407   4.280   2.906 -0.0997 -0.4832  0.0932
16372TIP3    H170607   4.325   4.235   2.889 -0.8158  0.1049  1.7561
16372TIP3    H270608   4.396   4.319   2.993  2.1017 -0.7585  0.5700
16373TIP3   OH270609   0.762   5.631  12.846  0.1555 -0.0996  0.0582
16373TIP3    H170610   0.841   5.669  12.808 -0.2337  2.2413  1.3711
16373TIP3    H270611   0.715   5.593  12.772  0.6169  1.9990 -1.3990
16374TIP3   OH270612   0.149   4.207   1.299  0.0349 -0.1203  0.0761
16374TIP3    H170613   0.154   4.283   1.241 -1.7560  1.8252  2.2631
16374TIP3    H270614   0.228   4.157   1.279  1.0885  2.0696 -1.7670
16375TIP3   OH270615   4.221   6.093  13.487 -0.2125 -0.1096  0.3343
16375TIP3    H170616   4.218   6.183  13.518 -1.6283  1.0268 -2.7336
16375TIP3    H270617   4.299   6.090  13.430  0.2719 -1.0815  1.0152
16376TIP3   OH270618   3.302   5.344  12.705 -0.3923  0.3062 -0.3609
16376TIP3    H170619   3.391   5.312  12.721 -0.3272  0.2606 -0.7979
16376TIP3    H270620   3.254   5.268  12.674 -0.8067  0.1389  0.6594
16377TIP3   OH270621   1.453   0.449   0.273  1.0644  0.2450 -0.2243
16377TIP3    H170622   1.548   0.458   0.261  1.0265 -0.1655 -0.8745
16377TIP3    H270623   1.431   0.368   0.227  0.7199 -0.8307  1.7468
16378TIP3   OH270624   5.952   2.735  12.189 -0.2250  0.4268 -0.8076
16378TIP3    H170625   5.894   2.804  12.222  0.4692  0.2043  0.9994
16378TIP3    H270626   5.899   2.655  12.192  0.1452  0.2055  0.9341
16379TIP3   OH270627   2.579   4.308   3.375  0.3147 -0.1517  0.2316
16379TIP3    H170628   2.561   4.228   3.325  0.0902  0.4265 -0.6445
16379TIP3    H270629   2.650   4.350   3.326  0.7761 -0.0526  0.9699
16380TIP3   OH270630   2.066   1.318  16.005  0.6488  0.0908 -0.1522
16380TIP3    H170631   1.979   1.355  16.018  0.5683 -0.1561  0.0079
16380TIP3    H270632   2.060   1.273  15.920  0.6857  0.2631 -0.2470
16381TIP3   OH270633   2.386   5.369   2.772  0.2575 -0.0620  0.3813
16381TIP3    H170634   2.405   5.292   2.826 -0.9839  0.2847  1.3676
16381TIP3    H270635   2.403   5.443   2.829 -1.0524  0.3108  0.3235
16382TIP3   OH270636   3.800   1.105  15.158  0.4286 -0.2499  0.5553
16382TIP3    H170637   3.848   1.082  15.078  1.0073 -1.2743  1.1702
16382TIP3    H270638   3.716   1.137  15.127  0.9111  0.0612 -0.4949
16383TIP3   OH270639   5.547   5.848  10.435 -0.0715  0.0956  0.0726
16383TIP3    H170640   5.549   5.938  10.402 -2.0415 -0.4124 -1.6228
16383TIP3    H270641   5.578   5.795  10.362 -0.4843 -0.7250  0.4798
16384TIP3   OH270642   4.756   0.131  16.816 -0.3727 -0.6533  0.3143
16384TIP3    H170643   4.671   0.171  16.836 -0.9267 -1.5682 -0.1639
16384TIP3    H270644   4.762   0.056  16.874  0.7751  0.2127  1.3752
16385TIP3   OH270645   3.866   3.650  10.502  0.2839  0.4231  0.6727
16385TIP3    H170646   3.803   3.721  10.490  1.2205  1.1081 -0.4721
16385TIP3    H270647   3.943   3.678  10.452  0.5015 -1.6334 -0.2269
16386TIP3   OH270648   2.055   6.223   2.671 -0.1498  0.7729 -0.2457
16386TIP3    H170649   2.075   6.303   2.719  0.1166  0.5442  0.0308
16386TIP3    H270650   2.105   6.155   2.717 -0.1363  0.5005 -0.6607
16387TIP3   OH270651   0.784   6.049  14.562 -0.6379 -0.1583 -0.2166
16387TIP3    H170652   0.759   5.958  14.580 -1.8014  0.0680 -0.6043
16387TIP3    H270653   0.768   6.061  14.469  0.7760  0.0791 -0.4596
16388TIP3   OH270654   6.200   3.871   2.872  0.3383 -0.4218 -1.3308
16388TIP3    H170655   6.181   3.778   2.867 -0.8511 -0.1741 -1.8132
16388TIP3    H270656   6.256   3.880   2.949 -2.5846 -1.0911  1.0504
16389TIP3   OH270657   0.154   0.965  10.739  0.2694 -0.6891 -0.1733
16389TIP3    H170658   0.149   0.901  10.668  3.0648 -0.3417 -0.7994
16389TIP3    H270659   0.194   1.042  10.699 -2.1941  1.2518  0.7734
16390TIP3   OH270660   5.541   2.351   3.457 -0.2444  0.1524 -0.0347
16390TIP3    H170661   5.575   2.311   3.537 -1.0955 -0.0979  0.2130
16390TIP3    H270662   5.576   2.297   3.386 -0.6113 -0.4725  0.2508
16391TIP3   OH270663   4.651   3.991  12.758 -0.0408 -0.2816 -0.5214
16391TIP3    H170664   4.734   4.039  12.762 -0.5717  0.7726 -1.6801
16391TIP3    H270665   4.626   3.978  12.849  0.6840  0.6334 -0.1806
16392TIP3   OH270666   2.523   4.444   1.399  0.0336 -0.4266 -0.3877
16392TIP3    H170667   2.451   4.434   1.336 -1.2935 -1.6816  1.2542
16392TIP3    H270668   2.507   4.530   1.439 -0.8110 -0.8772  0.2615
16393TIP3   OH270669   1.498   4.218  11.653 -0.0373  0.2532 -0.4097
16393TIP3    H170670   1.425   4.163  11.681  1.1175 -0.5182  1.2472
16393TIP3    H270671   1.569   4.156  11.633  1.2829  1.0677  1.4720
16394TIP3   OH270672   3.067   0.418  10.566  0.0929  0.6075 -0.2964
16394TIP3    H170673   3.033   0.397  10.479 -0.6546  0.3692  0.0435
16394TIP3    H270674   3.159   0.440  10.551  1.3280 -3.8864 -0.5795
16395TIP3   OH270675   5.037   0.297   3.933  0.2387 -0.3496 -0.5461
16395TIP3    H170676   5.090   0.272   4.008 -0.0842  0.2403 -0.1080
16395TIP3    H270677   5.099   0.333   3.870  0.6937 -2.1077 -1.1461
16396TIP3   OH270678   4.392   0.516   2.417  0.6053  0.1596 -0.1215
16396TIP3    H170679   4.420   0.608   2.422 -2.6544  1.3999 -1.7110
16396TIP3    H270680   4.301   0.521   2.389 -0.2403 -3.5597  1.4407
16397TIP3   OH270681   5.613   5.013   4.879  0.0787 -0.0939  0.2523
16397TIP3    H170682   5.551   5.058   4.936  0.9439  1.0760  0.3052
16397TIP3    H270683   5.663   4.957   4.937 -0.1609 -0.1712  0.3835
16398TIP3   OH270684   2.033   4.440  11.914 -0.1040  0.0945  0.9093
16398TIP3    H170685   2.122   4.441  11.880 -0.6549 -0.4579 -0.6496
16398TIP3    H270686   2.009   4.532  11.921 -0.0517  0.2416 -0.5210
16399TIP3   OH270687   1.370   5.106   0.027 -0.1534 -0.0534  0.7977
16399TIP3    H170688   1.364   5.057  -0.055  0.1738  1.6821 -0.3350
16399TIP3    H270689   1.368   5.040   0.096  0.1885 -1.6094 -0.6368
16400TIP3   OH270690   5.678   3.023   0.759  0.1966 -0.1465  0.6760
16400TIP3    H170691   5.599   3.077   0.759  0.3456  0.0894 -0.2421
16400TIP3    H270692   5.737   3.066   0.696 -0.1261 -1.9896 -0.9800
16401TIP3   OH270693   0.678   4.038   1.229 -0.6108  0.1993  0.2037
16401TIP3    H170694   0.746   4.087   1.274  0.6905 -1.4391  0.1363
16401TIP3    H270695   0.710   4.029   1.139 -1.0196 -0.3796  0.1093
16402TIP3   OH270696   6.213   0.365   1.972  0.0226 -0.2796 -0.0631
16402TIP3    H170697   6.190   0.273   1.965  1.2982 -0.5203 -1.7657
16402TIP3    H270698   6.153   0.400   2.039 -1.5590 -1.9669 -0.5194
16403TIP3   OH270699   4.212   3.122  10.344  0.3693  0.1966  0.4752
16403TIP3    H170700   4.184   3.035  10.376 -1.3866 -0.1754 -1.8229
16403TIP3    H270701   4.220   3.175  10.424 -1.8973 -1.1641  1.7137
16404TIP3   OH270702   2.971   4.553   3.131  0.0584 -0.0124 -0.1636
16404TIP3    H170703   3.015   4.637   3.142  1.0990 -0.3992 -1.1343
16404TIP3    H270704   2.972   4.538   3.036  1.2768 -1.7966  0.0786
16405TIP3   OH270705   6.750   6.085  13.322 -0.5823 -0.7818 -0.3405
16405TIP3    H170706   6.799   6.072  13.403 -2.3191  1.3290  1.1656
16405TIP3    H270707   6.659   6.094  13.349 -1.1622  0.4914 -2.4555
16406TIP3   OH270708   1.128   5.922   2.793 -0.1458 -0.5071 -0.0254
16406TIP3    H170709   1.138   5.957   2.882  0.4601 -1.4131  0.2810
16406TIP3    H270710   1.208   5.949   2.747  0.3319 -1.4785  0.2184
16407TIP3   OH270711   6.143   5.942  15.631 -0.0765  0.2155 -0.8394
16407TIP3    H170712   6.092   6.022  15.618 -0.8658  0.2900  2.0919
16407TIP3    H270713   6.093   5.875  15.584 -1.5017  0.7808 -0.1942
16408TIP3   OH270714   4.200   1.483  13.610 -0.3013  0.2542 -0.3535
16408TIP3    H170715   4.108   1.495  13.586 -0.4669 -1.0493 -0.4518
16408TIP3    H270716   4.246   1.549  13.559 -1.1859  1.0094 -0.2139
16409TIP3   OH270717   1.951   1.130  15.258 -0.3835  0.4085  0.1761
16409TIP3    H170718   2.003   1.049  15.260  1.1064  1.1992 -2.0137
16409TIP3    H270719   1.913   1.136  15.345  3.3390 -0.1839  2.0680
16410TIP3   OH270720   3.845   3.539  15.192  0.0800 -0.6104  0.4558
16410TIP3    H170721   3.768   3.596  15.201 -0.6036 -1.5407  0.6259
16410TIP3    H270722   3.913   3.596  15.155 -0.5271  0.3589  0.8023
16411TIP3   OH270723   5.462   5.810  10.824 -0.1672  0.8693  0.0508
16411TIP3    H170724   5.499   5.775  10.905 -1.4009  1.5578  0.9399
16411TIP3    H270725   5.537   5.818  10.765  0.4615 -1.4034  0.4609
16412TIP3   OH270726   6.475   0.718  15.333 -0.5409  0.4244  0.3943
16412TIP3    H170727   6.459   0.795  15.278 -1.0403  0.6973  0.9132
16412TIP3    H270728   6.390   0.698  15.371 -0.3686 -0.2625  0.4258
16413TIP3   OH270729   3.066   5.528   4.131  0.3087 -0.2823 -0.1874
16413TIP3    H170730   3.068   5.619   4.162 -0.2697  0.1088 -1.2494
16413TIP3    H270731   3.134   5.484   4.183  1.1014  0.9194 -0.1503
16414TIP3   OH270732   5.901   0.939  12.455  0.1546 -0.3331  0.3633
16414TIP3    H170733   5.819   0.900  12.484  0.7499 -0.8403  1.4363
16414TIP3    H270734   5.964   0.915  12.523  1.5312 -1.2419 -1.1527
16415TIP3   OH270735   3.713   4.900   4.696 -0.0643 -0.1834 -0.1014
16415TIP3    H170736   3.723   4.910   4.791  0.8547 -0.5831 -0.1483
16415TIP3    H270737   3.734   4.985   4.660  0.1507 -0.1873  0.0147
16416TIP3   OH270738   4.499   5.418   3.181  0.6918 -0.3597 -0.2658
16416TIP3    H170739   4.427   5.469   3.218  1.0623  0.2446 -0.3603
16416TIP3    H270740   4.522   5.464   3.100  4.5812  2.6692  2.1342
16417TIP3   OH270741   3.876   3.908  12.643  0.1490  0.1650  0.5861
16417TIP3    H170742   3.784   3.932  12.630  0.5726  0.3533 -2.7420
16417TIP3    H270743   3.887   3.828  12.593  1.1351 -1.7686  3.6322
16418TIP3   OH270744   0.535   5.933   1.185 -0.0731  0.7811 -0.2256
16418TIP3    H170745   0.496   5.970   1.264  1.1813  1.7344 -0.0322
16418TIP3    H270746   0.510   5.993   1.115  1.0929  1.4598 -0.0824
16419TIP3   OH270747   2.855   2.094  13.473  0.1562  0.6897  0.2717
16419TIP3    H170748   2.769   2.060  13.451  0.4870 -0.1151  0.2003
16419TIP3    H270749   2.841   2.146  13.553 -0.2818  0.0173  0.6398
16420TIP3   OH270750   1.607   0.348  12.653  0.3239 -0.0418 -0.2559
16420TIP3    H170751   1.622   0.403  12.576  2.5529  0.2023  0.2664
16420TIP3    H270752   1.657   0.269  12.635 -0.7013 -0.7954  0.1498
16421TIP3   OH270753   1.566   0.137   1.508  0.7142  0.0899  0.4797
16421TIP3    H170754   1.479   0.170   1.484  1.6514  0.5845 -2.7260
16421TIP3    H270755   1.551   0.046   1.531 -0.8006  0.4905  1.2440
16422TIP3   OH270756   5.547   5.509  16.567 -0.0715 -0.8095  0.0849
16422TIP3    H170757   5.523   5.541  16.654  1.5605 -2.5103  1.2372
16422TIP3    H270758   5.532   5.415  16.572  0.3887 -0.9791 -1.3860
16423TIP3   OH270759   4.611   1.718  12.463  0.5375 -0.4024  0.2379
16423TIP3    H170760   4.635   1.709  12.555 -0.2409 -0.3174  0.4559
16423TIP3    H270761   4.695   1.719  12.416  0.9759  0.2833  1.0101
16424TIP3   OH270762   4.753   5.417   0.216  0.4383  0.2528 -0.3740
16424TIP3    H170763   4.694   5.455   0.151  0.2127  0.3733 -0.1047
16424TIP3    H270764   4.725   5.325   0.223 -1.4214  0.8780  1.5719
16425TIP3   OH270765   3.340   3.497   4.216  0.1167 -0.7377  0.6826
16425TIP3    H170766   3.251   3.520   4.189  0.4514 -0.6642 -0.3678
16425TIP3    H270767   3.329   3.463   4.305 -1.3155 -2.9216 -0.2348
16426TIP3   OH270768   6.698   1.159  15.784 -0.7644  0.1469  0.1087
16426TIP3    H170769   6.710   1.147  15.878  0.2678  3.9943  0.6245
16426TIP3    H270770   6.607   1.133  15.768 -0.9629 -0.5993  2.1140
16427TIP3   OH270771   6.439   4.651  12.047 -0.0264  0.5388  0.3796
16427TIP3    H170772   6.471   4.615  11.964 -0.1278  0.6876  0.2745
16427TIP3    H270773   6.375   4.587  12.078  0.3527  0.2560  0.5761
16428TIP3   OH270774   3.145   2.502   4.699 -0.2082 -0.2560  0.1231
16428TIP3    H170775   3.233   2.528   4.673  0.1406  0.0045  1.5144
16428TIP3    H270776   3.128   2.422   4.649  1.2480 -0.9276  0.6671
16429TIP3   OH270777   4.260   0.064  15.794  0.2624  0.0230  0.2431
16429TIP3    H170778   4.206   0.051  15.716 -0.0683 -2.5433  0.8123
16429TIP3    H270779   4.345   0.026  15.771  0.2481 -0.4926  1.0070
16430TIP3   OH270780   2.542   1.236   3.028  0.3982 -0.7173 -0.1655
16430TIP3    H170781   2.500   1.319   3.003  1.1083 -0.4190 -0.3913
16430TIP3    H270782   2.573   1.252   3.117 -1.6586 -1.5983  0.7763
16431TIP3   OH270783   1.071   5.218   2.298  0.1210  0.1023 -0.2084
16431TIP3    H170784   0.982   5.203   2.268 -0.1191  0.2847  0.4084
16431TIP3    H270785   1.126   5.180   2.229 -0.4374 -1.3897  0.1526
16432TIP3   OH270786   4.449   2.052  14.714 -0.3394 -0.0907  0.2709
16432TIP3    H170787   4.467   1.965  14.748 -0.2933 -0.6208 -1.0568
16432TIP3    H270788   4.451   2.042  14.619 -3.0812  0.7343  0.0240
16433TIP3   OH270789   6.323   1.772  15.825  0.0970 -0.3386 -0.0188
16433TIP3    H170790   6.268   1.696  15.842 -0.8460  0.6572  1.7145
16433TIP3    H270791   6.268   1.848  15.846  1.4833  0.7682 -0.1625
16434TIP3   OH270792   2.712   0.609   0.542  0.1968  0.0614  0.3175
16434TIP3    H170793   2.726   0.681   0.481  0.7328 -1.5632 -1.5599
16434TIP3    H270794   2.632   0.566   0.511  0.9613 -1.3159  0.1517
16435TIP3   OH270795   2.449   2.830   5.315 -0.3669 -0.0639 -0.5173
16435TIP3    H170796   2.507   2.906   5.308 -0.8529  0.3180 -0.4536
16435TIP3    H270797   2.379   2.859   5.373  1.5509 -1.8843  3.0236
16436TIP3   OH270798   5.117   6.517  11.034  0.3856  0.1460  0.7650
16436TIP3    H170799   5.205   6.513  10.997  0.0395  1.9787 -0.4144
16436TIP3    H270800   5.128   6.558  11.120  0.8572 -1.3416  1.4442
16437TIP3   OH270801   1.517   3.834  12.094  0.0945 -0.2082  0.2710
16437TIP3    H170802   1.609   3.859  12.088 -0.3908  1.6557 -0.0286
16437TIP3    H270803   1.487   3.830  12.003 -0.6500  1.4601  0.4088
16438TIP3   OH270804   5.957   2.489   3.493  0.5123  0.0191  0.3661
16438TIP3    H170805   5.929   2.580   3.505  0.4011 -0.1139  1.1315
16438TIP3    H270806   5.885   2.448   3.446  0.0802  0.0546  0.9956
16439TIP3   OH270807   5.153   6.861   3.906  0.4328 -0.4275 -0.0299
16439TIP3    H170808   5.156   6.839   3.999 -0.0144 -3.3945 -0.6182
16439TIP3    H270809   5.217   6.932   3.896  1.6946 -1.1501  2.2600
16440TIP3   OH270810   5.697   5.114   1.202 -0.7215 -0.1042  0.0892
16440TIP3    H170811   5.602   5.114   1.198 -0.8225  2.7195  0.4075
16440TIP3    H270812   5.722   5.206   1.192  1.9583 -0.6833  0.5266
16441TIP3   OH270813   0.538   0.061   5.878 -0.2997  0.5476 -0.0827
16441TIP3    H170814   0.614   0.112   5.905  1.1249 -1.3579 -0.3696
16441TIP3    H270815   0.495   0.036   5.960 -0.1402  0.9087  0.1099
16442TIP3   OH270816   2.904   6.541   2.194 -0.3414  0.0750  0.9517
16442TIP3    H170817   2.858   6.479   2.251 -1.2666  0.3023  0.4631
16442TIP3    H270818   2.847   6.618   2.191 -0.2880  0.0839 -0.2435
16443TIP3   OH270819   4.576   2.602   5.694  0.6378 -0.2784  0.4829
16443TIP3    H170820   4.529   2.622   5.775 -0.5146 -0.2015 -0.1820
16443TIP3    H270821   4.546   2.669   5.632  1.6994 -0.1777  0.0593
16444TIP3   OH270822   5.174   5.552   0.846 -0.2097  0.0591  0.2104
16444TIP3    H170823   5.230   5.513   0.778 -1.6850  0.7015 -1.4755
16444TIP3    H270824   5.235   5.586   0.911  1.2927 -0.4438 -0.8723
16445TIP3   OH270825   4.280   4.442   4.946 -0.0375  0.3688  0.1729
16445TIP3    H170826   4.311   4.426   4.857  0.5696  2.2787 -0.0024
16445TIP3    H270827   4.223   4.518   4.938 -2.3731 -1.1816  0.9930
16446TIP3   OH270828   4.827   1.852   4.579  0.2976  0.2499  0.3614
16446TIP3    H170829   4.759   1.889   4.523  0.8543 -0.4893 -0.8407
16446TIP3    H270830   4.850   1.769   4.537  1.3584  0.0987  1.1966
16447TIP3   OH270831   5.703   1.912  14.678  0.7362 -0.0096  0.1009
16447TIP3    H170832   5.638   1.905  14.608  1.1210 -0.7682 -0.1970
16447TIP3    H270833   5.741   1.824  14.684  0.2751 -0.1345  1.6916
16448TIP3   OH270834   3.616   0.637   0.902 -0.1961  0.5453  0.3055
16448TIP3    H170835   3.704   0.621   0.935  0.5548  3.5490  0.0507
16448TIP3    H270836   3.612   0.590   0.819  1.4369  0.9425 -0.0218
16449TIP3   OH270837   4.906   3.829  11.894 -0.0269  0.6049 -0.1972
16449TIP3    H170838   4.964   3.787  11.958  0.0881  0.5819 -0.3180
16449TIP3    H270839   4.861   3.897  11.945 -0.5505  0.0348  0.1082
16450TIP3   OH270840   2.557   2.822  12.434  0.1409 -0.6471 -0.0024
16450TIP3    H170841   2.629   2.764  12.410 -0.5900 -0.9346 -1.6038
16450TIP3    H270842   2.478   2.772  12.413 -0.5136  0.4004 -0.0835
16451TIP3   OH270843   4.970   5.379  15.893  0.0836 -0.7621 -0.1304
16451TIP3    H170844   4.885   5.350  15.861 -0.5789  1.2165 -0.3171
16451TIP3    H270845   4.954   5.402  15.985  0.4690 -0.5862 -0.1072
16452TIP3   OH270846   2.949   4.029   4.329 -0.0904  0.2271 -0.0647
16452TIP3    H170847   3.035   3.992   4.349 -0.8977 -0.6155  2.2752
16452TIP3    H270848   2.909   3.966   4.269 -0.3782 -1.3736  1.6912
16453TIP3   OH270849   5.732   4.989  12.893  0.8878 -0.6644 -0.5320
16453TIP3    H170850   5.771   5.065  12.936 -1.0700  0.5813 -0.8395
16453TIP3    H270851   5.638   5.007  12.892  0.2724 -3.3644 -0.1015
16454TIP3   OH270852   0.120   5.657   5.888 -0.4252  0.2277  0.2251
16454TIP3    H170853   0.127   5.571   5.930  0.2588 -0.4204 -1.1401
16454TIP3    H270854   0.026   5.670   5.875 -0.5343 -0.3732  0.3680
16455TIP3   OH270855   4.742   4.805  16.135  0.0406 -0.1182 -0.3405
16455TIP3    H170856   4.783   4.763  16.211  1.0236 -0.7022 -1.1833
16455TIP3    H270857   4.693   4.734  16.093  0.3420 -0.0262 -0.8391
16456TIP3   OH270858   4.828   0.296  13.192  0.1170  0.0383 -0.0729
16456TIP3    H170859   4.847   0.374  13.243 -1.6637 -0.2941  1.1850
16456TIP3    H270860   4.801   0.231  13.257 -2.5999 -0.2957 -1.4021
16457TIP3   OH270861   3.391   0.670  12.936  0.1352 -0.0216 -0.8455
16457TIP3    H170862   3.457   0.715  12.884  0.6679  0.0309 -0.1349
16457TIP3    H270863   3.359   0.737  12.997 -1.2297  0.2084 -1.7638
16458TIP3   OH270864   3.303   4.184   4.081  0.4311 -0.4313 -0.3498
16458TIP3    H170865   3.245   4.109   4.096  0.0661 -0.0209  0.3207
16458TIP3    H270866   3.269   4.225   4.002 -0.1283 -0.2556 -0.0215
16459TIP3   OH270867   0.862   0.950   2.842 -0.2161  0.1934 -0.3985
16459TIP3    H170868   0.778   0.939   2.798 -1.0883 -1.0791  1.4331
16459TIP3    H270869   0.865   1.042   2.868 -0.4170  0.5601 -1.6150
16460TIP3   OH270870   2.873   3.245   3.279 -0.4174 -0.7246  0.0426
16460TIP3    H170871   2.839   3.216   3.194  0.8377  0.6293 -0.9637
16460TIP3    H270872   2.959   3.202   3.286  0.2667  0.5394 -0.2292
16461TIP3   OH270873   1.224   5.407  13.899  0.6473  0.0005 -0.2681
16461TIP3    H170874   1.166   5.330  13.898  0.6992 -0.0466  0.1582
16461TIP3    H270875   1.226   5.436  13.808 -0.7309  0.5159 -0.1550
16462TIP3   OH270876   4.192   6.272  14.837  0.7521  0.3043  0.2060
16462TIP3    H170877   4.230   6.348  14.881 -1.2438  1.7158 -0.3926
16462TIP3    H270878   4.246   6.261  14.758  0.6222  1.5788 -0.0833
16463TIP3   OH270879   1.299   3.671   2.085 -0.1937 -0.1368 -0.4831
16463TIP3    H170880   1.224   3.662   2.143  0.2101  1.5544  0.3490
16463TIP3    H270881   1.268   3.728   2.014  0.0110 -0.2712 -0.6844
16464TIP3   OH270882   2.734   2.499   0.595 -0.0103 -0.1325  0.1868
16464TIP3    H170883   2.675   2.574   0.604 -0.5737 -0.7158  1.7236
16464TIP3    H270884   2.819   2.537   0.575  0.1297  1.0937  2.7574
16465TIP3   OH270885   0.836   0.346  15.046  0.9589  0.4845 -0.0849
16465TIP3    H170886   0.801   0.416  15.102  1.5735  0.9351 -0.2588
16465TIP3    H270887   0.763   0.286  15.036  0.5811  0.8261  0.5150
16466TIP3   OH270888   1.046   1.102   2.210  0.2127 -0.8078  0.6559
16466TIP3    H170889   1.032   1.193   2.234 -0.8044 -1.1342  1.3379
16466TIP3    H270890   0.962   1.072   2.177  0.8179 -1.2038 -0.6181
16467TIP3   OH270891   2.302   1.331   5.142  0.2424  0.4058  0.3268
16467TIP3    H170892   2.379   1.305   5.092  0.7963  0.6792  1.0196
16467TIP3    H270893   2.286   1.259   5.203  0.4459  0.6963  0.7350
16468TIP3   OH270894   0.004   4.410   2.376 -0.6590  0.2988  0.2920
16468TIP3    H170895  -0.074   4.392   2.324 -0.1132 -0.0947 -0.4084
16468TIP3    H270896   0.050   4.479   2.327 -0.9027  1.0213  1.0585
16469TIP3   OH270897   4.055   0.557  13.815  0.0460  0.3815 -0.1388
16469TIP3    H170898   4.078   0.645  13.843 -0.5878  0.4836  0.0744
16469TIP3    H270899   3.972   0.568  13.768 -0.8262 -0.2875  1.1799
16470TIP3   OH270900   2.134   0.875  11.987 -0.1451 -0.0075 -0.1134
16470TIP3    H170901   2.126   0.883  12.082  0.1458 -0.9947  0.0086
16470TIP3    H270902   2.047   0.848  11.957 -0.1007 -0.2177 -0.0579
16471TIP3   OH270903   2.792   5.142   1.756 -0.3842 -0.3152 -0.8919
16471TIP3    H170904   2.829   5.224   1.724 -0.5030  0.0007 -0.2427
16471TIP3    H270905   2.742   5.107   1.682 -1.1444  0.6901 -0.8668
16472TIP3   OH270906   0.419   2.370  16.152  0.0598  0.8470  0.3455
16472TIP3    H170907   0.364   2.433  16.105  0.1036  0.1019 -0.7339
16472TIP3    H270908   0.386   2.284  16.125  3.2429  0.2521 -2.3842
16473TIP3   OH270909   0.294   2.936   5.080 -0.2908 -0.0835 -0.4261
16473TIP3    H170910   0.273   3.002   5.014 -1.4308 -1.0759 -1.0948
16473TIP3    H270911   0.209   2.902   5.108  0.2731 -2.0446 -0.9049
16474TIP3   OH270912   6.887   3.336  14.140 -0.4185  0.1616  0.1232
16474TIP3    H170913   6.865   3.248  14.169  2.2249 -0.1949  1.4005
16474TIP3    H270914   6.835   3.393  14.197 -1.7110 -0.5516 -0.3168
16475TIP3   OH270915   5.452   3.582  16.259 -0.2515  0.0988 -0.5732
16475TIP3    H170916   5.379   3.615  16.206 -0.6929  0.9635  0.5237
16475TIP3    H270917   5.507   3.659  16.274 -0.7135  0.1368  1.0979
16476TIP3   OH270918   0.741   4.671   1.853 -0.6328  0.0265 -0.2431
16476TIP3    H170919   0.806   4.650   1.786 -1.1456  1.1418 -1.1324
16476TIP3    H270920   0.682   4.596   1.854 -0.0772 -0.4165 -0.3553
16477TIP3   OH270921   1.708   5.742  11.438  0.5358 -0.2142 -0.3604
16477TIP3    H170922   1.682   5.700  11.356  1.3988  0.1750 -0.8439
16477TIP3    H270923   1.749   5.824  11.411  1.1356 -0.2401  0.4427
16478TIP3   OH270924   5.572   1.143   1.975 -0.8866  0.3595 -0.1413
16478TIP3    H170925   5.514   1.217   1.993 -0.8195  0.1200  1.2102
16478TIP3    H270926   5.523   1.066   2.005 -0.6730 -0.0678 -0.8643
16479TIP3   OH270927   6.396   0.605   2.337  0.7645  0.6745  0.2985
16479TIP3    H170928   6.409   0.621   2.430 -0.2011 -1.5346  0.8827
16479TIP3    H270929   6.332   0.671   2.310  0.0377  0.5141  1.5347
16480TIP3   OH270930   6.687   3.100  13.323  0.1636  0.5238  0.1718
16480TIP3    H170931   6.610   3.132  13.276  0.3787  0.5848 -0.1437
16480TIP3    H270932   6.664   3.106  13.415 -0.0358  0.9761  0.0910
16481TIP3   OH270933   3.143   3.321   2.360 -0.0342 -0.0934 -0.3467
16481TIP3    H170934   3.058   3.319   2.405  0.9153 -0.2217  1.5368
16481TIP3    H270935   3.190   3.393   2.402  0.1975  1.1577 -2.5830
16482TIP3   OH270936   1.813   1.688   2.414  0.8739  0.2364  0.0882
16482TIP3    H170937   1.802   1.596   2.388  0.7835 -0.3019  1.8804
16482TIP3    H270938   1.850   1.730   2.337  2.3569 -1.6234 -0.3110
16483TIP3   OH270939   2.335   0.440   1.504 -0.0038  0.2373  0.7814
16483TIP3    H170940   2.306   0.452   1.414 -0.0328  0.7733  0.8619
16483TIP3    H270941   2.420   0.483   1.509  0.1061  0.0071  0.9498
16484TIP3   OH270942   3.671   5.671   4.641  0.3727  0.4869 -0.5908
16484TIP3    H170943   3.656   5.644   4.732 -1.8875  1.5852 -0.5779
16484TIP3    H270944   3.737   5.609   4.609  0.5695 -0.4989  1.5041
16485TIP3   OH270945   5.015   0.106  14.302 -0.2265  0.0803  0.2005
16485TIP3    H170946   5.043   0.021  14.269 -0.4073  0.1314 -0.0912
16485TIP3    H270947   4.976   0.149  14.226  3.7458  2.2115 -0.9051
16486TIP3   OH270948   0.927   5.404   3.445 -0.4632 -0.0113 -1.0129
16486TIP3    H170949   0.993   5.360   3.499 -1.0774  0.1066 -0.1453
16486TIP3    H270950   0.880   5.332   3.403 -1.4103 -0.2065  0.3385
16487TIP3   OH270951   2.076   6.431  14.472 -0.3701 -0.1150 -0.3219
16487TIP3    H170952   2.170   6.447  14.465  0.1631 -2.7416 -0.5861
16487TIP3    H270953   2.044   6.495  14.535  1.5497  0.9708 -0.3859
16488TIP3   OH270954   5.965   3.374  11.993 -0.3637 -0.2946 -0.3644
16488TIP3    H170955   5.921   3.293  12.020 -1.1475  0.1928 -0.1648
16488TIP3    H270956   6.056   3.347  11.978  0.2233 -0.6006  2.9050
16489TIP3   OH270957   2.862   4.785  14.376  0.1774  0.7180 -0.0037
16489TIP3    H170958   2.890   4.759  14.464  3.4238 -1.5262 -1.5010
16489TIP3    H270959   2.837   4.877  14.385 -0.0299  0.4442  3.3158
16490TIP3   OH270960   6.855   5.342   5.994 -0.0432 -0.1732 -0.0261
16490TIP3    H170961   6.831   5.430   6.024  0.4334  0.1619 -0.6068
16490TIP3    H270962   6.943   5.353   5.958 -1.3617 -0.0858 -3.5068
16491TIP3   OH270963   6.193   6.127  13.480  0.8461 -0.1975 -0.1624
16491TIP3    H170964   6.120   6.183  13.505 -0.2864 -1.2441 -0.9961
16491TIP3    H270965   6.236   6.107  13.563 -0.2670 -0.1505  0.4546
16492TIP3   OH270966   1.249   1.175   2.503 -0.0308  0.2299  0.5641
16492TIP3    H170967   1.222   1.098   2.453  0.8111  0.9862 -1.1419
16492TIP3    H270968   1.259   1.143   2.593 -1.2296 -1.2656  0.1978
16493TIP3   OH270969   1.714   5.725   3.117  0.4644 -0.1299 -1.0227
16493TIP3    H170970   1.685   5.660   3.053 -0.7473 -0.3640 -0.2609
16493TIP3    H270971   1.633   5.757   3.157  1.2179 -0.9071  1.2997
16494TIP3   OH270972   0.895   5.500  13.488  0.0716  0.3624  0.0991
16494TIP3    H170973   0.978   5.545  13.473 -1.1401  3.2389  1.3045
16494TIP3    H270974   0.920   5.409  13.507  3.0238  1.3417  1.4165
16495TIP3   OH270975   3.344   2.351   0.778  0.1500  0.1451 -0.0600
16495TIP3    H170976   3.429   2.391   0.795 -0.3201  1.5896 -0.9104
16495TIP3    H270977   3.365   2.265   0.741  1.1899 -0.9884  2.7871
16496TIP3   OH270978   0.974   5.462  11.476 -0.1602 -0.0872  0.2328
16496TIP3    H170979   0.963   5.383  11.528  0.5752  0.1656  0.7877
16496TIP3    H270980   0.896   5.514  11.494 -0.9496 -0.9346 -0.6161
16497TIP3   OH270981   2.571   4.057   3.251 -0.3839 -0.2517 -0.2852
16497TIP3    H170982   2.623   4.055   3.170  0.1877  0.7368  0.0378
16497TIP3    H270983   2.522   3.975   3.250  2.5490 -2.1675  0.3123
16498TIP3   OH270984   1.658   1.870  15.681  0.7633 -0.6726 -0.0010
16498TIP3    H170985   1.650   1.780  15.713  1.2554 -0.1894  1.5669
16498TIP3    H270986   1.573   1.889  15.642  0.8849 -2.0452 -1.0020
16499TIP3   OH270987   1.004   2.042  16.423  0.0198  0.3763 -0.5704
16499TIP3    H170988   0.911   2.046  16.446 -0.4438  2.2707 -2.4332
16499TIP3    H270989   1.037   1.967  16.472 -2.4813 -0.3711  0.1559
16500TIP3   OH270990   5.100   1.465   2.649  0.2121 -0.6785 -0.1517
16500TIP3    H170991   5.047   1.451   2.728  1.0872  1.0301  0.8083
16500TIP3    H270992   5.189   1.476   2.682  0.2660  2.6893 -1.0110
16501TIP3   OH270993   6.597   4.300   2.366 -0.5331 -0.0168 -0.0205
16501TIP3    H170994   6.507   4.287   2.395 -0.8362 -0.6209 -1.1854
16501TIP3    H270995   6.633   4.363   2.428 -0.9111 -1.7711  2.1264
16502TIP3   OH270996   1.028   4.399  13.616 -0.4029  0.1817 -0.1305
16502TIP3    H170997   1.074   4.441  13.544 -0.9798  2.2701  0.6395
16502TIP3    H270998   0.936   4.402  13.590 -0.5912  0.7378  0.5669
16503TIP3   OH270999   0.174   3.640  13.471 -0.2997 -0.0192  0.2921
16503TIP3    H171000   0.178   3.553  13.513  1.3907 -0.6477 -1.0279
16503TIP3    H271001   0.152   3.700  13.542  0.4541 -1.2980  1.6790
16504TIP3   OH271002   4.579   1.343  15.129  0.3286 -0.7562  0.2304
16504TIP3    H171003   4.499   1.328  15.079  0.8605 -2.4053 -0.1722
16504TIP3    H271004   4.571   1.434  15.158 -1.8380 -0.9605  0.4922
16505TIP3   OH271005   5.403   4.735  14.964  0.2895 -0.5079  0.4076
16505TIP3    H171006   5.397   4.797  15.036  0.1458 -0.3748  0.2792
16505TIP3    H271007   5.470   4.771  14.906 -0.7640  0.2539 -0.3773
16506TIP3   OH271008   2.027   0.764   5.202 -0.0314 -0.1034 -0.3959
16506TIP3    H171009   2.098   0.823   5.173 -1.2584  0.7927 -1.7116
16506TIP3    H271010   1.963   0.823   5.242 -0.0431 -0.9142  0.8133
16507TIP3   OH271011   2.540   0.951  13.196  0.2520  0.2498 -0.3842
16507TIP3    H171012   2.576   1.036  13.171 -0.2729  1.1692  1.7225
16507TIP3    H271013   2.483   0.926  13.123  0.6546  1.5537 -1.1802
16508TIP3   OH271014   5.299   3.187   4.964  0.1910 -0.7902 -0.1086
16508TIP3    H171015   5.291   3.281   4.950  2.5957 -0.5636 -0.4179
16508TIP3    H271016   5.389   3.167   4.939  0.1931 -2.9132  1.3345
16509TIP3   OH271017   0.693   6.372  16.223  0.0680 -0.1180  0.3553
16509TIP3    H171018   0.707   6.383  16.317  1.1201  0.9560  0.0898
16509TIP3    H271019   0.731   6.286  16.204 -0.2763 -0.4082  0.9190
16510TIP3   OH271020   0.999   4.331  12.525  0.5532 -0.0821 -0.0453
16510TIP3    H171021   0.974   4.411  12.571  0.8758 -0.7305  1.3139
16510TIP3    H271022   1.094   4.334  12.522  0.6242 -0.8472  0.8808
16511TIP3   OH271023   3.951   3.917   4.886  0.3984 -0.2211  0.5550
16511TIP3    H171024   3.884   3.864   4.929  0.0843 -1.8229 -1.7784
16511TIP3    H271025   4.031   3.865   4.894 -0.2356 -2.1767 -3.2538
16512TIP3   OH271026   0.408   4.272   4.145 -0.2236 -0.0462 -0.3829
16512TIP3    H171027   0.387   4.352   4.193 -1.5879 -0.9005  0.5125
16512TIP3    H271028   0.401   4.297   4.053  0.0960  1.0331 -0.1301
16513TIP3   OH271029   3.120   6.705  10.322 -0.2096  0.0997  0.3343
16513TIP3    H171030   3.103   6.759  10.399  0.4256  0.3330  0.3196
16513TIP3    H271031   3.188   6.753  10.274 -0.3682 -0.2053 -0.2045
16514TIP3   OH271032   0.260   6.611  16.024  0.0865 -0.6309 -0.3624
16514TIP3    H171033   0.352   6.601  16.049 -0.3231 -2.1707  0.6988
16514TIP3    H271034   0.230   6.522  16.008 -1.3766 -0.2000 -0.1404
16515TIP3   OH271035   4.645   6.139  11.917  0.2405 -0.2546  0.0236
16515TIP3    H171036   4.720   6.082  11.901  0.6666  0.6735 -1.4590
16515TIP3    H271037   4.583   6.116  11.847 -1.0753 -1.3063  1.4662
16516TIP3   OH271038   5.910   3.722   3.104 -0.2364  0.4840 -0.6971
16516TIP3    H171039   5.944   3.809   3.083 -0.1850  0.2153 -1.8287
16516TIP3    H271040   5.819   3.736   3.127 -0.1988  0.8530 -0.7803
16517TIP3   OH271041   4.468   0.384  16.346 -0.8600 -0.2203  0.0389
16517TIP3    H171042   4.557   0.416  16.357 -0.7962 -0.7752  1.2959
16517TIP3    H271043   4.412   0.457  16.373 -0.7109 -1.4217  4.2413
16518TIP3   OH271044   1.034   2.364   0.972 -0.2270 -0.1327  0.0924
16518TIP3    H171045   1.089   2.332   0.900 -0.5117  0.0883 -0.2263
16518TIP3    H271046   1.096   2.393   1.039  0.0606  0.7394 -0.5401
16519TIP3   OH271047   2.756   1.726  11.445  0.3745  0.2712  0.0162
16519TIP3    H171048   2.817   1.795  11.470  1.7968 -0.2356 -1.7672
16519TIP3    H271049   2.690   1.769  11.391  0.6827  0.4107 -0.2503
16520TIP3   OH271050   0.070   5.879   2.439  0.0224  0.8209 -0.2786
16520TIP3    H171051   0.161   5.850   2.443 -0.1863  0.2553  0.6543
16520TIP3    H271052   0.042   5.858   2.350  1.1327  2.0676 -0.9491
16521TIP3   OH271053   2.199   0.199   0.713 -0.0601  0.2152 -0.1282
16521TIP3    H171054   2.263   0.138   0.676  2.0483  1.7050  0.8919
16521TIP3    H271055   2.250   0.256   0.770 -2.8099 -0.8168  3.7908
16522TIP3   OH271056   2.638   1.528   2.623  0.0373  0.6229  0.4125
16522TIP3    H171057   2.702   1.457   2.633  0.7030  1.3294  1.3303
16522TIP3    H271058   2.582   1.500   2.550  1.1892 -0.1578 -0.2001
16523TIP3   OH271059   4.227   1.588   2.133  0.0304  0.6744  0.1978
16523TIP3    H171060   4.190   1.630   2.055  1.2213  1.1484 -0.1375
16523TIP3    H271061   4.174   1.509   2.145  0.9343 -0.3840 -2.1934
16524TIP3   OH271062   0.988   5.104   5.816  0.3092  0.1041 -1.0328
16524TIP3    H171063   1.024   5.114   5.904  0.0797  0.1579 -0.9447
16524TIP3    H271064   0.988   5.010   5.800  0.0780  0.0744 -0.8602
16525TIP3   OH271065   3.361   6.455  12.488 -0.3001  0.3326  1.0354
16525TIP3    H171066   3.305   6.486  12.416  0.4473 -1.4715 -0.3947
16525TIP3    H271067   3.346   6.361  12.491  1.3984  0.0619  1.7549
16526TIP3   OH271068   1.312   2.796   4.452  0.0728  0.0335  0.0313
16526TIP3    H171069   1.401   2.807   4.486  0.6797  1.0421 -1.7754
16526TIP3    H271070   1.268   2.879   4.471  1.0121  1.3878 -3.1760
16527TIP3   OH271071   6.230   2.428  12.698 -0.1556  0.3318  0.1030
16527TIP3    H171072   6.270   2.341  12.695  0.5985  0.6741  0.0144
16527TIP3    H271073   6.175   2.426  12.776 -0.1931 -0.2496  0.0615
16528TIP3   OH271074   3.416   0.704  10.770 -0.1886  0.4222  0.3822
16528TIP3    H171075   3.330   0.672  10.795  0.1932 -2.0477 -1.1332
16528TIP3    H271076   3.399   0.762  10.695 -0.5136 -0.9082 -0.6151
16529TIP3   OH271077   0.083   2.047  14.350  0.5387  0.0014  0.1739
16529TIP3    H171078   0.003   2.014  14.309  1.9867 -1.3010 -1.7909
16529TIP3    H271079   0.083   2.008  14.437 -0.3925 -0.9852 -0.2428
16530TIP3   OH271080   3.807   0.299  10.787  0.0151 -0.4635  0.0698
16530TIP3    H171081   3.879   0.335  10.839  0.2576 -2.5670  1.3052
16530TIP3    H271082   3.742   0.369  10.786  0.9763  0.5097  1.2078
16531TIP3   OH271083   5.655   2.916  11.647  0.4733  0.1407  0.0907
16531TIP3    H171084   5.627   3.006  11.629 -0.1205  0.4506  2.3138
16531TIP3    H271085   5.576   2.863  11.640  0.7985 -0.2182 -1.0891
16532TIP3   OH271086   1.917   1.925   3.489  0.1604 -0.4792  0.5792
16532TIP3    H171087   1.976   1.988   3.530  0.7740 -2.1131  2.3524
16532TIP3    H271088   1.830   1.964   3.498  0.5435  0.1850  1.5066
16533TIP3   OH271089   5.728   4.698  11.133  0.0617 -0.1688 -0.3579
16533TIP3    H171090   5.642   4.681  11.170 -0.2771 -0.2129 -1.1420
16533TIP3    H271091   5.752   4.785  11.165 -0.5081  0.0692 -0.5747
16534TIP3   OH271092   6.142   2.791  13.491  0.6370  0.1839  0.2236
16534TIP3    H171093   6.126   2.734  13.416  2.9365 -0.7172  0.3190
16534TIP3    H271094   6.086   2.755  13.560  0.4547 -0.6413 -0.3303
16535TIP3   OH271095   0.812   0.816  13.491 -0.1866  0.2236  0.1474
16535TIP3    H171096   0.721   0.817  13.520 -0.3242  1.1158 -0.2743
16535TIP3    H271097   0.825   0.901  13.449  0.0444 -0.8878 -2.2103
16536TIP3   OH271098   0.971   3.367   4.093 -0.3134  0.4122  0.3614
16536TIP3    H171099   0.882   3.349   4.124 -0.3976  0.7006  0.2865
16536TIP3    H271100   0.960   3.392   4.002 -0.0651 -0.3996  0.1009
16537TIP3   OH271101   4.382   2.045  16.288  0.0910 -0.4772  0.1716
16537TIP3    H171102   4.442   2.007  16.352  1.0575 -1.4850 -1.2932
16537TIP3    H271103   4.329   1.971  16.259  0.3950 -0.2499 -0.9837
16538TIP3   OH271104   1.534   6.545  11.320  0.1900 -0.6744 -1.3063
16538TIP3    H171105   1.599   6.552  11.250  0.4001  1.0710 -0.9648
16538TIP3    H271106   1.462   6.602  11.293  0.8080  1.0235  0.4497
16539TIP3   OH271107   5.513   2.314  11.227  0.3243  0.4304 -0.1999
16539TIP3    H171108   5.545   2.309  11.137 -0.7511  0.2079 -0.5866
16539TIP3    H271109   5.476   2.402  11.235  2.3629  1.2664  0.7335
16540TIP3   OH271110   2.834   3.353  13.363 -0.3214 -0.6118  0.3187
16540TIP3    H171111   2.789   3.339  13.279 -1.3564  1.7286  0.4108
16540TIP3    H271112   2.832   3.448  13.376 -0.3887 -0.9080  3.0987
16541TIP3   OH271113   6.311   3.890  14.186 -0.1253 -0.0729  0.1008
16541TIP3    H171114   6.310   3.960  14.251 -1.8100 -0.3191  0.3941
16541TIP3    H271115   6.271   3.930  14.108 -0.1467 -0.4059 -0.0618
16542TIP3   OH271116   6.173   2.306   2.811  0.3515 -0.2166 -0.2346
16542TIP3    H171117   6.128   2.312   2.727 -0.7457 -1.6713  0.2017
16542TIP3    H271118   6.232   2.230   2.801 -0.1286 -0.6854  0.4481
16543TIP3   OH271119   6.291   4.020   5.030  0.0240  0.1397 -0.0688
16543TIP3    H171120   6.337   4.042   5.111 -0.8720  0.9146  0.2514
16543TIP3    H271121   6.263   3.930   5.043 -1.3687  0.6959  1.1358
16544TIP3   OH271122   0.004   5.297  11.623  0.2393  0.0233  0.5347
16544TIP3    H171123   0.057   5.326  11.548  2.2274 -0.8134  1.5374
16544TIP3    H271124  -0.062   5.366  11.634  1.4271  1.3922 -0.4882
16545TIP3   OH271125   3.179   3.690  15.604 -0.4895  0.0980 -0.5198
16545TIP3    H171126   3.185   3.763  15.665 -0.5721 -0.3175 -0.0164
16545TIP3    H271127   3.187   3.612  15.658  1.9932 -0.2625 -1.2812
16546TIP3   OH271128   1.278   4.043   2.270  0.6603 -0.5114 -0.1952
16546TIP3    H171129   1.368   4.017   2.289  1.1293  0.7861 -0.6063
16546TIP3    H271130   1.237   3.963   2.236  1.2582 -1.4786  1.2512
16547TIP3   OH271131   3.298   0.226   3.250  0.1086  0.3235 -0.0333
16547TIP3    H171132   3.243   0.218   3.172  1.1255 -0.5025 -0.6902
16547TIP3    H271133   3.255   0.170   3.315  1.2111 -2.0322 -1.1857
16548TIP3   OH271134   6.147   6.547  13.346  0.0984  0.4737  0.3407
16548TIP3    H171135   6.237   6.541  13.378  1.4750  0.9999 -2.9886
16548TIP3    H271136   6.139   6.476  13.282 -1.9377  0.3837  0.6150
16549TIP3   OH271137   5.658   0.804  13.801  0.6692 -0.2204  0.2469
16549TIP3    H171138   5.711   0.868  13.754  1.1942  0.2618  1.4529
16549TIP3    H271139   5.568   0.826  13.778  0.8249  1.0992  0.7746
16550TIP3   OH271140   1.879   2.412  10.963 -0.5510 -0.1754 -0.1173
16550TIP3    H171141   1.974   2.417  10.960 -0.5287  1.4580  1.7291
16550TIP3    H271142   1.854   2.377  10.877  1.6527 -0.0313 -0.8670
16551TIP3   OH271143   4.055   5.224   0.295 -0.3992 -0.2492 -0.2551
16551TIP3    H171144   4.007   5.261   0.221 -1.3810  1.7437  1.2743
16551TIP3    H271145   4.129   5.284   0.307  0.8533 -1.6396 -0.7585
16552TIP3   OH271146   4.181   0.753  11.689 -0.1367  0.2782 -0.5121
16552TIP3    H171147   4.226   0.836  11.705  0.9016 -0.6230  1.6929
16552TIP3    H271148   4.247   0.686  11.708 -1.8842 -1.0842  1.2567
16553TIP3   OH271149   3.160   2.891  12.947 -0.3035  0.5635 -0.2455
16553TIP3    H171150   3.113   2.873  13.029  0.3618 -0.2431 -0.0284
16553TIP3    H271151   3.252   2.876  12.968 -0.1999 -0.5601 -1.3692
16554TIP3   OH271152   1.513   2.479  12.459  0.0677 -0.0540 -0.0956
16554TIP3    H171153   1.453   2.528  12.403 -0.9093  0.3509  1.2490
16554TIP3    H271154   1.466   2.470  12.543  2.0599  0.7134  1.1822
16555TIP3   OH271155   5.066   4.103  12.005 -0.6284  0.3015 -0.0334
16555TIP3    H171156   5.090   4.182  12.053 -1.1394 -0.4811  1.6149
16555TIP3    H271157   4.972   4.095  12.018 -0.7007 -0.1993 -0.7973
16556TIP3   OH271158   5.075   1.991  16.773  0.4511 -0.3384  0.0828
16556TIP3    H171159   4.994   2.009  16.822  1.5016 -0.3180  1.8876
16556TIP3    H271160   5.068   1.899  16.748 -0.6561 -0.0237 -0.8670
16557TIP3   OH271161   1.194   6.177  10.265 -0.6327  0.0774 -0.2449
16557TIP3    H171162   1.262   6.117  10.234 -2.1706 -1.0523 -1.5632
16557TIP3    H271163   1.168   6.226  10.187 -0.3234  1.5530  0.5513
16558TIP3   OH271164   2.276   3.211   0.654  0.0230  0.0754 -0.8662
16558TIP3    H171165   2.209   3.246   0.596  0.2076  2.7583  0.3697
16558TIP3    H271166   2.339   3.169   0.596 -0.5349  1.3690 -2.4698
16559TIP3   OH271167   4.345   0.446   4.479 -0.0748 -0.0761 -0.4501
16559TIP3    H171168   4.360   0.370   4.423 -0.2557  0.9792 -2.0153
16559TIP3    H271169   4.361   0.415   4.568  0.4646 -1.7678 -1.1043
16560TIP3   OH271170   6.686   6.424  16.205 -0.4570 -0.4111 -0.0685
16560TIP3    H171171   6.766   6.384  16.238  1.0127  0.8627 -1.8584
16560TIP3    H271172   6.630   6.434  16.282  1.4087 -0.6569  1.3786
16561TIP3   OH271173   5.612   4.612  15.246 -0.2116 -0.0227 -0.0908
16561TIP3    H171174   5.589   4.704  15.252  0.5505  0.2749 -1.3200
16561TIP3    H271175   5.591   4.576  15.332  0.1427  1.4475  0.6464
16562TIP3   OH271176   6.038   4.523  14.603 -0.1957 -0.0026 -0.0227
16562TIP3    H171177   6.105   4.590  14.591  2.7130 -2.4689  1.1940
16562TIP3    H271178   6.011   4.499  14.514  2.2264 -0.4526 -0.7010
16563TIP3   OH271179   3.733   2.818   0.551  0.2429 -0.1281 -0.2911
16563TIP3    H171180   3.672   2.824   0.625  1.2770 -0.1327  0.5912
16563TIP3    H271181   3.678   2.830   0.474 -0.7676  0.6313  0.5106
16564TIP3   OH271182   5.365   4.991  13.649 -0.0533  0.1971 -0.3471
16564TIP3    H171183   5.306   5.065  13.638 -0.3443  0.0037 -0.0909
16564TIP3    H271184   5.375   4.983  13.744 -0.0303 -0.0998 -0.3763
16565TIP3   OH271185   5.969   0.349   2.119 -0.3268 -0.1487  0.0131
16565TIP3    H171186   5.878   0.368   2.095 -0.2564  0.6745  0.3689
16565TIP3    H271187   5.980   0.390   2.205  0.3452 -0.3593  0.0301
16566TIP3   OH271188   1.650   1.059   2.545 -0.9713  0.0793 -0.0362
16566TIP3    H171189   1.600   0.982   2.519 -2.0014  0.6194  0.2845
16566TIP3    H271190   1.712   1.027   2.609 -0.7055 -0.6574 -0.6467
16567TIP3   OH271191   3.749   2.608   3.146  0.2903 -0.4022 -0.2448
16567TIP3    H171192   3.704   2.625   3.063 -2.6482  0.3215  1.3203
16567TIP3    H271193   3.703   2.533   3.183  1.2567 -0.4437  0.9212
16568TIP3   OH271194   2.751   5.032  13.985 -0.5032  0.1504 -0.0531
16568TIP3    H171195   2.700   4.968  13.935 -2.0126  0.4878  0.9886
16568TIP3    H271196   2.695   5.054  14.059  0.0175  2.5681 -0.3034
16569TIP3   OH271197   4.700   2.309  16.770 -0.3171  0.8616 -0.0848
16569TIP3    H171198   4.641   2.297  16.696 -0.1106 -0.4783 -0.0514
16569TIP3    H271199   4.788   2.311  16.731 -0.1734 -0.3157  0.1493
16570TIP3   OH271200   0.797   2.866   3.938 -0.1192  0.4795 -0.2951
16570TIP3    H171201   0.834   2.859   3.850 -1.1585  1.6932 -0.8605
16570TIP3    H271202   0.716   2.815   3.935  0.3726 -0.3632  0.2923
16571TIP3   OH271203   5.772   2.981  15.210  0.3459  0.3846  0.2715
16571TIP3    H171204   5.860   2.954  15.236  0.3060 -0.1103 -0.0877
16571TIP3    H271205   5.760   2.942  15.123  0.0487  1.0571  0.0053
16572TIP3   OH271206   5.354   2.180   5.543 -0.3986  0.4505  0.6994
16572TIP3    H171207   5.370   2.168   5.636  2.1265  0.6393  0.3831
16572TIP3    H271208   5.309   2.101   5.515  2.2565 -1.4523  1.4369
16573TIP3   OH271209   1.799   2.255   0.104  0.6635  0.1854  0.6346
16573TIP3    H171210   1.792   2.346   0.075  0.5684  0.0208  0.1272
16573TIP3    H271211   1.887   2.248   0.141  1.1334  0.1783 -0.4420
16574TIP3   OH271212   2.713   4.396  12.820 -0.0045 -0.5374 -0.0765
16574TIP3    H171213   2.684   4.306  12.835  2.4739 -1.1894  1.3589
16574TIP3    H271214   2.694   4.412  12.727 -0.2443 -2.6344 -0.4337
16575TIP3   OH271215   2.307   4.716   5.857 -0.2337  0.0285 -0.3019
16575TIP3    H171216   2.283   4.804   5.886 -0.9162  0.1741 -1.2329
16575TIP3    H271217   2.306   4.721   5.761  0.7658 -0.7265 -0.3674
16576TIP3   OH271218   2.070   0.860   2.515  0.6327  0.2467 -0.7129
16576TIP3    H171219   1.980   0.840   2.543  1.2855  0.9709  2.1278
16576TIP3    H271220   2.114   0.775   2.513 -0.3086 -0.2926 -3.3205
16577TIP3   OH271221   1.212   0.409  12.051 -0.3819 -0.1472 -0.4406
16577TIP3    H171222   1.162   0.488  12.067 -0.3000  0.0254 -1.0212
16577TIP3    H271223   1.163   0.340  12.094  0.3128  0.4331  1.3628
16578TIP3   OH271224   1.675   0.084   4.205  0.2081 -0.0725 -0.1629
16578TIP3    H171225   1.697   0.164   4.157 -1.7208  0.4353 -0.2941
16578TIP3    H271226   1.757   0.035   4.209  1.1458  1.3242 -1.1901
16579TIP3   OH271227   3.006   0.032   5.550 -0.5240  0.2579 -0.2222
16579TIP3    H171228   2.974   0.120   5.570  0.3681  1.0864 -2.1446
16579TIP3    H271229   3.101   0.044   5.539 -0.4967 -0.7959 -1.2365
16580TIP3   OH271230   6.101   4.978   3.255  0.1099  0.0662  0.1941
16580TIP3    H171231   6.039   4.991   3.327  1.5641  0.5694  1.3966
16580TIP3    H271232   6.161   5.052   3.261  1.2119 -0.7377 -0.5539
16581TIP3   OH271233   2.941   2.430   1.504  0.1757  0.2140  0.2698
16581TIP3    H171234   2.845   2.432   1.512 -0.0113  0.4833 -1.5803
16581TIP3    H271235   2.959   2.350   1.455  0.5100  1.9540 -2.7417
16582TIP3   OH271236   6.713   3.724  12.348 -0.0933  0.0514  0.4837
16582TIP3    H171237   6.702   3.812  12.313 -2.2847 -0.6714 -0.8408
16582TIP3    H271238   6.660   3.723  12.428 -0.7894 -0.2899  0.0278
16583TIP3   OH271239   5.820   4.482   2.944 -0.1177  0.0843 -0.0157
16583TIP3    H171240   5.749   4.524   2.894 -0.6644 -0.7927  0.0058
16583TIP3    H271241   5.862   4.423   2.881 -0.4889 -0.6495  0.4160
16584TIP3   OH271242   0.906   1.799   5.302  0.3160 -0.0572  0.1822
16584TIP3    H171243   0.825   1.797   5.354 -0.5955 -0.7222 -1.2029
16584TIP3    H271244   0.911   1.712   5.263  1.9142 -0.1377  0.5302
16585TIP3   OH271245   5.047   3.688  12.963 -0.7872 -0.2519 -0.2977
16585TIP3    H171246   5.066   3.618  13.025 -0.0664  0.7179  0.6063
16585TIP3    H271247   4.954   3.708  12.978 -1.2563 -1.5969 -1.2072
16586TIP3   OH271248   1.644   6.057  14.836  0.0202  0.3476  0.0470
16586TIP3    H171249   1.572   5.997  14.856 -0.0820  0.5414  0.2633
16586TIP3    H271250   1.651   6.055  14.740  1.3009 -1.5054  0.1250
16587TIP3   OH271251   3.281   4.847   2.793 -0.0370  0.8517  0.1422
16587TIP3    H171252   3.369   4.878   2.814 -0.0349  1.0597 -0.1632
16587TIP3    H271253   3.238   4.923   2.753 -0.5981  0.9781  0.9691
16588TIP3   OH271254   3.488   2.044   4.417  0.2077  0.1596 -0.6070
16588TIP3    H171255   3.524   2.026   4.504  3.9161  1.6704 -1.6235
16588TIP3    H271256   3.517   2.133   4.398 -2.5809  0.7744 -2.5133
16589TIP3   OH271257   4.901   4.529  10.207 -0.1411  0.4213  0.7527
16589TIP3    H171258   4.838   4.523  10.279 -1.3473 -0.9998 -0.3519
16589TIP3    H271259   4.848   4.557  10.132  0.5701 -0.5940 -0.1532
16590TIP3   OH271260   4.663   6.149  13.275 -0.5674  0.1895 -0.0132
16590TIP3    H171261   4.699   6.189  13.196 -0.1614 -1.5707 -0.7703
16590TIP3    H271262   4.578   6.114  13.248 -0.1314 -1.0114  0.1288
16591TIP3   OH271263   3.465   1.053   4.120 -0.0063 -0.5942  0.0549
16591TIP3    H171264   3.462   0.975   4.174 -1.2417 -0.2768  0.4870
16591TIP3    H271265   3.387   1.103   4.145  0.3940  0.4550 -0.6854
16592TIP3   OH271266   3.636   5.001  12.919 -0.2508  0.4409 -0.2714
16592TIP3    H171267   3.668   4.911  12.915 -0.7068  0.3290 -1.9542
16592TIP3    H271268   3.541   4.993  12.919 -0.3293  0.9261 -2.0416
16593TIP3   OH271269   1.980   3.068  13.692  0.6005  0.4037 -0.2111
16593TIP3    H171270   1.938   3.120  13.623 -1.3743 -0.6621  0.1547
16593TIP3    H271271   1.927   3.084  13.770  0.1471 -1.8776 -0.0095
16594TIP3   OH271272   1.549   5.466   1.504  0.1800  0.4282 -0.2409
16594TIP3    H171273   1.635   5.499   1.530 -0.2275  0.2483  1.4505
16594TIP3    H271274   1.515   5.531   1.443  1.6666  0.2911 -1.2598
16595TIP3   OH271275   6.589   3.456  13.369 -0.4933  0.0986  0.4186
16595TIP3    H171276   6.515   3.396  13.379 -0.9443  0.6620  0.5180
16595TIP3    H271277   6.629   3.459  13.456 -0.5434  0.0458  0.4436
16596TIP3   OH271278   4.663   6.502  15.528 -0.2872  0.1451  0.2568
16596TIP3    H171279   4.576   6.470  15.552 -0.3572 -0.8757 -1.2107
16596TIP3    H271280   4.647   6.580  15.475 -0.2512  0.5858  0.8837
16597TIP3   OH271281   0.703   2.488  12.370 -0.0771  0.0796  0.1349
16597TIP3    H171282   0.627   2.498  12.426  1.6941  0.8435  2.5535
16597TIP3    H271283   0.775   2.468  12.430  1.6207 -0.8695 -2.0616
16598TIP3   OH271284   3.365   0.866  11.435  0.1911  0.2594  0.1623
16598TIP3    H171285   3.319   0.932  11.383 -1.4314 -0.4759  0.6065
16598TIP3    H271286   3.312   0.856  11.514  1.2534 -0.4579  0.8099
16599TIP3   OH271287   2.110   0.863  12.261 -0.6799 -0.6849 -0.4995
16599TIP3    H171288   2.058   0.783  12.261  0.9032 -1.8213  1.6653
16599TIP3    H271289   2.075   0.914  12.334 -0.8501  0.0422 -1.0789
16600TIP3   OH271290   5.193   5.138  11.400 -0.4268  0.0663 -0.3686
16600TIP3    H171291   5.209   5.068  11.337 -0.9782 -1.8896  1.5385
16600TIP3    H271292   5.098   5.148  11.401 -0.7673 -2.1858  2.2802
16601TIP3   OH271293   1.413   1.202   2.776  0.1394  0.1721  0.4110
16601TIP3    H171294   1.401   1.111   2.749  0.7064  0.4880 -0.9710
16601TIP3    H271295   1.418   1.198   2.872  1.0980 -1.3542  0.3231
16602TIP3   OH271296   5.687   2.687  15.961 -0.5529  0.2473  0.1034
16602TIP3    H171297   5.689   2.763  16.018  0.8804 -0.6447  1.3286
16602TIP3    H271298   5.747   2.624  16.002  0.5141 -0.4738 -2.3421
16603TIP3   OH271299   3.093   5.045  12.819 -0.0070  0.5542 -0.4399
16603TIP3    H171300   3.074   5.019  12.910  3.5870  1.2930  0.6963
16603TIP3    H271301   3.046   4.981  12.766 -0.7728 -1.0470  1.9724
16604TIP3   OH271302   5.817   2.497   5.353  0.2017  0.0202 -0.6745
16604TIP3    H171303   5.794   2.510   5.445 -1.6104 -1.4988 -0.8617
16604TIP3    H271304   5.739   2.460   5.313  1.2142 -0.1289 -2.6742
16605TIP3   OH271305   4.612   5.757   0.764  0.3244 -0.5950 -0.5790
16605TIP3    H171306   4.539   5.778   0.822 -0.1525 -0.7588 -1.1081
16605TIP3    H271307   4.668   5.835   0.765  0.4834 -0.7197  0.3364
16606TIP3   OH271308   6.415   1.983   1.194  0.1252  0.2591 -0.4069
16606TIP3    H171309   6.347   1.923   1.161 -0.5270 -0.1444  1.5073
16606TIP3    H271310   6.497   1.949   1.158 -0.4385 -0.7277 -0.7896
16607TIP3   OH271311   0.917   1.068   4.598 -0.2666  0.3783  0.3979
16607TIP3    H171312   0.906   1.146   4.544  0.4735  0.0759 -0.1957
16607TIP3    H271313   0.996   1.084   4.649 -0.6507  0.4245  0.9850
16608TIP3   OH271314   2.910   6.206   3.030 -0.0008 -0.1810 -0.3338
16608TIP3    H171315   3.005   6.201   3.037  0.1457  0.8128 -1.3451
16608TIP3    H271316   2.894   6.245   2.944 -1.3514 -1.3370 -0.6410
16609TIP3   OH271317   6.488   0.701  11.814  0.6338 -0.1151  0.0259
16609TIP3    H171318   6.450   0.699  11.726 -0.9265 -1.8405  0.6593
16609TIP3    H271319   6.459   0.784  11.851 -2.5492 -1.2564  0.4013
16610TIP3   OH271320   0.991   6.605  11.686 -0.1660  0.2380  0.0009
16610TIP3    H171321   0.997   6.655  11.767 -0.8034  0.8752 -0.3332
16610TIP3    H271322   1.040   6.657  11.622  1.6039 -0.9904  0.2948
16611TIP3   OH271323   4.126   4.748   1.846  0.1256  0.7287  0.0789
16611TIP3    H171324   4.218   4.753   1.871  0.2537 -1.1589  0.1013
16611TIP3    H271325   4.111   4.825   1.791  2.1251  0.2816 -1.1791
16612TIP3   OH271326   6.894   1.100   5.476 -0.0207  0.1900  0.0446
16612TIP3    H171327   6.967   1.039   5.462  0.4086  0.4618  1.0623
16612TIP3    H271328   6.928   1.184   5.446 -0.3709  0.0836 -0.6863
16613TIP3   OH271329   4.792   4.296  14.529 -0.1181 -0.1976  0.0234
16613TIP3    H171330   4.820   4.265  14.444  0.5368 -0.0758  0.1904
16613TIP3    H271331   4.768   4.388  14.515  0.3789 -0.0614  0.0511
16614TIP3   OH271332   4.037   0.799  14.547  0.2433  0.2283 -0.0268
16614TIP3    H171333   4.008   0.791  14.456  0.4137 -0.5350 -0.0187
16614TIP3    H271334   4.092   0.723  14.561  0.5752  0.5767  0.5897
16615TIP3   OH271335   3.413   1.925  12.629  0.2725  0.5379  0.1430
16615TIP3    H171336   3.337   1.877  12.597 -0.7217  1.1184  1.5669
16615TIP3    H271337   3.409   2.009  12.583  0.2645  0.4373 -0.0430
16616TIP3   OH271338   2.050   0.520   4.186 -0.0258 -0.0950  0.1838
16616TIP3    H171339   2.086   0.609   4.180  0.6868 -0.4036 -0.2523
16616TIP3    H271340   1.960   0.528   4.154 -0.7141  0.8800  2.2109
16617TIP3   OH271341   6.517   2.851   3.440 -0.1860  0.5775 -0.3441
16617TIP3    H171342   6.583   2.796   3.482  0.5072  1.2528 -0.5245
16617TIP3    H271343   6.443   2.853   3.501  0.1727  0.2405  0.0955
16618TIP3   OH271344   4.250   2.277   0.422  0.0908 -0.1536 -0.2722
16618TIP3    H171345   4.294   2.205   0.466 -0.7430 -0.2625  0.4015
16618TIP3    H271346   4.176   2.236   0.377  0.0319  0.1765 -0.4796
16619TIP3   OH271347   3.105   4.498  13.701  0.4262  0.2264  0.1121
16619TIP3    H171348   3.167   4.501  13.628 -1.0685 -1.4577 -1.3371
16619TIP3    H271349   3.145   4.437  13.763  0.2406 -0.9127 -0.8496
16620TIP3   OH271350   1.540   2.232  11.290  0.5266  0.2428  0.6717
16620TIP3    H171351   1.511   2.141  11.291  0.8209  0.1448  0.4774
16620TIP3    H271352   1.625   2.230  11.245  0.5653  0.6030  0.7225
16621TIP3   OH271353   5.060   2.277  12.444  0.5678 -0.2901  0.4041
16621TIP3    H171354   5.073   2.185  12.469 -1.0779 -0.2079  1.7311
16621TIP3    H271355   5.018   2.272  12.358 -0.2909 -0.8305  0.8386
16622TIP3   OH271356   1.785   4.795  11.165 -0.5284 -0.1221  0.3184
16622TIP3    H171357   1.835   4.836  11.094  0.1190  1.8567  1.8007
16622TIP3    H271358   1.829   4.712  11.181 -1.1921 -1.0064 -2.0756
16623TIP3   OH271359   3.114   4.817  12.177  0.5847  0.1305  0.0164
16623TIP3    H171360   3.039   4.842  12.123  1.0940 -0.5658 -1.0569
16623TIP3    H271361   3.182   4.794  12.113  0.3298 -3.4871  0.7985
16624TIP3   OH271362   6.585   4.486   2.927  0.2053  0.1401  0.5276
16624TIP3    H171363   6.514   4.513   2.985  0.2049 -1.1402  1.1403
16624TIP3    H271364   6.665   4.502   2.977  0.3212  0.8627  0.1266
16625TIP3   OH271365   5.216   6.169  14.347 -0.1716 -0.4986  0.1155
16625TIP3    H171366   5.293   6.136  14.301  0.8842  0.4800  1.0954
16625TIP3    H271367   5.248   6.186  14.436 -1.0160  1.6739  0.0682
16626TIP3   OH271368   1.589   0.766  11.802  0.4280 -0.3319  0.4708
16626TIP3    H171369   1.661   0.759  11.739 -0.6012 -0.4181 -0.7238
16626TIP3    H271370   1.580   0.678  11.837  2.8435  0.2495  2.9220
16627TIP3   OH271371   4.905   0.513  13.441 -0.1247  0.1650  0.1985
16627TIP3    H171372   4.895   0.608  13.431 -0.2883  0.3655  1.9539
16627TIP3    H271373   4.995   0.502  13.473  0.7620 -0.5149 -2.2711
16628TIP3   OH271374   3.915   0.412  13.256 -0.1786  0.4168 -0.1070
16628TIP3    H171375   3.845   0.413  13.322 -0.0997 -0.4774 -0.0025
16628TIP3    H271376   3.869   0.407  13.172 -0.2561 -1.9706  0.0163
16629TIP3   OH271377   6.372   3.770  11.622  0.1008  0.4390 -0.2626
16629TIP3    H171378   6.295   3.808  11.662  0.3161  0.7593 -0.1487
16629TIP3    H271379   6.433   3.756  11.694 -0.1348 -0.5389 -0.2313
16630TIP3   OH271380   6.319   1.757   0.497  0.4859 -0.0536 -0.2461
16630TIP3    H171381   6.338   1.663   0.498  0.7358 -0.0811 -2.4233
16630TIP3    H271382   6.405   1.799   0.499  0.4069  0.1061 -0.2340
16631TIP3   OH271383   3.398   3.024  11.863 -0.1041  0.1746  0.0281
16631TIP3    H171384   3.479   3.047  11.817  1.0034 -1.2848  1.1677
16631TIP3    H271385   3.393   2.929  11.857 -2.5210  0.2991 -1.2204
16632TIP3   OH271386   4.094   6.469   5.205 -0.4507  0.3662  1.1530
16632TIP3    H171387   4.177   6.502   5.173 -1.0740 -0.4485 -1.4873
16632TIP3    H271388   4.117   6.392   5.258  0.5586  1.4363  2.3506
16633TIP3   OH271389   2.514   2.098  13.413 -0.0921  0.0535 -0.7747
16633TIP3    H171390   2.563   2.131  13.337  0.2711  1.7509  0.1604
16633TIP3    H271391   2.561   2.017  13.437  0.7261  0.3188 -1.4087
16634TIP3   OH271392   5.836   0.579   2.696  0.0071  0.1951  0.0318
16634TIP3    H171393   5.858   0.606   2.607 -0.2340 -1.4477 -0.5558
16634TIP3    H271394   5.841   0.483   2.694 -0.5621  0.1064  1.6315
16635TIP3   OH271395   4.556   4.960   4.041 -0.2659 -0.2181  0.3159
16635TIP3    H171396   4.591   4.873   4.022  2.0463  0.3257  1.7058
16635TIP3    H271397   4.566   4.969   4.136  3.1759  2.9067 -0.1297
16636TIP3   OH271398   3.666   4.757  15.237 -0.0851 -0.0742 -0.4798
16636TIP3    H171399   3.691   4.845  15.209  0.8047  0.1451  0.8538
16636TIP3    H271400   3.609   4.772  15.313 -0.5826 -0.6460 -0.7355
16637TIP3   OH271401   1.838   4.769   5.142 -0.3585  0.0277 -0.1456
16637TIP3    H171402   1.780   4.806   5.075  2.1731  1.0879 -1.8944
16637TIP3    H271403   1.829   4.674   5.132  0.1799  0.1489 -2.2501
16638TIP3   OH271404   2.580   4.313   1.649  0.0958 -0.3344  0.4527
16638TIP3    H171405   2.625   4.371   1.711  0.3424  0.5069 -0.4836
16638TIP3    H271406   2.572   4.366   1.570 -0.2593 -1.3790 -0.2158
16639TIP3   OH271407   4.117   0.206   2.480  0.4361 -0.4655  0.0920
16639TIP3    H171408   4.059   0.243   2.413  0.1818  0.8925  1.0088
16639TIP3    H271409   4.057   0.181   2.551  0.9023  0.7031  0.9375
16640TIP3   OH271410   0.435   1.966   2.181 -0.4106  0.9469  0.5973
16640TIP3    H171411   0.353   1.965   2.131  0.8906 -1.0489 -1.6509
16640TIP3    H271412   0.486   2.037   2.142  0.2892 -0.0984 -0.4451
16641TIP3   OH271413   3.910   0.959  13.031  0.4714  0.5662  0.4486
16641TIP3    H171414   3.984   1.019  13.018 -0.2819  1.1407 -1.3950
16641TIP3    H271415   3.887   0.970  13.124  2.7230  0.2941  1.1165
16642TIP3   OH271416   5.270   6.761   5.262  0.2199 -0.5671  0.3827
16642TIP3    H171417   5.235   6.710   5.189  0.8923 -2.1162  1.0811
16642TIP3    H271418   5.228   6.846   5.255 -1.6460 -1.4974 -0.3333
16643TIP3   OH271419   5.842   0.715  10.322  0.1483  0.5163  0.5221
16643TIP3    H171420   5.907   0.785  10.318 -0.3046  0.9180  0.1582
16643TIP3    H271421   5.796   0.721  10.238 -0.1088 -0.0131  0.6232
16644TIP3   OH271422   5.874   1.882   5.624 -0.3354  0.5210 -0.0877
16644TIP3    H171423   5.948   1.822   5.626 -0.6765  0.1042  0.0637
16644TIP3    H271424   5.878   1.921   5.537  0.8606  1.5223  0.3815
16645TIP3   OH271425   4.665   5.817  12.405  0.4677 -0.3595 -0.9651
16645TIP3    H171426   4.604   5.755  12.365 -0.4138 -0.1346 -0.0044
16645TIP3    H271427   4.626   5.839  12.490  1.4772  0.4186 -0.6743
16646TIP3   OH271428   2.506   0.621   0.299  0.0750  0.0048 -0.0611
16646TIP3    H171429   2.461   0.647   0.218  1.2287  1.8802 -0.1548
16646TIP3    H271430   2.453   0.659   0.369 -0.5159 -0.9922  0.0526
16647TIP3   OH271431   0.869   1.262   2.931  0.1237  0.1518  0.5260
16647TIP3    H171432   0.839   1.247   3.021  0.5211  1.4972  0.8996
16647TIP3    H271433   0.828   1.344   2.905  1.2052  0.5519  0.0212
16648TIP3   OH271434   5.592   3.419   0.037  0.7676  0.1406  0.1378
16648TIP3    H171435   5.514   3.404   0.090  1.9833 -2.8718  1.3358
16648TIP3    H271436   5.578   3.365  -0.041  1.4306 -0.0520  0.1443
16649TIP3   OH271437   5.795   1.844  12.739 -0.1695 -0.0116  0.1690
16649TIP3    H171438   5.852   1.917  12.714  0.9725 -0.4978  1.2107
16649TIP3    H271439   5.707   1.881  12.740  0.4423  1.4979  1.1631
16650TIP3   OH271440   4.681   1.650  11.118 -0.3921  0.4474 -0.4128
16650TIP3    H171441   4.648   1.703  11.046 -0.1374  0.9849 -0.1454
16650TIP3    H271442   4.699   1.565  11.080  1.0189  1.1128 -1.2998
16651TIP3   OH271443   0.392   5.883  16.872  0.0643 -0.2635 -0.0745
16651TIP3    H171444   0.322   5.926  16.822 -1.3789 -0.1012  1.9853
16651TIP3    H271445   0.443   5.955  16.908 -0.1628 -0.3397  0.4001
16652TIP3   OH271446   3.333   4.968  14.291  0.5585  0.2723  0.6266
16652TIP3    H171447   3.340   4.913  14.370  2.1572  1.8320  1.6581
16652TIP3    H271448   3.381   4.919  14.224  0.0758 -0.5942  0.8896
16653TIP3   OH271449   4.621   5.882   2.143 -1.0907  0.1965 -0.1906
16653TIP3    H171450   4.672   5.945   2.194 -0.4577  0.8204 -1.5441
16653TIP3    H271451   4.534   5.884   2.183 -0.2784 -0.3533  1.6949
16654TIP3   OH271452   4.391   4.055  14.912  0.1147  0.0661 -0.1200
16654TIP3    H171453   4.363   4.039  15.002  0.1064 -0.6764 -0.2518
16654TIP3    H271454   4.445   3.980  14.890 -0.8104 -0.3334 -1.1142
16655TIP3   OH271455   3.071   3.035   1.112 -0.2313  0.2980  0.5687
16655TIP3    H171456   3.001   3.080   1.065  2.1252  1.0287 -2.5572
16655TIP3    H271457   3.118   3.106   1.156 -0.6533 -0.0528  1.6283
16656TIP3   OH271458   1.218   4.158   9.695 -0.4602  0.6981  0.2598
16656TIP3    H171459   1.237   4.221   9.765 -0.3482  1.8774 -0.8076
16656TIP3    H271460   1.129   4.179   9.667  0.0580  1.2871 -1.0096
16657TIP3   OH271461   6.224   5.516   1.668  0.1767 -0.3265 -0.7318
16657TIP3    H171462   6.281   5.464   1.611  3.1498  1.7778  0.0587
16657TIP3    H271463   6.238   5.480   1.756  0.8790  0.6060 -0.4397
16658TIP3   OH271464   1.195   5.679  14.908 -0.0683  0.5478  0.4860
16658TIP3    H171465   1.274   5.649  14.864  0.4258  0.8740  1.1370
16658TIP3    H271466   1.123   5.643  14.855  0.5045 -0.0132  0.0727
16659TIP3   OH271467   5.453   4.381  12.566 -0.1851 -0.3120  0.0194
16659TIP3    H171468   5.456   4.474  12.541 -0.0776 -0.2689  0.1917
16659TIP3    H271469   5.370   4.372  12.612 -1.5350 -0.8982 -2.3402
16660TIP3   OH271470   3.804   5.348  13.961 -0.1001 -0.1947 -0.5921
16660TIP3    H171471   3.899   5.349  13.953 -0.1089  2.5523 -1.3954
16660TIP3    H271472   3.773   5.411  13.896 -2.4250 -0.4689  0.1386
16661TIP3   OH271473   1.224   5.983  16.258  0.2110 -0.1367  0.2715
16661TIP3    H171474   1.241   6.048  16.326  3.0604  0.0054 -0.4132
16661TIP3    H271475   1.284   5.911  16.279  0.1619 -0.6890 -1.3096
16662TIP3   OH271476   1.429   5.056  14.145  0.0759 -0.5440 -0.0556
16662TIP3    H171477   1.371   5.020  14.078  0.6867 -0.5980 -0.5617
16662TIP3    H271478   1.407   5.149  14.148 -0.3518 -0.6464  0.0820
16663TIP3   OH271479   6.221   4.342  13.958 -0.6786  0.7172  0.8268
16663TIP3    H171480   6.174   4.265  13.928 -0.5364  1.7626 -2.4597
16663TIP3    H271481   6.301   4.307  13.997  0.0480 -0.8861 -1.8088
16664TIP3   OH271482   1.512   6.797  15.242 -0.3651 -0.0284 -0.7699
16664TIP3    H171483   1.427   6.753  15.236 -0.0244 -0.5018 -2.8777
16664TIP3    H271484   1.572   6.730  15.275 -0.9319  0.5992  1.7833
16665TIP3   OH271485   4.716   5.643   3.914  0.4172 -0.7456  0.3302
16665TIP3    H171486   4.636   5.591   3.926  0.6770 -1.1971  0.1304
16665TIP3    H271487   4.785   5.591   3.955  1.1641 -1.8985 -2.2318
16666TIP3   OH271488   1.628   6.416   5.408  0.5372 -0.5735  0.0480
16666TIP3    H171489   1.562   6.441   5.473 -0.5498 -1.7576 -0.5542
16666TIP3    H271490   1.621   6.483   5.340  0.6016 -0.1935  0.4110
16667TIP3   OH271491   0.546   1.557   1.314 -0.1243 -0.4251 -0.1997
16667TIP3    H171492   0.521   1.619   1.383 -0.7474  0.1263 -0.9002
16667TIP3    H271493   0.577   1.479   1.361 -0.6450 -0.1010  0.7004
16668TIP3   OH271494   3.856   5.649  13.988  0.0897  0.2366 -0.2512
16668TIP3    H171495   3.880   5.615  14.074 -0.4401 -0.0070 -0.1973
16668TIP3    H271496   3.934   5.634  13.934  0.4570  0.4790  0.2047
16669TIP3   OH271497   4.254   0.026   5.862  0.0020 -0.3878  0.2233
16669TIP3    H171498   4.341   0.010   5.827 -0.5943 -1.0229 -1.0253
16669TIP3    H271499   4.228   0.111   5.825 -1.6528 -2.1781 -3.1815
16670TIP3   OH271500   5.317   2.022   6.053 -1.0058  0.4600 -0.2723
16670TIP3    H171501   5.241   1.988   6.101  0.3405 -2.2351  0.1071
16670TIP3    H271502   5.354   2.088   6.111  0.3640 -2.4536  2.4880
16671TIP3   OH271503   4.143   4.180   2.849 -0.3120 -0.1061  0.0711
16671TIP3    H171504   4.051   4.156   2.856 -0.1982 -0.7583 -0.6191
16671TIP3    H271505   4.183   4.110   2.797  0.0319  1.5946 -2.0619
16672TIP3   OH271506   5.979   5.467  14.306 -0.0204 -0.6168 -0.0134
16672TIP3    H171507   5.950   5.558  14.311  0.6898 -0.3628 -0.3212
16672TIP3    H271508   5.953   5.438  14.219  3.9246  0.8352 -1.9114
16673TIP3   OH271509   6.479   2.548   5.495 -0.7811 -0.2720 -0.4533
16673TIP3    H171510   6.564   2.575   5.528 -0.1931 -2.3754 -0.1051
16673TIP3    H271511   6.421   2.554   5.571 -0.6065 -0.2803 -0.3200
16674TIP3   OH271512   0.650   4.915   1.069  0.3986  0.1038  0.0228
16674TIP3    H171513   0.664   4.822   1.055  2.1525  0.1942  0.9559
16674TIP3    H271514   0.687   4.932   1.155 -0.2603  1.6043  0.0425
16675TIP3   OH271515   2.930   2.098  16.752 -0.3883  0.4170  0.0334
16675TIP3    H171516   2.989   2.032  16.716 -1.1766  0.0164 -0.5398
16675TIP3    H271517   2.885   2.134  16.676 -2.6354 -0.9504  0.6109
16676TIP3   OH271518   0.334   6.092  11.456  0.4486 -0.0587  0.2493
16676TIP3    H171519   0.344   6.010  11.504 -2.9603 -1.3105 -0.8916
16676TIP3    H271520   0.354   6.070  11.365 -0.3287  0.3692 -0.0412
16677TIP3   OH271521   6.748   6.409  12.893 -0.3037 -0.0562 -0.3248
16677TIP3    H171522   6.717   6.323  12.865 -2.0916  1.2139 -2.5614
16677TIP3    H271523   6.670   6.454  12.925  0.8058  0.4292  1.9591
16678TIP3   OH271524   3.928   6.287   0.296 -0.2153  0.2945 -0.2840
16678TIP3    H171525   3.961   6.335   0.373 -4.5457 -2.8228  4.1369
16678TIP3    H271526   3.986   6.211   0.289 -0.2727  0.1749  0.4650
16679TIP3   OH271527   3.884   5.013  16.790  0.3442 -0.1782  0.3327
16679TIP3    H171528   3.858   5.104  16.775  0.1834 -0.4605 -1.3213
16679TIP3    H271529   3.801   4.966  16.802  0.3745 -0.2241  0.3599
16680TIP3   OH271530   5.713   0.583   4.829 -0.6586 -0.2039 -0.2403
16680TIP3    H171531   5.797   0.594   4.786 -0.3506  1.2469  0.6432
16680TIP3    H271532   5.735   0.568   4.921 -1.3480 -0.4044 -0.1027
16681TIP3   OH271533   2.385   3.420  14.125 -0.0832 -0.0847 -0.2851
16681TIP3    H171534   2.385   3.458  14.037  2.3514 -0.1778 -0.3975
16681TIP3    H271535   2.442   3.343  14.118 -0.1534 -0.3208  1.2856
16682TIP3   OH271536   4.580   3.220  15.624 -0.5498  0.8716  0.6567
16682TIP3    H171537   4.545   3.213  15.713 -0.9142  0.6971  0.5025
16682TIP3    H271538   4.520   3.281  15.580 -1.3811 -0.3549  0.0402
16683TIP3   OH271539   3.028   1.431  13.086  0.4149 -0.1479 -0.5222
16683TIP3    H171540   3.093   1.450  13.153 -0.2921 -1.1517  0.4836
16683TIP3    H271541   2.959   1.496  13.100  0.4977 -0.0392 -0.6137
16684TIP3   OH271542   6.162   0.370  15.511 -1.0032 -0.1991  0.2096
16684TIP3    H171543   6.109   0.291  15.512 -0.5531 -0.5092 -0.0828
16684TIP3    H271544   6.214   0.363  15.431 -2.3082  1.2886 -0.8469
16685TIP3   OH271545   4.950   1.409   3.603 -0.0179 -0.2136  0.6989
16685TIP3    H171546   5.041   1.408   3.575  0.0982  1.4249  0.9369
16685TIP3    H271547   4.949   1.466   3.680 -1.1889 -0.4961  0.9162
16686TIP3   OH271548   0.699   5.641   3.037  0.5476 -0.1364  0.3267
16686TIP3    H171549   0.781   5.640   2.987 -0.0901 -1.0284 -0.7476
16686TIP3    H271550   0.726   5.660   3.127  2.1410 -2.0314  0.3156
16687TIP3   OH271551   4.207   1.532   3.375  0.0527  0.0273  0.2221
16687TIP3    H171552   4.148   1.487   3.436 -0.8503  0.3633 -0.3670
16687TIP3    H271553   4.294   1.521   3.413 -0.5188  0.6013  1.7971
16688TIP3   OH271554   6.722   4.347  13.153 -0.4138  0.0788 -0.0196
16688TIP3    H171555   6.753   4.309  13.071 -1.1489  0.6284 -0.5610
16688TIP3    H271556   6.640   4.389  13.131 -0.2151  0.9503  0.8267
16689TIP3   OH271557   3.619   3.402   4.293  0.2363 -0.2279  0.2821
16689TIP3    H171558   3.612   3.486   4.338 -0.3832  0.0905 -0.3770
16689TIP3    H271559   3.544   3.401   4.233  1.5123 -0.2357 -1.3900
16690TIP3   OH271560   4.918   2.461  14.155 -0.0694 -0.0891 -0.4888
16690TIP3    H171561   4.891   2.552  14.160 -0.9333 -0.1767 -2.4513
16690TIP3    H271562   5.012   2.464  14.137  0.1201  0.3524  0.4793
16691TIP3   OH271563   2.878   5.512   4.766  0.6657 -0.3231  0.6727
16691TIP3    H171564   2.843   5.426   4.789  1.0644 -0.2770  1.4719
16691TIP3    H271565   2.848   5.570   4.835  1.5724 -0.1065  0.9003
16692TIP3   OH271566   1.223   5.904   3.298  0.0471 -0.2237 -0.4036
16692TIP3    H171567   1.166   5.857   3.359 -0.5889 -0.4123 -1.1299
16692TIP3    H271568   1.268   5.969   3.353  0.2893 -1.0837  0.4534
16693TIP3   OH271569   6.023   1.283  11.935  0.5206 -0.3236 -0.5440
16693TIP3    H171570   5.931   1.310  11.929  0.8724  0.7842 -1.2636
16693TIP3    H271571   6.027   1.199  11.891 -0.1596 -0.4028 -0.4567
16694TIP3   OH271572   3.365   0.805   5.215 -0.4457  0.3223  0.3150
16694TIP3    H171573   3.452   0.765   5.226 -0.9112 -0.6966  0.3727
16694TIP3    H271574   3.329   0.808   5.304 -0.7296  0.1346  0.2075
16695TIP3   OH271575   4.680   0.530   2.469  0.1460 -0.4352 -0.2356
16695TIP3    H171576   4.593   0.495   2.489  0.8037 -2.2609 -0.3608
16695TIP3    H271577   4.706   0.484   2.389  0.2930  1.8480 -1.5754
16696TIP3   OH271578   0.579   2.756   0.924 -0.1678  0.1400  0.1825
16696TIP3    H171579   0.613   2.846   0.919 -2.1687  0.8773 -2.2231
16696TIP3    H271580   0.573   2.727   0.833 -0.8815 -1.9251  0.8311
16697TIP3   OH271581   1.480   0.251   2.602  0.2123 -0.6303  0.4114
16697TIP3    H171582   1.551   0.265   2.540 -0.8606  0.9563 -0.5356
16697TIP3    H271583   1.445   0.165   2.580  0.9023 -0.7963 -0.0677
16698TIP3   OH271584   4.315   4.667  12.267  0.6085 -0.2011  0.0795
16698TIP3    H171585   4.382   4.710  12.214  0.1652  0.0681 -0.2712
16698TIP3    H271586   4.232   4.706  12.239  0.2770 -0.6851  0.3486
16699TIP3   OH271587   2.737   0.575  11.035 -0.3129  0.3750  0.2547
16699TIP3    H171588   2.713   0.589  10.943 -0.1037  0.9735  0.2822
16699TIP3    H271589   2.665   0.612  11.085 -1.0036 -1.0411  0.3440
16700TIP3   OH271590   5.838   3.927   2.279 -0.2560 -0.3110 -0.7994
16700TIP3    H171591   5.907   3.902   2.216  1.3456  1.8921 -0.0467
16700TIP3    H271592   5.883   3.985   2.341 -2.1631 -1.1166  1.4571
16701TIP3   OH271593   0.963   0.038   9.890 -0.4892 -0.2409  0.0795
16701TIP3    H171594   0.938  -0.000   9.806 -1.1853 -2.1665  1.1109
16701TIP3    H271595   1.043  -0.008   9.915 -0.0792  0.5802  0.3225
16702TIP3   OH271596   6.640   2.636  15.638  0.0032 -0.4836 -0.4388
16702TIP3    H171597   6.582   2.690  15.584  0.5305  0.7144  0.1452
16702TIP3    H271598   6.723   2.684  15.639  0.7510 -1.7293 -0.5515
16703TIP3   OH271599   0.798   2.822   4.580 -0.6301 -0.0368  0.1280
16703TIP3    H171600   0.868   2.873   4.620 -0.4976  0.4763 -0.7234
16703TIP3    H271601   0.791   2.744   4.635  0.6513 -0.1244  0.2050
16704TIP3   OH271602   2.806   4.899  15.326  0.1314  0.1748 -0.4467
16704TIP3    H171603   2.774   4.859  15.407  0.9958  0.6162  0.1356
16704TIP3    H271604   2.735   4.957  15.298 -0.0056  0.3483  0.2407
16705TIP3   OH271605   0.256   0.858   1.885 -0.8917 -0.2997  0.3846
16705TIP3    H171606   0.251   0.887   1.794 -1.4234  0.0631  0.5257
16705TIP3    H271607   0.322   0.915   1.925  2.1364 -2.8022 -0.6253
16706TIP3   OH271608   6.497   4.048   6.437  0.4864 -0.5483  0.1766
16706TIP3    H171609   6.432   4.008   6.495 -1.6991  0.8756 -1.1285
16706TIP3    H271610   6.494   3.995   6.358 -0.2712  0.3730 -0.4495
16707TIP3   OH271611   5.548   4.993  11.373  0.4367 -0.2385  0.1477
16707TIP3    H171612   5.531   5.068  11.430  0.5048  0.4569 -0.7176
16707TIP3    H271613   5.615   4.942  11.419  1.4382  0.9945  0.1049
16708TIP3   OH271614   3.991   5.067   2.546 -0.4888  0.3034 -0.0794
16708TIP3    H171615   3.920   5.007   2.521 -2.8232  1.4205  3.2324
16708TIP3    H271616   4.069   5.012   2.549 -1.8504 -1.7688 -0.5400
16709TIP3   OH271617   6.491   1.064  13.408  0.7628  0.1190  0.0074
16709TIP3    H171618   6.442   1.145  13.423  1.6125  0.3476  1.8043
16709TIP3    H271619   6.451   1.000  13.467  0.7442 -0.4981 -0.6626
16710TIP3   OH271620   5.706   1.029  16.156 -0.3612  0.1106 -0.2676
16710TIP3    H171621   5.765   1.102  16.137 -1.2805  1.3163  1.3110
16710TIP3    H271622   5.623   1.054  16.116 -0.4774 -0.4553 -0.3927
16711TIP3   OH271623   4.540   6.462   5.483  0.3435 -0.3414 -0.4452
16711TIP3    H171624   4.558   6.377   5.524 -1.1886  0.8237  3.0337
16711TIP3    H271625   4.573   6.526   5.545 -0.0785  1.6393 -2.1659
16712TIP3   OH271626   0.206   2.797  11.147  0.0812 -0.1084 -1.0842
16712TIP3    H171627   0.268   2.842  11.090  0.6376  0.6535  0.0855
16712TIP3    H271628   0.171   2.726  11.093  2.4946 -1.0244 -1.5513
16713TIP3   OH271629   3.107   0.671  13.409  0.2944 -0.3289 -0.8324
16713TIP3    H171630   3.075   0.586  13.440 -0.3612  0.6917  1.4276
16713TIP3    H271631   3.029   0.726  13.404  0.4682 -0.1644 -3.6954
16714TIP3   OH271632   0.354   3.395   3.493 -0.3055  0.5483  0.1507
16714TIP3    H171633   0.296   3.394   3.417 -0.8168  2.2911  0.4629
16714TIP3    H271634   0.441   3.376   3.458 -0.6192  0.8380 -0.8010
16715TIP3   OH271635   0.135   6.781  12.590  0.2335  0.2036 -0.2046
16715TIP3    H171636   0.059   6.804  12.537  0.8679 -2.1143 -2.3146
16715TIP3    H271637   0.210   6.818  12.544  0.5568  1.1727  1.0384
16716TIP3   OH271638   6.118   0.714   3.092 -0.3304  0.0631 -0.1828
16716TIP3    H171639   6.083   0.690   3.006 -1.1695 -0.5021  0.3029
16716TIP3    H271640   6.076   0.798   3.112  0.1350  0.3681 -0.4751
16717TIP3   OH271641   4.167   3.785   2.187  0.2135  0.7956  0.3547
16717TIP3    H171642   4.211   3.868   2.169 -0.9162  1.6373  1.3532
16717TIP3    H271643   4.226   3.738   2.246  1.0157  0.7221 -0.4900
16718TIP3   OH271644   2.852   6.775   2.819  0.6916  0.3603 -0.7376
16718TIP3    H171645   2.811   6.847   2.771 -0.3357 -0.2849 -0.8647
16718TIP3    H271646   2.923   6.746   2.762 -0.8585 -0.7660 -2.2134
16719TIP3   OH271647   5.431   0.415  15.903  0.0084  0.3415  0.0356
16719TIP3    H171648   5.491   0.347  15.933 -0.1312  0.1615 -0.0946
16719TIP3    H271649   5.346   0.390  15.938 -0.5182 -0.8187 -1.9386
16720TIP3   OH271650   5.814   0.969   0.143  0.0946  0.4473 -0.0799
16720TIP3    H171651   5.794   0.876   0.133 -0.1575  0.2310  1.9844
16720TIP3    H271652   5.855   0.994   0.060 -0.0524 -1.4326 -0.7619
16721TIP3   OH271653   5.323   6.617   1.440 -0.4430 -0.0697 -0.2853
16721TIP3    H171654   5.235   6.648   1.419 -0.1542  0.6271 -0.5091
16721TIP3    H271655   5.319   6.522   1.428 -0.9829  0.0318 -0.9875
16722TIP3   OH271656   4.861   2.328  11.018  0.1349  0.1205  0.9541
16722TIP3    H171657   4.873   2.288  10.932  0.3096  0.2489  0.9176
16722TIP3    H271658   4.943   2.310  11.064  0.6738  1.4417  0.5342
16723TIP3   OH271659   2.292   6.204   4.220  0.0936 -0.5241 -0.0306
16723TIP3    H171660   2.376   6.222   4.177  1.1616  0.6506  2.3831
16723TIP3    H271661   2.256   6.130   4.170  2.2285 -0.6501 -1.5602
16724TIP3   OH271662   6.463   4.860  14.352 -0.1026  0.2839 -0.2796
16724TIP3    H171663   6.480   4.822  14.266 -0.0119  0.9684 -0.5726
16724TIP3    H271664   6.486   4.953  14.342 -0.8681  0.5420  0.2491
16725TIP3   OH271665   1.885   0.787  14.181  0.7508  0.7873  0.1345
16725TIP3    H171666   1.935   0.860  14.143  1.2980  0.2740 -0.1534
16725TIP3    H271667   1.899   0.714  14.120 -0.2141  0.5841  0.1501
16726TIP3   OH271668   4.912   6.573  12.897  0.4333  0.0365  0.1208
16726TIP3    H171669   4.870   6.526  12.825  1.1787 -0.0832 -0.2447
16726TIP3    H271670   4.894   6.665  12.879  1.1674  0.0514 -0.5806
16727TIP3   OH271671   5.749   3.010   2.918 -0.5560 -0.1776  0.2049
16727TIP3    H171672   5.707   2.960   2.848 -1.0320  2.9146 -1.9236
16727TIP3    H271673   5.843   2.995   2.905 -0.6318  0.4651 -1.2408
16728TIP3   OH271674   1.019   3.540  10.392 -0.1170  0.6159 -0.2078
16728TIP3    H171675   1.018   3.465  10.451  2.7574 -0.0281 -0.8426
16728TIP3    H271676   0.948   3.522  10.329 -1.2174 -0.1792  1.1970
16729TIP3   OH271677   2.308   6.417   3.995 -0.0288 -0.1728 -0.1608
16729TIP3    H171678   2.224   6.451   4.026  0.0853 -0.8821  0.9439
16729TIP3    H271679   2.367   6.424   4.070  0.9897  0.5429 -0.9890
16730TIP3   OH271680   1.449   6.820   3.274 -0.4977 -0.4792  0.1631
16730TIP3    H171681   1.432   6.771   3.354  0.2886 -0.3109  0.4434
16730TIP3    H271682   1.529   6.869   3.292  0.1497 -1.0647 -1.0148
16731TIP3   OH271683   1.128   4.541   1.897 -0.0368 -0.1378  0.8521
16731TIP3    H171684   1.076   4.462   1.907 -0.8494  0.1678 -0.6905
16731TIP3    H271685   1.084   4.591   1.828  1.0183  1.2003  1.0946
16732TIP3   OH271686   2.358   5.611  15.601  0.1488 -0.1836  0.6102
16732TIP3    H171687   2.453   5.607  15.588  0.1887 -3.0482  1.0202
16732TIP3    H271688   2.344   5.687  15.657  2.5567 -1.2165  2.8323
16733TIP3   OH271689   3.716   6.355   5.800  0.2334 -0.1503  0.8406
16733TIP3    H171690   3.811   6.356   5.811  0.5038 -0.2857 -1.2035
16733TIP3    H271691   3.688   6.276   5.845  1.1389 -0.3248  1.1201
16734TIP3   OH271692   3.622   4.051  10.744  0.0217  0.6982  0.6678
16734TIP3    H171693   3.527   4.046  10.751  0.1046 -0.6021  1.1483
16734TIP3    H271694   3.638   4.116  10.675 -1.2280  0.2407 -0.0765
16735TIP3   OH271695   5.757   0.500  14.836  0.3668  0.6077 -0.4749
16735TIP3    H171696   5.727   0.572  14.891 -2.3934 -1.4670  1.0198
16735TIP3    H271697   5.677   0.460  14.803  1.7335 -1.8965 -1.0320
16736TIP3   OH271698   2.126   0.675  14.839  0.2093  0.0970 -0.0133
16736TIP3    H171699   2.162   0.612  14.776  0.9977  0.2845  0.2398
16736TIP3    H271700   2.032   0.657  14.839  0.5330 -1.8933  0.9242
16737TIP3   OH271701   1.242   0.324  15.178 -0.3089  1.0498  0.3126
16737TIP3    H171702   1.232   0.368  15.263  1.0120  1.1522  0.4444
16737TIP3    H271703   1.337   0.311  15.170 -0.4415  0.8312 -1.0415
16738TIP3   OH271704   1.495   5.661  12.586  0.1914 -0.3857 -0.2586
16738TIP3    H171705   1.574   5.613  12.613  1.0476  0.9115 -0.3616
16738TIP3    H271706   1.528   5.733  12.532 -0.9929  0.7461  0.4678
16739TIP3   OH271707   2.106   6.880  15.743 -0.2257 -0.0702 -0.1592
16739TIP3    H171708   2.148   6.843  15.666 -0.9718 -1.3901  0.0342
16739TIP3    H271709   2.119   6.974  15.735  1.0014 -0.2910 -1.1171
16740TIP3   OH271710   0.993   3.209  15.033 -0.1122  0.0720  0.1266
16740TIP3    H171711   0.935   3.142  14.997  1.3419 -0.4371 -1.4654
16740TIP3    H271712   1.040   3.164  15.103 -1.2894  0.3584  1.1215
16741TIP3   OH271713   6.734   4.247  13.806  0.2234 -0.1840  1.0163
16741TIP3    H171714   6.749   4.237  13.900  1.1041  1.0569  1.0427
16741TIP3    H271715   6.767   4.335  13.786 -1.6342  0.3034 -0.1287
16742TIP3   OH271716   2.533   0.160   5.403 -0.2091  0.2111  0.1707
16742TIP3    H171717   2.552   0.078   5.448  0.7495  1.9239  3.2219
16742TIP3    H271718   2.438   0.171   5.412 -0.0818  0.3592  1.6539
16743TIP3   OH271719   0.727   1.397  16.175  0.4979  0.2806 -0.6169
16743TIP3    H171720   0.763   1.453  16.244 -1.4514 -0.0053  0.7254
16743TIP3    H271721   0.670   1.456  16.125  0.8236  0.1687 -1.1273
16744TIP3   OH271722   4.108   2.982   3.371 -0.0242 -0.1330 -0.0352
16744TIP3    H171723   4.039   2.945   3.316  0.6402 -0.4850 -0.6458
16744TIP3    H271724   4.189   2.963   3.324  0.4088  1.2680  0.1126
16745TIP3   OH271725   5.367   0.778  11.746  1.1329  0.3976  0.2046
16745TIP3    H171726   5.325   0.805  11.827  1.6566  0.3652  0.4921
16745TIP3    H271727   5.318   0.700  11.718 -0.4839  1.6988 -0.7159
16746TIP3   OH271728   0.010   4.624  16.795 -0.0756 -0.6524  0.0402
16746TIP3    H171729  -0.047   4.559  16.835  2.3726 -2.0213  1.4773
16746TIP3    H271730   0.052   4.578  16.722  2.2575 -1.0661  1.5355
16747TIP3   OH271731   0.778   4.958  10.686  0.8354 -0.1646 -0.4803
16747TIP3    H171732   0.749   5.013  10.613 -1.2715 -0.6015 -0.0406
16747TIP3    H271733   0.762   4.868  10.655 -1.2335 -0.3300  0.9044
16748TIP3   OH271734   3.483   0.436   3.243  0.5465  0.1012 -0.3332
16748TIP3    H171735   3.426   0.509   3.217 -0.4982 -0.1117  1.2245
16748TIP3    H271736   3.423   0.363   3.257  1.3307 -0.4396  0.2696
16749TIP3   OH271737   6.654   1.254  12.010  0.1062 -0.2459 -0.4329
16749TIP3    H171738   6.631   1.216  12.094  0.9913 -1.1078 -0.5699
16749TIP3    H271739   6.583   1.227  11.952  0.0954 -0.6443 -0.2365
16750TIP3   OH271740   2.136   6.683  12.142 -0.2671 -0.5942 -0.1909
16750TIP3    H171741   2.195   6.632  12.087  0.5925  0.3761 -0.1848
16750TIP3    H271742   2.102   6.619  12.205  2.8829 -0.7224  1.5674
16751TIP3   OH271743   4.169   1.739   2.837  0.1047 -0.0070 -0.6998
16751TIP3    H171744   4.195   1.671   2.900  0.5349  0.1989 -0.6487
16751TIP3    H271745   4.193   1.821   2.880  0.0254  0.1540 -0.9618
16752TIP3   OH271746   2.918   1.845  14.185 -0.6109  0.0065  0.3223
16752TIP3    H171747   2.841   1.883  14.142 -2.0729  0.1887  2.9161
16752TIP3    H271748   2.937   1.767  14.133  0.2447  2.1600 -2.9735
16753TIP3   OH271749   5.668   5.277   0.659 -0.9830  0.3018  0.2016
16753TIP3    H171750   5.633   5.245   0.742 -1.0587  0.4716  0.2349
16753TIP3    H271751   5.675   5.198   0.605 -0.0444  0.0446  0.6803
16754TIP3   OH271752   3.072   2.421   0.721 -0.3034 -0.2788 -0.5067
16754TIP3    H171753   3.026   2.460   0.647 -0.4782  1.6796  0.5552
16754TIP3    H271754   3.160   2.403   0.688 -0.3451  0.6823 -1.1690
16755TIP3   OH271755   2.177   2.639   5.736  0.5661  0.4436 -0.2045
16755TIP3    H171756   2.143   2.581   5.667  1.5848 -0.6177  0.1667
16755TIP3    H271757   2.123   2.619   5.812 -0.3985  1.4422 -0.5959
16756TIP3   OH271758   2.181   3.624   0.232  0.1647  0.4039 -0.7257
16756TIP3    H171759   2.246   3.660   0.292  1.5201  0.0675 -1.9282
16756TIP3    H271760   2.097   3.638   0.275  1.0271  0.9489  0.8302
16757TIP3   OH271761   0.173   1.833   2.268  0.6630 -0.0055  0.5422
16757TIP3    H171762   0.113   1.766   2.301  0.6126  0.1967  0.8546
16757TIP3    H271763   0.244   1.782   2.227 -0.7508 -0.2608 -1.7566
16758TIP3   OH271764   0.117   2.305  15.504 -0.0102 -0.1346 -0.6689
16758TIP3    H171765   0.149   2.287  15.592  0.3883 -1.4051 -1.0556
16758TIP3    H271766   0.033   2.350  15.517  0.4479  0.4337  0.3500
16759TIP3   OH271767   6.594   3.581   3.769 -0.0807 -0.0670  0.5053
16759TIP3    H171768   6.561   3.571   3.679 -0.6708  1.5706  0.5043
16759TIP3    H271769   6.594   3.492   3.805 -0.8994 -0.6010 -0.7472
16760TIP3   OH271770   5.658   4.219   0.999 -0.0160 -0.1827  0.0962
16760TIP3    H171771   5.635   4.126   0.992  0.1377 -0.1595 -0.7756
16760TIP3    H271772   5.749   4.224   0.971  0.9624 -0.1742  2.9284
16761TIP3   OH271773   6.117   6.156   6.294  0.0068  0.1114  0.2053
16761TIP3    H171774   6.172   6.143   6.216  0.6184 -0.5590  0.7431
16761TIP3    H271775   6.174   6.201   6.356  0.4123 -1.8227  1.2853
16762TIP3   OH271776   6.242   5.404   3.122 -0.4432 -0.1194 -0.5090
16762TIP3    H171777   6.298   5.461   3.069  0.2117 -0.9259 -0.7232
16762TIP3    H271778   6.257   5.317   3.085  0.2346 -0.7584  1.1575
16763TIP3   OH271779   0.783   2.341  11.348  0.0523  0.8475  0.5238
16763TIP3    H171780   0.784   2.335  11.443 -0.7930 -0.5317  0.4707
16763TIP3    H271781   0.728   2.269  11.320 -0.9598  2.1406 -0.9584
16764TIP3   OH271782   3.794   1.979  10.318  0.2898  0.3316 -0.5943
16764TIP3    H171783   3.805   1.888  10.344  2.5279  0.9505  0.9680
16764TIP3    H271784   3.746   2.020  10.390  0.8076  0.7154 -0.4542
16765TIP3   OH271785   5.767   4.818  16.298  0.8556  0.0506  0.1573
16765TIP3    H171786   5.855   4.799  16.330  0.4002 -2.1368  0.2548
16765TIP3    H271787   5.760   4.914  16.303  2.3140  0.1097  2.5336
16766TIP3   OH271788   2.842   4.074   2.101 -0.7750  0.3005  0.1698
16766TIP3    H171789   2.844   4.076   2.005 -1.7402  0.0158  0.1328
16766TIP3    H271790   2.919   4.125   2.127  0.2821 -0.7588 -0.7473
16767TIP3   OH271791   6.261   0.636   5.136 -0.0327  0.2256 -0.1578
16767TIP3    H171792   6.278   0.725   5.106 -1.4619  0.5136 -0.1755
16767TIP3    H271793   6.206   0.646   5.213 -2.9156 -0.6299 -1.9375
16768TIP3   OH271794   2.778   4.324   1.067 -0.0792 -0.3652 -0.5196
16768TIP3    H171795   2.743   4.280   0.990  0.4303  0.2000 -1.0805
16768TIP3    H271796   2.727   4.405   1.074  0.7949  0.2581 -1.0946
16769TIP3   OH271797   2.869   5.747   2.316 -0.1996  0.3190  0.5913
16769TIP3    H171798   2.856   5.823   2.259  0.5234  0.2458  0.3167
16769TIP3    H271799   2.948   5.768   2.366 -0.7960  0.3569  1.5312
16770TIP3   OH271800   3.644   2.480  13.013  0.6704  0.0678  0.9965
16770TIP3    H171801   3.705   2.463  13.085  1.0542 -0.3515  0.5797
16770TIP3    H271802   3.698   2.517  12.944  1.1331 -3.0886 -0.5409
16771TIP3   OH271803   5.917   6.162  11.986  0.0098  0.4684  0.2544
16771TIP3    H171804   5.981   6.233  11.993  0.7720 -0.1747  0.0203
16771TIP3    H271805   5.952   6.094  12.043 -1.0736  0.5294  1.0281
16772TIP3   OH271806   6.878   3.186   2.340  0.3978 -0.3547 -0.1080
16772TIP3    H171807   6.957   3.137   2.315  0.3502 -1.4817  1.7611
16772TIP3    H271808   6.839   3.134   2.410 -0.9501  1.1944  0.3454
16773TIP3   OH271809   2.459   6.314  10.227 -0.0751 -0.1861  0.0436
16773TIP3    H171810   2.370   6.329  10.192 -0.5908 -0.4895  1.1912
16773TIP3    H271811   2.490   6.237  10.180  0.5933  1.3616 -2.1968
16774TIP3   OH271812   4.369   5.564  10.062 -0.4704 -0.2379  0.0890
16774TIP3    H171813   4.311   5.639  10.049 -1.4032 -0.7846  0.9778
16774TIP3    H271814   4.310   5.489  10.066  0.4071 -0.9627 -0.2594
16775TIP3   OH271815   0.545   0.311  12.275 -0.0529  0.2074 -0.2694
16775TIP3    H171816   0.505   0.273  12.353  1.3268  0.5783  0.6583
16775TIP3    H271817   0.472   0.328  12.216 -1.2888  1.0364  1.4235
16776TIP3   OH271818   4.106   1.156  15.533  0.3169 -0.0067  0.0195
16776TIP3    H171819   4.102   1.191  15.622  1.1630  0.5170 -0.1304
16776TIP3    H271820   4.018   1.122  15.517  0.0980  0.0567  0.9828
16777TIP3   OH271821   3.740   1.426  12.733 -0.1427  0.7576 -0.0807
16777TIP3    H171822   3.655   1.412  12.774 -0.4136  1.0582 -0.5325
16777TIP3    H271823   3.776   1.502  12.779  1.6478 -1.6377  2.8821
16778TIP3   OH271824   0.989   1.895   1.279  0.4551 -0.6442 -0.0103
16778TIP3    H171825   0.978   1.835   1.352  1.4019  0.2730  0.9193
16778TIP3    H271826   1.055   1.958   1.309  0.2405  0.2581 -1.3322
16779TIP3   OH271827   4.944   6.165  16.505  0.5427 -0.1006 -0.0345
16779TIP3    H171828   4.904   6.147  16.590  1.4089  1.2557  0.6886
16779TIP3    H271829   4.996   6.244  16.519 -0.1034  0.7548 -2.0905
16780TIP3   OH271830   1.089   1.130   5.498  0.0525  0.4802 -0.7305
16780TIP3    H171831   1.035   1.054   5.476  0.4005  0.0902 -0.2777
16780TIP3    H271832   1.161   1.093   5.550  0.9988  0.9246 -1.6898
16781TIP3   OH271833   1.586   6.592   5.764  0.1051 -1.0355  0.1357
16781TIP3    H171834   1.621   6.641   5.837 -1.2371  0.4623 -0.1745
16781TIP3    H271835   1.493   6.617   5.760  0.1929 -0.8469 -2.2154
16782TIP3   OH271836   4.771   4.538   2.757  0.7335 -0.0025 -0.2339
16782TIP3    H171837   4.765   4.545   2.852 -0.5782 -0.1509 -0.2914
16782TIP3    H271838   4.788   4.628   2.728  1.3018  0.0185  0.1320
16783TIP3   OH271839   1.816   3.591  13.065 -0.0213 -0.1736  0.3059
16783TIP3    H171840   1.799   3.497  13.055  3.1783 -0.7895 -0.3835
16783TIP3    H271841   1.888   3.609  13.004 -0.3770  2.7194  0.5899
16784TIP3   OH271842   3.686   0.331  12.118 -0.5560 -0.6962 -0.0686
16784TIP3    H171843   3.709   0.415  12.158  1.0971 -1.7245  1.2277
16784TIP3    H271844   3.592   0.322  12.136 -0.7747  0.8383 -0.2324
16785TIP3   OH271845   6.006   1.566  11.478  0.3110  0.3060  0.8241
16785TIP3    H171846   5.984   1.655  11.508 -3.5503  0.8119 -2.5562
16785TIP3    H271847   5.928   1.514  11.500  0.6492 -1.1173 -1.1127
16786TIP3   OH271848   3.783   1.829  13.813  0.0373  0.4752  0.0637
16786TIP3    H171849   3.818   1.770  13.880  1.1979  1.1068  0.0307
16786TIP3    H271850   3.804   1.917  13.845  0.0272  0.8057 -0.8170
16787TIP3   OH271851   5.832   5.309  13.419  0.2732 -0.1887  0.2612
16787TIP3    H171852   5.917   5.319  13.376 -0.3090  0.1291 -0.8683
16787TIP3    H271853   5.830   5.217  13.447  1.9215  0.3710  2.4340
16788TIP3   OH271854   0.714   0.429  10.414  0.1945 -0.0105 -0.2843
16788TIP3    H171855   0.741   0.418  10.505  0.7900 -1.0352 -0.5637
16788TIP3    H271856   0.661   0.352  10.395  0.1949  0.1238 -0.8451
16789TIP3   OH271857   3.977   2.801  10.397 -0.5766 -0.3202 -0.1022
16789TIP3    H171858   3.990   2.891  10.425 -0.4505 -0.7106  1.1262
16789TIP3    H271859   3.951   2.754  10.476  0.4277 -1.5746 -0.4811
16790TIP3   OH271860   3.856   3.240  11.181 -0.0160 -0.4168  0.7204
16790TIP3    H171861   3.850   3.303  11.252 -0.9525  1.0700 -0.6151
16790TIP3    H271862   3.877   3.157  11.224 -0.6579  0.4068  2.7163
16791TIP3   OH271863   4.102   2.262  11.082 -0.0923  0.3085 -0.0210
16791TIP3    H171864   4.182   2.223  11.048  1.1679  2.6054  0.1386
16791TIP3    H271865   4.032   2.210  11.043  1.4331 -1.1586 -0.9407
16792TIP3   OH271866   3.154   6.553  16.445  0.1484 -0.3045  0.5518
16792TIP3    H171867   3.203   6.593  16.373  0.0133 -2.0984 -0.6023
16792TIP3    H271868   3.099   6.624  16.479 -0.9804  0.2393 -2.1555
16793TIP3   OH271869   5.803   1.931   0.601 -0.3752  0.0785 -0.2973
16793TIP3    H171870   5.761   1.931   0.515  0.9302 -0.3065 -0.9787
16793TIP3    H271871   5.834   1.841   0.612  2.8949  0.9598 -1.2334
16794TIP3   OH271872   5.362   3.906  15.924 -0.3214  1.1005  0.0091
16794TIP3    H171873   5.308   3.939  15.852 -1.3552 -0.4182  0.0411
16794TIP3    H271874   5.336   3.957  16.000 -0.6489  1.3816 -0.2898
16795TIP3   OH271875   4.433   4.344   1.440  0.3563 -0.0794 -0.6223
16795TIP3    H171876   4.375   4.286   1.490  0.0301 -1.4573 -2.4907
16795TIP3    H271877   4.486   4.387   1.507 -0.8806 -0.8983  0.9797
16796TIP3   OH271878   3.881   1.113  14.855 -0.6081  0.0935 -0.1836
16796TIP3    H171879   3.956   1.172  14.858 -0.3267 -0.2019 -1.0566
16796TIP3    H271880   3.900   1.054  14.782 -2.2861  0.8307 -1.2810
16797TIP3   OH271881   4.938   4.055  12.841 -0.2691  0.3075 -0.4919
16797TIP3    H171882   4.878   4.015  12.904  0.6929  1.1184  1.0026
16797TIP3    H271883   5.003   3.988  12.824  0.1273  0.4734  0.3224
16798TIP3   OH271884   5.591   4.761   4.293 -0.7009 -0.5980  0.5366
16798TIP3    H171885   5.499   4.787   4.294 -0.7005 -0.5781  0.2410
16798TIP3    H271886   5.633   4.824   4.234 -0.0128  0.9721  2.5636
16799TIP3   OH271887   3.183   1.910   3.334  0.0018 -0.0858 -0.1008
16799TIP3    H171888   3.097   1.874   3.357  0.1192 -0.4953 -0.3076
16799TIP3    H271889   3.178   2.002   3.361 -0.7475  0.0732 -0.7660
16800TIP3   OH271890   4.889   5.894  11.028  0.0617  0.0305 -0.0204
16800TIP3    H171891   4.947   5.834  11.074 -0.6656 -1.2947 -0.7857
16800TIP3    H271892   4.947   5.947  10.974  0.7378  0.2650  0.8971
16801TIP3   OH271893   5.553   0.377   4.079 -0.3989  0.7525  0.0153
16801TIP3    H171894   5.562   0.429   4.158  0.3428  0.8542 -0.1220
16801TIP3    H271895   5.585   0.290   4.103 -1.8566  0.2750  0.3100
16802TIP3   OH271896   4.097   0.603   5.131  0.3010 -0.1594 -0.5721
16802TIP3    H171897   4.168   0.658   5.164  0.3076  0.6387 -1.8716
16802TIP3    H271898   4.043   0.585   5.209  0.6715  1.1129  0.0043
16803TIP3   OH271899   0.012   3.416  10.497  0.5537  0.1091 -0.1722
16803TIP3    H171900   0.098   3.423  10.456  0.1645 -1.6087 -1.4261
16803TIP3    H271901  -0.047   3.457  10.434  0.4202  1.3090  0.6971
16804TIP3   OH271902   3.730   5.241   1.726 -0.1970  0.4034  0.2825
16804TIP3    H171903   3.738   5.289   1.644 -1.6155  1.0217  0.4775
16804TIP3    H271904   3.686   5.160   1.702 -0.2185  0.3903  0.3649
16805TIP3   OH271905   2.621   5.919  15.665  0.5633 -0.5389 -0.0380
16805TIP3    H171906   2.641   5.944  15.575  1.2988 -0.1974  0.2107
16805TIP3    H271907   2.563   5.843  15.657  0.6428 -0.5246 -0.7956
16806TIP3   OH271908   6.479   0.812  13.020  0.1365 -0.1872  0.0963
16806TIP3    H171909   6.461   0.776  13.107 -0.5324  1.0365  0.4754
16806TIP3    H271910   6.430   0.755  12.960 -1.4100  0.4286  0.7405
16807TIP3   OH271911   5.940   0.893   3.817 -0.1037 -0.3850 -0.2192
16807TIP3    H171912   5.972   0.981   3.796 -1.2152  0.0941  0.0574
16807TIP3    H271913   5.904   0.860   3.735 -0.5606 -0.1997 -0.0947
16808TIP3   OH271914   6.054   0.188   3.842  0.0057 -0.3532 -0.0896
16808TIP3    H171915   6.124   0.247   3.870 -0.0004  0.2108 -1.2040
16808TIP3    H271916   5.976   0.220   3.888  0.4223 -0.8676  1.0078
16809TIP3   OH271917   1.756   3.341   2.871  0.2539  0.3105  0.0020
16809TIP3    H171918   1.826   3.311   2.929  2.5993  0.3274 -2.5908
16809TIP3    H271919   1.747   3.434   2.891  0.5818  0.1895  0.7490
16810TIP3   OH271920   4.925   5.814   4.938  0.1358  0.1561  0.3088
16810TIP3    H171921   4.966   5.826   5.023  0.8455 -0.7012  0.0995
16810TIP3    H271922   4.900   5.722   4.935  1.3670 -0.1700 -0.9416
16811TIP3   OH271923   2.020   5.848  14.610  0.6487 -0.4360 -0.5785
16811TIP3    H171924   2.047   5.779  14.671 -2.2231 -0.8123  0.4052
16811TIP3    H271925   2.018   5.928  14.662 -0.6803 -0.5399 -0.4410
16812TIP3   OH271926   4.893   5.203  13.453  0.0973 -0.3361  0.7335
16812TIP3    H171927   4.804   5.231  13.433  0.1402  0.5949  1.7458
16812TIP3    H271928   4.882   5.135  13.520  0.1285 -0.4436  0.6287
16813TIP3   OH271929   0.053   2.859  12.335 -0.3764 -0.1451 -0.3362
16813TIP3    H171930   0.108   2.884  12.409 -0.0545  0.4615 -0.7832
16813TIP3    H271931   0.085   2.772  12.310 -1.3833 -0.9721  1.0993
16814TIP3   OH271932   2.589   6.356   4.192  0.2454 -0.5894 -0.2818
16814TIP3    H171933   2.617   6.436   4.236  1.3577 -1.2171  0.1649
16814TIP3    H271934   2.650   6.345   4.119  0.5453 -1.4023  0.0753
16815TIP3   OH271935   5.538   0.473  11.326  0.5126 -0.7963 -0.0904
16815TIP3    H171936   5.560   0.558  11.365  0.1590  0.5247 -2.6136
16815TIP3    H271937   5.622   0.436  11.302  0.5803  1.2796 -3.6966
16816TIP3   OH271938   4.537   5.506  14.026  0.2316 -0.2536 -0.3652
16816TIP3    H171939   4.527   5.423  14.071 -1.9514 -0.3916 -0.9773
16816TIP3    H271940   4.603   5.553  14.076 -0.9745 -0.9862  2.0714
16817TIP3   OH271941   6.525   5.341   1.233  0.2635 -0.3997  0.5043
16817TIP3    H171942   6.463   5.270   1.248 -0.4385  0.3002  0.9893
16817TIP3    H271943   6.495   5.411   1.290  0.9364  0.2974  0.0185
16818TIP3   OH271944   5.580   6.298  16.365 -0.0674  0.4183  0.0597
16818TIP3    H171945   5.623   6.241  16.301  0.1848  0.6286  0.0413
16818TIP3    H271946   5.588   6.386  16.329  0.7803  0.6424  0.7594
16819TIP3   OH271947   1.316   3.146  14.919  0.2898  0.2575  0.2219
16819TIP3    H171948   1.294   3.100  15.000  1.0329 -0.0883  0.2315
16819TIP3    H271949   1.285   3.236  14.934 -1.1266 -0.2041  0.2119
16820TIP3   OH271950   3.234   5.573  12.947 -0.5044 -0.1289 -0.0028
16820TIP3    H171951   3.174   5.582  12.873  0.2392 -0.1558 -0.6178
16820TIP3    H271952   3.239   5.660  12.986  1.0289  0.5286 -1.5167
16821TIP3   OH271953   1.529   4.102  10.873  0.0607  0.1875 -0.3327
16821TIP3    H171954   1.541   4.192  10.843 -2.2606  0.2786 -1.2272
16821TIP3    H271955   1.512   4.110  10.967  0.6513  0.5980 -0.2585
16822TIP3   OH271956   6.349   5.299  12.269  0.2866 -0.0670 -0.5021
16822TIP3    H171957   6.311   5.289  12.356  4.0389  1.2319  1.4983
16822TIP3    H271958   6.310   5.228  12.218 -1.6954 -1.2043  2.3166
16823TIP3   OH271959   0.579   6.512  13.272 -0.5705  0.2037 -0.0692
16823TIP3    H171960   0.614   6.597  13.244 -0.7998  0.4676  0.4356
16823TIP3    H271961   0.626   6.493  13.353  1.9360 -1.7221 -1.7853
16824TIP3   OH271962   4.651   0.425  12.671 -0.0237 -0.1291  0.7594
16824TIP3    H171963   4.717   0.488  12.697  0.9144 -0.7090 -0.1268
16824TIP3    H271964   4.699   0.362  12.617 -1.2834 -0.6260  0.1971
16825TIP3   OH271965   4.470   3.405   2.139 -0.1840 -0.2220 -0.4147
16825TIP3    H171966   4.427   3.335   2.188 -1.7208  0.7745 -0.3082
16825TIP3    H271967   4.498   3.363   2.057  1.3799 -1.6110  0.7699
16826TIP3   OH271968   0.997   1.384  16.482  0.1106  0.2632  0.0403
16826TIP3    H171969   0.934   1.441  16.437  0.2711  0.3384 -0.0866
16826TIP3    H271970   1.048   1.444  16.537  1.2478  0.4439 -1.1732
16827TIP3   OH271971   0.783   0.447  13.811  0.2591 -0.1917  0.0957
16827TIP3    H171972   0.804   0.465  13.903  0.3576 -3.0095  0.7198
16827TIP3    H271973   0.823   0.519  13.763 -1.5075  2.5395  2.3270
16828TIP3   OH271974   2.807   0.353   6.258 -0.0030 -0.4318 -0.2721
16828TIP3    H171975   2.878   0.326   6.200  0.8595  1.9212 -0.4317
16828TIP3    H271976   2.775   0.435   6.219 -0.0744  0.6856  2.0138
16829TIP3   OH271977   1.042   5.397  12.688  0.0002 -0.4639  0.0263
16829TIP3    H171978   0.977   5.412  12.757  0.3641 -0.9574  0.4864
16829TIP3    H271979   1.051   5.302  12.684  1.0138 -0.3864  0.2629
16830TIP3   OH271980   0.246   4.658   1.974 -0.0326  0.1037  0.1257
16830TIP3    H171981   0.323   4.613   2.009  1.2696  0.4102 -2.1882
16830TIP3    H271982   0.251   4.645   1.880 -0.9839  2.9633 -0.4121
16831TIP3   OH271983   3.999   2.043   4.188 -0.1415  0.3311  0.2430
16831TIP3    H171984   4.084   2.045   4.144 -0.6634  0.4633 -0.7966
16831TIP3    H271985   4.002   1.965   4.243  0.9221  0.7394  0.7969
16832TIP3   OH271986   0.838   1.353   5.396 -0.0674  0.6996  0.3508
16832TIP3    H171987   0.828   1.298   5.318  1.0321 -1.0795  1.4006
16832TIP3    H271988   0.903   1.419   5.370 -0.3032  0.6081 -0.4911
16833TIP3   OH271989   4.460   2.401  11.184 -0.7214 -0.2760 -0.4540
16833TIP3    H171990   4.525   2.352  11.134 -0.9035  1.0696 -2.0930
16833TIP3    H271991   4.414   2.335  11.235 -0.6033 -1.7456 -2.1563
16834TIP3   OH271992   5.489   1.114  16.618 -0.0414  0.3815 -0.1535
16834TIP3    H171993   5.560   1.129  16.556  0.1249 -0.2769 -0.1358
16834TIP3    H271994   5.435   1.193  16.613  1.5213  1.5997  0.9775
16835TIP3   OH271995   5.151   1.951   1.283 -0.0828 -0.5593 -0.2725
16835TIP3    H171996   5.174   1.859   1.289 -0.4964 -0.5867  1.2377
16835TIP3    H271997   5.055   1.951   1.274 -0.1712 -0.2590  0.6245
16836TIP3   OH271998   0.445   5.230   4.627 -0.2417 -0.3876 -0.1344
16836TIP3    H171999   0.455   5.322   4.605  0.4774 -1.0082 -2.8425
16836TIP3    H272000   0.533   5.193   4.613 -0.2963 -1.3564  1.7918
16837TIP3   OH272001   6.816   6.763   1.319 -0.4730  0.8103 -0.2838
16837TIP3    H172002   6.752   6.716   1.267  0.8978  0.6417 -1.9331
16837TIP3    H272003   6.897   6.758   1.267  0.6729  1.6593  1.3326
16838TIP3   OH272004   3.455   0.172  16.188 -0.6415 -0.1931  0.3972
16838TIP3    H172005   3.530   0.118  16.162 -0.2555  0.4148  0.2250
16838TIP3    H272006   3.425   0.133  16.270  0.5834  0.2464  1.0719
16839TIP3   OH272007   4.022   2.180   2.912 -0.2336  0.2619 -0.3359
16839TIP3    H172008   4.108   2.218   2.930 -0.4989  0.7583 -0.1036
16839TIP3    H272009   4.033   2.132   2.830  0.2184  0.4725 -0.3984
16840TIP3   OH272010   3.922   0.473  10.983  0.7023 -0.0995 -0.0355
16840TIP3    H172011   3.992   0.536  10.997  0.5921 -0.3085  1.6342
16840TIP3    H272012   3.845   0.526  10.963  1.1432  0.1603 -1.1366
16841TIP3   OH272013   6.588   1.450  12.727 -0.0324 -0.4647 -0.4685
16841TIP3    H172014   6.613   1.442  12.635 -0.3035  0.0628 -0.5943
16841TIP3    H272015   6.522   1.383  12.740 -2.7299  1.7473 -1.6609
16842TIP3   OH272016   3.934   2.784  13.831  0.2675 -0.2523  0.1231
16842TIP3    H172017   3.848   2.822  13.845 -0.1649 -1.4565  0.8709
16842TIP3    H272018   3.922   2.690  13.842  1.6518 -0.4610  0.1314
16843TIP3   OH272019   3.029   1.526  16.424 -0.0254  0.3103 -0.0229
16843TIP3    H172020   2.935   1.507  16.425  0.0838 -0.3392  2.1722
16843TIP3    H272021   3.036   1.613  16.384 -1.4163 -0.1315 -1.3360
16844TIP3   OH272022   3.449   1.335   4.297  0.3961 -0.1796  0.0528
16844TIP3    H172023   3.376   1.293   4.251 -1.1612 -0.1419  2.3231
16844TIP3    H272024   3.409   1.409   4.344  2.0835  0.4632  0.5489
16845TIP3   OH272025   6.545   4.778  10.431 -0.1121 -0.3081  0.2757
16845TIP3    H172026   6.522   4.801  10.341  0.0523  1.0982  0.5647
16845TIP3    H272027   6.514   4.852  10.483  0.3221 -0.8312  1.3094
16846TIP3   OH272028   2.285   0.500   4.829 -0.4043 -0.0150 -0.2664
16846TIP3    H172029   2.193   0.523   4.844 -0.0779  0.0885  2.0330
16846TIP3    H272030   2.283   0.431   4.763 -1.9549  1.3883 -1.7785
16847TIP3   OH272031   5.683   1.656  15.453  0.3464  0.2362 -0.1718
16847TIP3    H172032   5.595   1.645  15.488  0.1862  1.4807 -0.1449
16847TIP3    H272033   5.671   1.711  15.375  0.9186 -0.9195 -1.1214
16848TIP3   OH272034   0.153   0.980   4.537 -0.3467 -0.4205  0.1803
16848TIP3    H172035   0.110   0.940   4.461  2.5882  0.1634 -2.0077
16848TIP3    H272036   0.113   1.067   4.544 -1.7003 -1.0395  0.2838
16849TIP3   OH272037   0.101   4.578  12.453  0.3047  0.0892 -0.0846
16849TIP3    H172038   0.145   4.585  12.368 -1.6792  0.2122 -1.1609
16849TIP3    H272039   0.099   4.484  12.471 -1.2901 -0.1794 -1.3671
16850TIP3   OH272040   0.190   0.308  14.855 -0.0577  0.8510  0.1604
16850TIP3    H172041   0.156   0.381  14.803 -1.6995  0.2246  0.2660
16850TIP3    H272042   0.255   0.348  14.913  0.5881  1.8486 -1.1870
16851TIP3   OH272043   3.190   1.584   0.898 -0.2003 -0.0554 -0.6347
16851TIP3    H172044   3.167   1.556   0.986 -0.0526  3.1746  0.5674
16851TIP3    H272045   3.286   1.587   0.898 -0.2316  1.6603 -0.2507
16852TIP3   OH272046   3.361   5.544   4.835  0.1671  0.0419 -0.1902
16852TIP3    H172047   3.268   5.564   4.823  1.1064  5.2052 -1.4873
16852TIP3    H272048   3.393   5.521   4.748  0.1221 -2.2786  0.3484
16853TIP3   OH272049   6.812   0.804  12.042  0.7340 -0.0955 -0.1056
16853TIP3    H172050   6.719   0.827  12.046  0.6586 -0.5399  1.5852
16853TIP3    H272051   6.840   0.832  11.955 -0.8283  0.6119 -0.4212
16854TIP3   OH272052   0.389   6.852  10.762  0.1812  0.3687  0.3500
16854TIP3    H172053   0.359   6.831  10.850  2.2109  0.1933  1.0395
16854TIP3    H272054   0.346   6.936  10.741 -1.2468 -0.1784  0.9934
16855TIP3   OH272055   3.162   3.798  14.812 -0.3091 -0.3371  0.2256
16855TIP3    H172056   3.256   3.814  14.808 -0.3121  0.0449  1.2240
16855TIP3    H272057   3.144   3.742  14.737  0.9355 -1.4657  0.7274
16856TIP3   OH272058   2.159   0.335   4.651  0.2328 -0.1308  0.2791
16856TIP3    H172059   2.096   0.362   4.584 -0.8241  1.0623  1.7067
16856TIP3    H272060   2.130   0.247   4.676 -0.2681  0.0151  0.2245
16857TIP3   OH272061   5.956   6.860  13.906  0.1195  0.2739 -0.0346
16857TIP3    H172062   5.961   6.921  13.980  2.2019 -0.9541  0.9002
16857TIP3    H272063   5.917   6.781  13.942 -0.6403  0.2947 -0.7577
16858TIP3   OH272064   5.419   6.790   0.560  0.1596 -0.2067 -0.2402
16858TIP3    H172065   5.474   6.833   0.493  0.1048  0.0775 -0.1056
16858TIP3    H272066   5.345   6.850   0.572  1.0691  0.6440  1.3865
16859TIP3   OH272067   6.746   4.788   3.012  0.1272  0.1177 -0.3303
16859TIP3    H172068   6.719   4.779   2.921  2.7884 -0.6282 -1.1504
16859TIP3    H272069   6.668   4.819   3.058 -0.7789  2.4626 -3.1728
16860TIP3   OH272070   4.563   3.494   3.401 -0.3092 -0.6376 -0.2388
16860TIP3    H172071   4.601   3.577   3.431 -1.5107 -0.6725  1.5431
16860TIP3    H272072   4.495   3.520   3.339  0.8635 -0.4534 -1.5041
16861TIP3   OH272073   2.911   0.129  14.805  0.1332  0.5759 -0.1314
16861TIP3    H172074   2.999   0.147  14.838  0.1381 -0.6635  0.5991
16861TIP3    H272075   2.854   0.151  14.879  0.2096 -3.1729  1.2371
16862TIP3   OH272076   4.045   3.529   3.795 -0.1806  0.1210  0.1452
16862TIP3    H172077   4.068   3.579   3.716 -0.0271 -0.6005 -0.2804
16862TIP3    H272078   3.966   3.482   3.771  0.0656 -0.3807  0.2973
16863TIP3   OH272079   6.465   4.180   2.853 -0.1830  0.5926 -0.5145
16863TIP3    H172080   6.395   4.139   2.903 -0.2722  0.3417 -0.8439
16863TIP3    H272081   6.494   4.113   2.792 -0.1701  0.9428 -0.8991
16864TIP3   OH272082   0.193   6.753   2.788  0.4570  0.2522  0.4239
16864TIP3    H172083   0.171   6.660   2.780 -1.7036  0.8554 -1.8250
16864TIP3    H272084   0.135   6.785   2.857  2.3434 -0.2779  2.3850
16865TIP3   OH272085   6.303   1.200   4.905 -0.3084 -0.2125  0.2097
16865TIP3    H172086   6.303   1.108   4.881 -1.0932 -0.2093  0.1742
16865TIP3    H272087   6.383   1.212   4.956  0.4688 -0.6130 -0.8921
16866TIP3   OH272088   4.030   0.726   4.810  0.1265 -0.3585  0.0565
16866TIP3    H172089   4.020   0.764   4.898  1.1057 -1.7347  0.8137
16866TIP3    H272090   4.122   0.699   4.806  0.1467 -0.1294 -1.4917
16867TIP3   OH272091   6.195   0.118   4.182  0.2316  0.4799 -0.8791
16867TIP3    H172092   6.224   0.206   4.205 -0.5944  0.2521  1.2459
16867TIP3    H272093   6.265   0.084   4.126  0.7806  2.3079 -1.3608
16868TIP3   OH272094   4.071   6.746   2.336  0.4093  0.6725  0.4585
16868TIP3    H172095   3.985   6.717   2.364  0.5553 -0.8347 -0.5711
16868TIP3    H272096   4.057   6.834   2.301 -0.4869  0.8915  1.3426
16869TIP3   OH272097   0.692   3.732   3.521  0.1843  0.4471 -0.7842
16869TIP3    H172098   0.770   3.787   3.534  0.4273  0.3095 -1.5966
16869TIP3    H272099   0.635   3.753   3.595  1.0129  0.5148 -0.1490
16870TIP3   OH272100   2.220   0.366   5.768  0.1665 -0.4379 -0.8165
16870TIP3    H172101   2.127   0.390   5.767 -0.0380 -1.1697 -0.2822
16870TIP3    H272102   2.265   0.448   5.786 -0.4504 -0.2527 -0.0195
16871TIP3   OH272103   6.090   1.977   0.076 -0.1229 -0.3354 -0.3976
16871TIP3    H172104   6.151   1.904   0.074  0.8325  0.3994  0.7993
16871TIP3    H272105   6.065   1.985   0.169 -2.4316 -0.9218 -0.9046
16872TIP3   OH272106   5.258   5.139  11.061 -0.0821 -0.5109  0.8367
16872TIP3    H172107   5.187   5.200  11.077 -0.1512 -0.5484  0.6704
16872TIP3    H272108   5.338   5.190  11.074 -0.1332 -0.6693  1.8346
16873TIP3   OH272109   0.227   5.720  16.459 -0.1464 -0.1126  0.3457
16873TIP3    H172110   0.273   5.757  16.384  1.0272 -1.4051  0.3873
16873TIP3    H272111   0.139   5.757  16.454  0.2080  0.6019 -1.0877
16874TIP3   OH272112   0.864   5.626  11.022  0.5618  0.4135 -0.2237
16874TIP3    H172113   0.904   5.691  11.080  2.8878 -0.8134 -0.3369
16874TIP3    H272114   0.933   5.604  10.959 -0.7838 -0.7872 -1.3500
16875TIP3   OH272115   2.499   3.023   5.703 -0.5924  0.2231 -0.3880
16875TIP3    H172116   2.465   2.944   5.746 -0.3687 -0.2991 -1.1656
16875TIP3    H272117   2.586   3.035   5.741 -0.6915  0.1973 -0.1477
16876TIP3   OH272118   3.356   0.068  12.685  0.0798  0.2035  0.3802
16876TIP3    H172119   3.437   0.075  12.635  0.4580 -2.8163  0.3914
16876TIP3    H272120   3.379   0.097  12.773  0.5317  1.4426 -0.1248
16877TIP3   OH272121   6.836   4.255  12.942  0.1607  0.2202 -0.1565
16877TIP3    H172122   6.851   4.160  12.949 -1.3304  0.0703  2.3370
16877TIP3    H272123   6.778   4.264  12.867 -1.7147 -1.2143  1.0186
16878TIP3   OH272124   0.587   2.285   3.176 -0.1831  0.4086  0.3040
16878TIP3    H172125   0.624   2.213   3.124 -1.6426  0.1904 -0.4944
16878TIP3    H272126   0.503   2.252   3.206 -0.3727  1.3855  0.8995
16879TIP3   OH272127   1.304   6.333  10.957  0.6807  0.2790  0.6203
16879TIP3    H172128   1.313   6.343  10.862 -0.1136 -0.6683  0.4240
16879TIP3    H272129   1.390   6.304  10.987  0.5421 -0.8746 -0.0393
16880TIP3   OH272130   0.914   0.221  15.997 -0.2849 -0.6532 -0.5133
16880TIP3    H172131   0.904   0.166  16.075 -0.7358 -0.0135 -0.1148
16880TIP3    H272132   0.974   0.290  16.023 -0.1909 -0.6140 -0.8305
16881TIP3   OH272133   4.658   2.905   0.101  0.3063 -0.4623 -0.1435
16881TIP3    H172134   4.637   2.960   0.026 -1.8868 -0.1154  0.6453
16881TIP3    H272135   4.751   2.886   0.092  0.3591  0.5498 -2.2795
16882TIP3   OH272136   3.391   6.559   6.574  0.0013 -0.0721 -0.7141
16882TIP3    H172137   3.384   6.580   6.481  1.1142 -0.3102 -0.8702
16882TIP3    H272138   3.484   6.543   6.588 -0.4479 -2.7767 -0.1701
16883TIP3   OH272139   2.160   2.686  11.026  0.0203  0.6232  0.5650
16883TIP3    H172140   2.102   2.761  11.015  0.5979  1.1168  0.8507
16883TIP3    H272141   2.185   2.689  11.119 -0.5746 -0.3793  0.7749
16884TIP3   OH272142   0.220   1.273   5.482  0.0717 -0.5804 -0.4361
16884TIP3    H172143   0.289   1.207   5.495 -0.3375 -0.9448 -0.1142
16884TIP3    H272144   0.264   1.342   5.433  0.8934 -0.4476  0.4454
16885TIP3   OH272145   2.335   1.241  12.118 -0.1991  0.2447 -0.0063
16885TIP3    H172146   2.248   1.239  12.079 -0.9559  0.4303  1.5690
16885TIP3    H272147   2.386   1.177  12.068 -1.1335  0.3833 -1.1724
16886TIP3   OH272148   0.783   0.541  16.207 -0.0915 -0.0583 -0.5072
16886TIP3    H172149   0.715   0.608  16.202 -1.3484 -1.3460 -1.5358
16886TIP3    H272150   0.771   0.488  16.128  1.5781 -0.8300 -0.2813
16887TIP3   OH272151   2.184   5.049   3.460 -0.2345 -0.1541 -0.6201
16887TIP3    H172152   2.155   5.050   3.368  0.0339  0.1854 -0.7018
16887TIP3    H272153   2.134   5.120   3.501  0.4163  0.3802 -0.7423
16888TIP3   OH272154   4.972   4.908  13.995  0.3411  0.2640  0.1901
16888TIP3    H172155   4.988   4.999  14.020 -1.2930  0.5743  0.1971
16888TIP3    H272156   4.877   4.901  13.989  0.4969 -0.8251 -2.0965
16889TIP3   OH272157   1.966   6.451   5.771 -0.2671  0.3336 -0.3848
16889TIP3    H172158   2.030   6.381   5.758 -0.3752  0.0669  0.4797
16889TIP3    H272159   1.937   6.473   5.682  1.1556  0.6002 -0.8147
16890TIP3   OH272160   4.067   0.201  11.732  0.0300 -0.5238 -0.6973
16890TIP3    H172161   3.986   0.207  11.782  1.5432  1.5577  1.8135
16890TIP3    H272162   4.069   0.280  11.678 -0.0017 -0.9989 -1.4014
16891TIP3   OH272163   4.797   0.378   4.038 -0.0234 -0.0230 -0.4828
16891TIP3    H172164   4.878   0.370   3.988 -0.2736 -0.0930 -0.8799
16891TIP3    H272165   4.811   0.455   4.095  0.4875 -0.3009 -0.2266
16892TIP3   OH272166   6.224   0.435  13.377  0.4122  0.0714  0.7083
16892TIP3    H172167   6.154   0.438  13.442  1.2876 -0.3997  1.7089
16892TIP3    H272168   6.184   0.396  13.299 -0.3713 -0.4300  1.3556
16893TIP3   OH272169   0.628   4.787  14.747 -0.3707  0.3861 -0.3418
16893TIP3    H172170   0.708   4.736  14.755 -1.5383 -1.3438  1.1223
16893TIP3    H272171   0.648   4.853  14.681  1.7904 -0.8589 -1.0262
16894TIP3   OH272172   3.943   1.211  12.303 -0.2971 -0.5095  0.1631
16894TIP3    H172173   3.960   1.271  12.376  1.0505 -2.0929  1.2067
16894TIP3    H272174   4.003   1.240  12.235 -0.0206 -0.3419  0.4723
16895TIP3   OH272175   1.437   1.618  10.611  0.1217 -0.1795 -0.1072
16895TIP3    H172176   1.475   1.553  10.670  1.0642 -0.5539 -1.0944
16895TIP3    H272177   1.483   1.699  10.631  0.0359 -0.1722  0.0607
16896TIP3   OH272178   6.299   2.681   3.534  0.2947  1.0153  0.6812
16896TIP3    H172179   6.361   2.613   3.561  2.2364  1.4305 -2.2439
16896TIP3    H272180   6.243   2.638   3.470  0.5629  1.7626 -0.0746
16897TIP3   OH272181   4.828   5.538   0.519  0.3780 -0.2279 -0.0257
16897TIP3    H172182   4.916   5.563   0.493 -0.2391 -0.4123 -2.6145
16897TIP3    H272183   4.825   5.443   0.508 -0.5685 -0.0505 -1.6101
16898TIP3   OH272184   5.534   1.904   0.787  0.4873 -0.4019 -0.0357
16898TIP3    H172185   5.560   1.824   0.834  2.1407 -0.1765 -0.4873
16898TIP3    H272186   5.617   1.940   0.755 -0.2664  1.3302 -0.1194
16899TIP3   OH272187   2.758   3.126   3.032 -0.2513  0.0345 -0.1799
16899TIP3    H172188   2.816   3.092   2.964  0.3110 -0.9779  0.7695
16899TIP3    H272189   2.670   3.116   2.995 -0.0510 -1.7263 -0.2808
16900TIP3   OH272190   0.593   3.717  12.060  0.0527  0.3761  0.2162
16900TIP3    H172191   0.657   3.694  12.128  0.9747 -0.4682 -0.8960
16900TIP3    H272192   0.645   3.757  11.991 -0.5724 -0.5301 -0.8141
16901TIP3   OH272193   2.609   6.549  13.861  0.3949 -0.1754  0.2932
16901TIP3    H172194   2.678   6.484  13.871  0.1446 -0.1609  3.2025
16901TIP3    H272195   2.599   6.586  13.949 -3.0556  0.0809 -0.0671
16902TIP3   OH272196   0.441   5.514  14.131 -0.0921 -0.2222  0.1120
16902TIP3    H172197   0.403   5.516  14.218 -0.0377 -0.2773  0.1372
16902TIP3    H272198   0.412   5.431  14.094  0.8125 -0.7308  0.4975
16903TIP3   OH272199   2.816   5.872  14.368 -0.5105  0.5604 -0.2926
16903TIP3    H172200   2.751   5.817  14.413 -0.3017  0.8861  0.4236
16903TIP3    H272201   2.768   5.951  14.343 -0.1289  1.3423  1.3298
16904TIP3   OH272202   6.846   2.967   4.939  0.2352 -0.1401 -0.7395
16904TIP3    H172203   6.836   2.899   5.006 -1.1966 -1.5343 -2.2704
16904TIP3    H272204   6.767   2.960   4.885 -0.2022  3.1050 -0.7134
16905TIP3   OH272205   0.478   2.078   2.450  0.3464 -0.1875  0.0951
16905TIP3    H172206   0.545   2.010   2.455 -0.2650 -0.7152  2.5944
16905TIP3    H272207   0.428   2.057   2.372  0.3074 -2.5567  0.6837
16906TIP3   OH272208   1.299   2.287  16.317  0.0303  0.2186 -0.9142
16906TIP3    H172209   1.220   2.268  16.266  0.4795  0.0311 -1.5492
16906TIP3    H272210   1.362   2.318  16.252  0.5492  0.1604 -0.4398
16907TIP3   OH272211   4.908   6.656   3.694 -0.0277  0.4371  0.2255
16907TIP3    H172212   4.850   6.599   3.745 -1.0119  1.3053  0.1139
16907TIP3    H272213   4.857   6.680   3.617  1.5615 -1.0988 -1.3855
16908TIP3   OH272214   3.702   3.281   3.030 -0.6943  0.4413  0.2584
16908TIP3    H172215   3.621   3.288   3.082 -1.1023 -1.0863 -0.1061
16908TIP3    H272216   3.754   3.357   3.055 -2.5441  1.8613 -0.0166
16909TIP3   OH272217   3.996   3.621   4.065  0.3039  0.4848 -0.0550
16909TIP3    H172218   4.024   3.601   3.976 -1.4900  2.3741 -1.1299
16909TIP3    H272219   3.963   3.538   4.099  1.2717 -0.3269 -1.0415
16910TIP3   OH272220   2.656   0.799  12.253 -0.4264  0.0645 -0.2964
16910TIP3    H172221   2.723   0.867  12.245 -0.4644  0.4997  2.0998
16910TIP3    H272222   2.574   0.847  12.263 -0.7872 -0.4125 -0.9049
16911TIP3   OH272223   6.618   0.246  14.060 -0.1345  0.4822 -0.8240
16911TIP3    H172224   6.571   0.183  14.005  0.8383 -0.6867 -0.3635
16911TIP3    H272225   6.551   0.279  14.121 -0.0792 -2.6948  1.2134
16912TIP3   OH272226   0.574   5.780  16.526  0.2670  0.4748 -1.1575
16912TIP3    H172227   0.649   5.839  16.532  0.5606  0.1196 -1.2802
16912TIP3    H272228   0.549   5.783  16.434 -0.0103  0.7657 -1.0734
16913TIP3   OH272229   3.098   3.272  15.761 -0.1703  0.4953  0.5514
16913TIP3    H172230   3.023   3.324  15.732 -0.8359 -0.8044 -0.1557
16913TIP3    H272231   3.174   3.317  15.723 -0.8745 -0.0664 -1.6631
16914TIP3   OH272232   3.266   2.882   6.240  0.1543  0.3290 -0.1721
16914TIP3    H172233   3.333   2.886   6.172 -0.0258 -1.4660 -0.4913
16914TIP3    H272234   3.310   2.846   6.317 -0.1317  0.4315  0.0467
16915TIP3   OH272235   6.471   1.153   4.517 -0.6641  0.1752 -0.1249
16915TIP3    H172236   6.512   1.106   4.590 -1.0471 -0.3771 -0.2589
16915TIP3    H272237   6.458   1.242   4.551  2.9478  1.1611 -0.9359
16916TIP3   OH272238   6.290   4.392  12.109  0.1212 -0.2032 -0.1642
16916TIP3    H172239   6.343   4.343  12.046  0.3773 -0.6560  0.3894
16916TIP3    H272240   6.201   4.362  12.093  0.0432  0.4335 -0.9837
16917TIP3   OH272241   5.265   2.381  15.307 -0.0350  0.2524  0.2708
16917TIP3    H172242   5.304   2.468  15.309  1.3006 -0.3290  0.9214
16917TIP3    H272243   5.331   2.326  15.265 -0.6428 -0.5342  0.3229
16918TIP3   OH272244   3.985   5.838   3.912  0.4701  0.0467 -0.2918
16918TIP3    H172245   4.066   5.859   3.959  0.1658  1.0977 -0.2127
16918TIP3    H272246   3.982   5.901   3.840  0.5452 -1.0593 -1.2952
16919TIP3   OH272247   2.219   5.435   3.319 -0.4656 -0.2996 -0.5675
16919TIP3    H172248   2.246   5.409   3.407 -1.6221 -1.0438 -0.4013
16919TIP3    H272249   2.152   5.370   3.295 -0.9783  0.5623 -1.5370
16920TIP3   OH272250   0.249   3.824  13.131 -0.0811  0.0386 -0.2017
16920TIP3    H172251   0.300   3.750  13.163 -0.5892  0.2778  1.2227
16920TIP3    H272252   0.162   3.811  13.169 -1.0612 -0.2351 -2.3838
16921TIP3   OH272253   2.656   6.378  11.013  0.0370  0.4941  0.5205
16921TIP3    H172254   2.693   6.384  10.925 -2.3178 -0.4854 -0.6317
16921TIP3    H272255   2.668   6.465  11.050  3.6033  0.1754  0.3834
16922TIP3   OH272256   4.551   6.574  11.943 -0.3932 -0.1567  0.5020
16922TIP3    H172257   4.554   6.514  11.868 -1.3030 -0.8448  0.9981
16922TIP3    H272258   4.579   6.659  11.907 -1.2634 -0.3663 -0.7294
16923TIP3   OH272259   5.894   0.264  11.841 -0.2162 -0.3824  0.4939
16923TIP3    H172260   5.899   0.247  11.747 -1.7200 -0.1615  0.3551
16923TIP3    H272261   5.820   0.323  11.851 -1.0042 -1.5557  1.9671
16924TIP3   OH272262   6.731   1.874   4.500  0.6686  0.3276 -0.1746
16924TIP3    H172263   6.653   1.865   4.555  1.8848 -1.2523  1.3875
16924TIP3    H272264   6.764   1.962   4.519 -0.4749  0.8649 -0.5669
16925TIP3   OH272265   5.604   1.611   0.338  0.1928  0.2648  0.0924
16925TIP3    H172266   5.652   1.598   0.420  0.5138  0.8935  0.0097
16925TIP3    H272267   5.658   1.672   0.288 -0.4178  0.5329 -0.2479
16926TIP3   OH272268   4.595   6.767  16.149  0.1063  0.0466  0.0108
16926TIP3    H172269   4.548   6.684  16.132  1.7753 -0.5753 -1.9611
16926TIP3    H272270   4.526   6.833  16.148 -1.1472 -1.1872  0.6123
16927TIP3   OH272271   2.935   6.049   5.903  0.4484  0.2092  0.2248
16927TIP3    H172272   2.872   6.120   5.913 -0.2218 -0.3739  0.2553
16927TIP3    H272273   3.000   6.064   5.972 -2.1627 -1.7620  3.4192
16928TIP3   OH272274   5.351   2.738  12.942 -0.5617  0.4216 -0.2496
16928TIP3    H172275   5.374   2.701  12.857  1.0594 -1.9178  1.0681
16928TIP3    H272276   5.288   2.675  12.979  1.4112 -0.5881  1.6133
16929TIP3   OH272277   4.563   0.885  15.634 -0.7006 -0.2273  0.1696
16929TIP3    H172278   4.504   0.956  15.660 -0.8403 -0.5419  0.7289
16929TIP3    H272279   4.507   0.822  15.589 -0.6806 -0.2386  0.1603
16930TIP3   OH272280   1.583   1.110  12.995  0.7879 -0.3334  0.4522
16930TIP3    H172281   1.543   1.023  12.998 -0.5905  0.3007  2.6844
16930TIP3    H272282   1.510   1.170  13.013  1.9139  1.2181  0.0314
16931TIP3   OH272283   4.390   2.120   3.652 -0.1065  0.2127  0.9053
16931TIP3    H172284   4.468   2.151   3.697 -0.7578  1.9187  0.9187
16931TIP3    H272285   4.317   2.151   3.706 -0.8524  0.8499 -0.4258
16932TIP3   OH272286   6.455   1.951   2.965  0.2251 -0.5613  0.1692
16932TIP3    H172287   6.390   1.962   3.034 -1.5588 -1.5152 -1.2915
16932TIP3    H272288   6.444   2.029   2.910 -2.2092 -2.2855 -2.0053
16933TIP3   OH272289   2.562   1.407  14.801  0.2547 -0.1140 -0.2571
16933TIP3    H172290   2.499   1.356  14.751 -0.6443  1.8947 -1.2784
16933TIP3    H272291   2.509   1.467  14.853  1.2524  1.5491 -1.0593
16934TIP3   OH272292   6.066   0.917  12.704 -0.3352 -0.0918  0.0791
16934TIP3    H172293   6.043   0.824  12.698 -1.2638  0.0673  0.8950
16934TIP3    H272294   6.157   0.917  12.735 -0.2881 -0.7262 -0.0461
16935TIP3   OH272295   6.637   4.947   0.836 -0.0975  0.4376  0.2810
16935TIP3    H172296   6.550   4.952   0.877 -1.6222 -1.2460 -2.4252
16935TIP3    H272297   6.667   4.859   0.854  0.2626  0.4584 -0.1934
16936TIP3   OH272298   5.131   4.578  12.214 -0.2587  0.0336 -0.6009
16936TIP3    H172299   5.181   4.632  12.152  1.9191  0.4281  1.3629
16936TIP3    H272300   5.194   4.556  12.282 -2.4611 -0.6238  1.3462
16937TIP3   OH272301   5.161   3.103  13.412 -0.0883  0.5482 -0.0968
16937TIP3    H172302   5.190   3.191  13.387 -0.9721  1.3636  1.6035
16937TIP3    H272303   5.234   3.068  13.463 -0.3024  0.8734  0.4430
16938TIP3   OH272304   6.236   3.827   5.683 -0.1279 -0.1672  0.3482
16938TIP3    H172305   6.213   3.897   5.745  0.7996 -0.6306  1.2435
16938TIP3    H272306   6.235   3.869   5.598 -0.4782  0.7195  0.7723
16939TIP3   OH272307   3.321   2.480  11.027  0.1716  0.4174  0.1900
16939TIP3    H172308   3.378   2.554  11.008  1.0354 -0.2923 -0.0344
16939TIP3    H272309   3.353   2.445  11.110 -0.6023  0.6345  0.5964
16940TIP3   OH272310   5.698   3.568  12.265 -0.6077  0.4233 -0.5721
16940TIP3    H172311   5.733   3.650  12.299  1.0592 -0.1475 -0.8378
16940TIP3    H272312   5.709   3.506  12.337 -0.6240  0.1147 -0.8342
16941TIP3   OH272313   6.324   1.181   2.745 -0.2097 -0.0049 -0.7097
16941TIP3    H172314   6.336   1.240   2.819 -1.3095  1.7642 -1.8724
16941TIP3    H272315   6.410   1.179   2.702 -0.1392  0.6987 -0.6118
16942TIP3   OH272316   2.558   2.209  14.629 -0.4270 -0.0618 -0.3732
16942TIP3    H172317   2.531   2.268  14.558  0.3588 -0.7891 -1.3101
16942TIP3    H272318   2.632   2.254  14.671  0.4844 -0.5576 -1.3931
16943TIP3   OH272319   6.571   3.355   1.725  0.5039 -0.3584 -0.6792
16943TIP3    H172320   6.630   3.294   1.681  2.7744  0.0603  1.5340
16943TIP3    H272321   6.625   3.432   1.744 -0.9694  0.3936  0.7768
16944TIP3   OH272322   0.768   2.560   1.340 -1.0572 -0.3975  0.3283
16944TIP3    H172323   0.832   2.520   1.282  0.4637 -2.1566  3.0199
16944TIP3    H272324   0.741   2.640   1.295  4.1949  1.3090 -0.3847
16945TIP3   OH272325   5.252   2.308   2.346  0.3908 -0.6042 -0.6000
16945TIP3    H172326   5.293   2.395   2.350  0.1287 -0.4542 -1.1206
16945TIP3    H272327   5.229   2.289   2.437  0.5339 -0.1710 -0.4675
16946TIP3   OH272328   3.896   6.688  11.834  0.4314 -0.1925  0.0811
16946TIP3    H172329   3.835   6.661  11.902 -0.4962 -0.3033 -0.7711
16946TIP3    H272330   3.977   6.707  11.881  0.5572 -2.5438  0.9430
16947TIP3   OH272331   5.123   6.300  13.982  0.2904 -0.2054 -0.2542
16947TIP3    H172332   5.102   6.207  13.980  0.0635 -0.1472 -0.7209
16947TIP3    H272333   5.104   6.331  13.894 -0.3076  0.4313  0.0870
16948TIP3   OH272334   6.795   1.037  15.509  0.0399  0.2362  0.3110
16948TIP3    H172335   6.873   1.092  15.503  1.0485 -1.1283  0.4786
16948TIP3    H272336   6.799   0.998  15.596 -0.5720 -0.2109  0.1478
16949TIP3   OH272337   2.654   5.969   2.603 -0.7213  0.3559  0.6044
16949TIP3    H172338   2.712   6.000   2.672  1.4889 -3.6989  0.9164
16949TIP3    H272339   2.584   5.923   2.650 -2.8439  2.8629  0.1337
16950TIP3   OH272340   5.410   1.063   3.080  0.2159  0.4689 -0.1032
16950TIP3    H172341   5.320   1.092   3.094  0.5656  3.8161 -3.3367
16950TIP3    H272342   5.402   0.994   3.013  0.0455  1.8175 -1.5291
16951TIP3   OH272343   6.268   4.039  15.962 -0.2472 -0.1417  0.0377
16951TIP3    H172344   6.337   4.083  15.913 -1.2562  1.5070  0.0417
16951TIP3    H272345   6.211   4.109  15.992 -1.1011 -1.3366  1.3438
16952TIP3   OH272346   0.068   3.356  16.170 -0.6824  0.1936  0.4909
16952TIP3    H172347   0.069   3.442  16.213  0.6881 -0.0960  1.0763
16952TIP3    H272348  -0.015   3.317  16.197 -0.5514  0.6538  1.5943
16953TIP3   OH272349   2.811   1.893   4.360 -0.1505 -0.0205  0.2014
16953TIP3    H172350   2.772   1.831   4.298 -1.1117 -0.0620  0.8205
16953TIP3    H272351   2.904   1.869   4.362 -0.5239 -1.5495  0.5368
16954TIP3   OH272352   2.201   3.143   1.286 -0.1138  0.2245  0.2152
16954TIP3    H172353   2.106   3.133   1.280 -0.2841  0.6385  1.7710
16954TIP3    H272354   2.219   3.141   1.380  1.7552 -2.8974 -0.0650
16955TIP3   OH272355   1.734   6.370  10.624  0.2166  0.0195  0.4246
16955TIP3    H172356   1.773   6.402  10.543 -0.9046 -0.4202 -0.3019
16955TIP3    H272357   1.654   6.422  10.634 -0.3775 -0.8956  0.5022
16956TIP3   OH272358   0.426   2.650   5.698 -0.2798  0.0131  0.4438
16956TIP3    H172359   0.377   2.674   5.619  0.0423 -0.5002  0.0772
16956TIP3    H272360   0.365   2.663   5.770 -0.1729  1.7827  0.2612
16957TIP3   OH272361   0.002   2.049   1.808 -0.6480  0.5238  0.2037
16957TIP3    H172362  -0.041   2.052   1.894 -0.7205  0.3838  0.1723
16957TIP3    H272363   0.038   2.136   1.797 -0.2015  0.4004  0.6073
16958TIP3   OH272364   3.195   2.484  11.991  0.1496  0.0613  0.5796
16958TIP3    H172365   3.164   2.419  12.054  3.6802 -1.0981  1.3343
16958TIP3    H272366   3.193   2.567  12.039 -3.3573  0.4879 -0.0469
16959TIP3   OH272367   3.182   5.627  14.551 -0.2063 -0.9462  0.0194
16959TIP3    H172368   3.163   5.585  14.466  0.0831  0.5378 -0.8192
16959TIP3    H272369   3.257   5.683  14.533  0.7641 -1.6913  1.6485
16960TIP3   OH272370   5.215   1.095   2.715 -0.2064  0.2344 -0.0912
16960TIP3    H172371   5.162   1.141   2.780 -0.3615 -0.9848  0.6644
16960TIP3    H272372   5.291   1.152   2.702  0.4798 -0.0956  2.1299
16961TIP3   OH272373   4.772   4.240  15.189 -0.3744  0.1831  0.3882
16961TIP3    H172374   4.777   4.301  15.262  0.8562 -0.0972  0.5593
16961TIP3    H272375   4.814   4.287  15.116 -0.7194  0.0880  0.1266
16962TIP3   OH272376   2.957   3.837   2.885 -0.5420  0.3288  0.2413
16962TIP3    H172377   2.875   3.845   2.835 -0.1483 -0.6840 -0.6054
16962TIP3    H272378   2.974   3.743   2.888  1.1583  0.5632 -0.5731
16963TIP3   OH272379   1.884   2.143   5.470  0.4419  0.5883 -0.1692
16963TIP3    H172380   1.896   2.195   5.391  0.9646  0.1043 -0.4223
16963TIP3    H272381   1.827   2.195   5.526  1.7161  1.8792 -0.0052
16964TIP3   OH272382   6.733   1.757   4.128  0.6504 -0.3588 -0.1079
16964TIP3    H172383   6.725   1.852   4.124 -0.2592 -0.4688 -1.7825
16964TIP3    H272384   6.815   1.737   4.083  0.5420 -0.3995 -0.2881
16965TIP3   OH272385   4.348   5.014  10.811 -0.0848 -0.5129  0.3298
16965TIP3    H172386   4.432   5.011  10.766 -0.0273  0.6380  0.3289
16965TIP3    H272387   4.359   4.955  10.886  1.3316  0.9193  1.3112
16966TIP3   OH272388   2.203   3.059  14.444  0.1183  0.3949 -0.1726
16966TIP3    H172389   2.244   2.998  14.504  0.4662 -0.0946 -0.8902
16966TIP3    H272390   2.132   3.010  14.404  0.4338  0.4318 -0.7939
16967TIP3   OH272391   6.216   4.940   0.441 -0.4566 -0.4211  0.4778
16967TIP3    H172392   6.157   4.995   0.493 -1.6929  0.5532 -1.8498
16967TIP3    H272393   6.289   4.998   0.418 -1.6819  0.3209 -1.8386
16968TIP3   OH272394   2.752   1.826  12.798 -0.0246 -0.2129 -0.3084
16968TIP3    H172395   2.664   1.828  12.762  0.1019  0.4565 -0.5894
16968TIP3    H272396   2.770   1.733  12.812 -2.0520 -0.2869  2.9165
16969TIP3   OH272397   0.279   5.717   5.689  0.2963  0.7030  0.4951
16969TIP3    H172398   0.228   5.714   5.771 -1.0043 -0.4667 -0.2998
16969TIP3    H272399   0.329   5.635   5.689  0.0697  0.5602  0.0005
16970TIP3   OH272400   2.415   1.339   0.452 -0.1067  0.3437 -0.0169
16970TIP3    H172401   2.453   1.359   0.538  1.6125  0.3621 -0.7397
16970TIP3    H272402   2.480   1.371   0.390 -0.1844 -1.8405 -1.2985
16971TIP3   OH272403   0.501   1.339  16.819 -0.1002 -0.3613  0.3043
16971TIP3    H172404   0.568   1.401  16.788 -0.8981  0.6449  0.5468
16971TIP3    H272405   0.538   1.253  16.799  1.2184  0.1670  0.3155
16972TIP3   OH272406   5.125   1.421  15.695 -0.3496 -0.2284  0.3392
16972TIP3    H172407   5.059   1.490  15.689  0.8378  0.8253 -1.4969
16972TIP3    H272408   5.167   1.435  15.780 -1.3665  0.1275  0.7929
16973TIP3   OH272409   2.820   2.819   1.802 -0.3001 -0.3182 -0.1245
16973TIP3    H172410   2.749   2.763   1.770  0.7944 -1.1918 -1.1237
16973TIP3    H272411   2.884   2.819   1.732 -0.5654  2.8815 -0.5159
16974TIP3   OH272412   4.487   1.059  11.543  0.6431 -0.6487  0.2437
16974TIP3    H172413   4.557   1.054  11.477  1.1040 -3.2178  0.7945
16974TIP3    H272414   4.512   0.993  11.607 -1.4733 -0.4538  1.3251
16975TIP3   OH272415   3.725   1.219   1.995 -0.4109 -0.0134  0.2966
16975TIP3    H172416   3.791   1.284   2.018  0.1746  0.3333 -2.0333
16975TIP3    H272417   3.773   1.136   1.989 -0.5716 -0.1202  0.4707
16976TIP3   OH272418   3.389   4.530  14.579  0.1384  0.4453 -0.3254
16976TIP3    H172419   3.372   4.438  14.596  1.7073  0.0287 -0.8360
16976TIP3    H272420   3.474   4.531  14.534 -1.0831  1.9042 -2.8525
16977TIP3   OH272421   5.622   1.607  16.421 -0.4602 -0.0507  0.2837
16977TIP3    H172422   5.621   1.684  16.478 -0.1663  1.4775 -1.6966
16977TIP3    H272423   5.574   1.633  16.343  1.4916 -1.0859 -1.3700
16978TIP3   OH272424   5.670   5.078   3.283  0.0801 -0.4664  0.3739
16978TIP3    H172425   5.600   5.036   3.234  1.9020 -0.9095 -1.9919
16978TIP3    H272426   5.692   5.015   3.352 -0.1423 -1.4536 -0.4408
16979TIP3   OH272427   3.806   3.878  14.318  0.5103 -0.2508  0.1188
16979TIP3    H172428   3.808   3.972  14.335  0.7834 -0.2458  0.0625
16979TIP3    H272429   3.880   3.863  14.260 -0.2057 -0.3223 -0.7936
16980TIP3   OH272430   3.480   0.229   4.764  0.0969 -0.1491 -0.3445
16980TIP3    H172431   3.455   0.310   4.809  2.6504  2.0313 -2.5114
16980TIP3    H272432   3.408   0.169   4.782 -2.1390  2.6784  1.0895
16981TIP3   OH272433   2.019   4.365   5.102  0.0691  0.0523  0.6030
16981TIP3    H172434   1.986   4.308   5.171  0.5275  0.9794  1.6258
16981TIP3    H272435   1.941   4.411   5.069 -0.2218 -0.7644  0.1332
16982TIP3   OH272436   4.457   1.035   4.615  0.0558  0.0328  0.0798
16982TIP3    H172437   4.553   1.036   4.620  0.1408  2.8964 -0.2685
16982TIP3    H272438   4.438   0.976   4.542  1.5635 -0.6319  0.1887
16983TIP3   OH272439   0.007   1.244  16.008 -0.4095 -0.5805 -0.3981
16983TIP3    H172440   0.046   1.331  16.000 -0.7369 -0.4387 -0.4551
16983TIP3    H272441   0.075   1.184  15.976  0.5156 -0.5105  1.3377
16984TIP3   OH272442   4.957   2.571   4.257 -0.0221 -0.3714  0.3395
16984TIP3    H172443   5.045   2.543   4.284 -0.4945 -1.0840  1.1839
16984TIP3    H272444   4.929   2.630   4.327 -0.1567 -0.0087 -0.0169
16985TIP3   OH272445   6.313   5.702   4.658 -0.0631  0.6020 -0.4408
16985TIP3    H172446   6.368   5.776   4.632  0.0888  1.1021  1.2314
16985TIP3    H272447   6.352   5.670   4.739 -0.0396 -1.4397 -1.1882
16986TIP3   OH272448   0.314   1.258   3.515 -0.7275 -0.2066 -0.4359
16986TIP3    H172449   0.395   1.217   3.486 -0.8099  0.1800 -1.2698
16986TIP3    H272450   0.294   1.217   3.599  0.7671  0.2988  0.1891
16987TIP3   OH272451   4.767   5.737   3.032 -0.0053  0.2386  0.2580
16987TIP3    H172452   4.735   5.647   3.021  1.6724 -0.1502 -2.0676
16987TIP3    H272453   4.806   5.738   3.119  2.4828 -2.2069 -0.6793
16988TIP3   OH272454   6.085   4.422   2.321 -0.0297  0.0912 -0.1770
16988TIP3    H172455   6.151   4.353   2.318  0.6347  0.7275 -0.4577
16988TIP3    H272456   6.095   4.469   2.238  0.2223  1.1572  0.4367
16989TIP3   OH272457   3.400   5.680  16.161 -0.0904 -0.4443  0.2911
16989TIP3    H172458   3.430   5.708  16.248 -2.2863  2.4636  0.2788
16989TIP3    H272459   3.307   5.662  16.173 -0.7332  1.2804 -1.6561
16990TIP3   OH272460   0.997   1.445   5.718 -0.0511  0.2816  0.5196
16990TIP3    H172461   1.050   1.468   5.794 -0.5207 -2.5698  1.8399
16990TIP3    H272462   0.949   1.366   5.745 -1.6031  0.1937 -2.1362
16991TIP3   OH272463   2.646   3.336  12.461  0.5767  0.0740 -0.1984
16991TIP3    H172464   2.590   3.304  12.390 -0.2120  0.1393  0.3784
16991TIP3    H272465   2.733   3.302  12.440 -0.1700 -2.3922  0.2903
16992TIP3   OH272466   6.324   1.075  13.946  0.2174  0.0404  0.0967
16992TIP3    H172467   6.273   1.038  14.018 -1.2563  0.9765 -0.4241
16992TIP3    H272468   6.416   1.060  13.971 -0.2922 -1.7522  1.0171
16993TIP3   OH272469   3.473   0.212   5.525  0.7070 -0.3701  0.3276
16993TIP3    H172470   3.522   0.289   5.551  1.0480 -0.8913  1.2677
16993TIP3    H272471   3.515   0.140   5.571  0.4656 -1.1394 -0.6209
16994TIP3   OH272472   5.071   0.832   3.179  0.6599  0.7670 -0.0416
16994TIP3    H172473   5.074   0.850   3.273 -0.2644 -0.2325  0.1910
16994TIP3    H272474   5.138   0.764   3.166 -0.5067 -0.4856  0.2460
16995TIP3   OH272475   1.874   1.505   6.157 -0.0978  0.2187 -0.1217
16995TIP3    H172476   1.937   1.451   6.203  1.5065  1.5941 -0.5915
16995TIP3    H272477   1.884   1.592   6.196  0.9355  1.3167 -2.5750
16996TIP3   OH272478   1.367   5.395   1.107 -0.4224 -0.5317  0.2422
16996TIP3    H172479   1.347   5.353   1.023 -2.0222 -1.5592  1.0887
16996TIP3    H272480   1.296   5.457   1.120  0.1758  0.1082  0.5554
16997TIP3   OH272481   1.278   2.983   3.789 -0.0516 -0.4559 -0.4976
16997TIP3    H172482   1.284   3.001   3.883  0.5931 -2.2393 -0.1562
16997TIP3    H272483   1.213   2.913   3.781 -0.5446  0.0883 -1.4526
16998TIP3   OH272484   0.038   6.377   3.247 -0.9318  0.0714  0.6899
16998TIP3    H172485   0.093   6.306   3.216  0.0399  0.5935  1.1924
16998TIP3    H272486  -0.024   6.392   3.175  0.2142  0.1485 -0.3036
16999TIP3   OH272487   4.255   6.552  11.727 -0.2288  0.8062  0.0259
16999TIP3    H172488   4.226   6.593  11.808 -1.5400  0.4234 -0.2375
16999TIP3    H272489   4.333   6.602  11.702  0.0912  1.0372  1.4130
17000TIP3   OH272490   0.585   1.368   3.343 -0.4941 -0.1031  0.3189
17000TIP3    H172491   0.657   1.391   3.284  0.9822  1.3913  2.5533
17000TIP3    H272492   0.579   1.273   3.337  0.2458 -0.0864 -1.4484
17001TIP3   OH272493   2.950   1.059  11.666  0.2551  0.0056  0.6475
17001TIP3    H172494   2.916   1.144  11.639 -0.5905 -0.0749  1.3950
17001TIP3    H272495   2.900   0.996  11.612  1.0169 -0.0158 -0.0444
17002TIP3   OH272496   1.339   5.671   1.399  0.4646 -0.4446 -0.7120
17002TIP3    H172497   1.321   5.727   1.475 -1.0415 -0.5837 -0.9307
17002TIP3    H272498   1.301   5.719   1.325 -1.1637 -1.8433 -0.8645
17003TIP3   OH272499   2.765   2.414   4.178  0.1650  0.3541  0.2359
17003TIP3    H172500   2.804   2.397   4.093  1.0572  0.5367  0.5938
17003TIP3    H272501   2.775   2.332   4.226  2.1472  1.0152  1.0786
17004TIP3   OH272502   0.424   6.045   3.860 -0.0444  0.0329 -0.3293
17004TIP3    H172503   0.360   6.110   3.832  0.1182  0.4996  0.3515
17004TIP3    H272504   0.372   5.977   3.903 -0.0797  0.5592  0.5012
17005TIP3   OH272505   0.407   1.765  11.154  0.2454  0.4501  0.3477
17005TIP3    H172506   0.390   1.760  11.248  3.0155  4.3496  1.3354
17005TIP3    H272507   0.372   1.850  11.127  1.4359  0.3868 -1.6392
17006TIP3   OH272508   5.749   3.367   4.847  0.8205 -0.0577 -0.2373
17006TIP3    H172509   5.733   3.420   4.769  0.7160 -0.7344 -0.6792
17006TIP3    H272510   5.839   3.336   4.837  0.8350 -0.0805 -0.0463
17007TIP3   OH272511   6.202   5.613  12.553  0.2771 -0.1721 -0.7768
17007TIP3    H172512   6.157   5.627  12.470  1.9395 -0.3716 -1.7629
17007TIP3    H272513   6.183   5.692  12.605  0.1907  0.5082 -1.8149
17008TIP3   OH272514   4.578   3.705   5.361 -0.4397  0.1220 -0.3177
17008TIP3    H172515   4.571   3.751   5.277  1.3170  2.0350  0.4914
17008TIP3    H272516   4.571   3.774   5.427  4.8854 -0.0969  0.9392
17009TIP3   OH272517   2.543   4.547   2.002  0.3230 -0.3403  0.4900
17009TIP3    H172518   2.450   4.528   2.016  0.0579  0.7545  0.2719
17009TIP3    H272519   2.580   4.464   1.971 -0.9119 -0.3950 -0.9852
17010TIP3   OH272520   4.334   2.357   3.504 -0.0243 -0.0851  0.0233
17010TIP3    H172521   4.397   2.400   3.446  1.1093 -1.0016  0.5277
17010TIP3    H272522   4.375   2.273   3.526 -1.2261 -0.5098  0.7435
17011TIP3   OH272523   4.951   4.419  13.033  0.5448  0.6801 -0.2960
17011TIP3    H172524   4.918   4.339  13.073 -0.9629  0.9261 -0.9961
17011TIP3    H272525   5.037   4.394  12.998 -0.2274 -0.8735 -1.2087
17012TIP3   OH272526   0.391   5.056  13.251 -0.0976 -0.1006 -0.4114
17012TIP3    H172527   0.416   5.071  13.342  1.0858 -0.7271 -0.6156
17012TIP3    H272528   0.414   5.137  13.206 -1.0355  0.3524 -0.1003
17013TIP3   OH272529   1.037   6.194  13.360 -0.2877  0.4485 -0.2011
17013TIP3    H172530   0.973   6.225  13.424  0.1089 -0.2610  0.5786
17013TIP3    H272531   0.989   6.131  13.306  0.1593 -1.6048  1.6406
17014TIP3   OH272532   3.828   2.813   0.233  0.0874 -0.5629 -0.6805
17014TIP3    H172533   3.744   2.837   0.194 -0.9587 -2.6172  0.1937
17014TIP3    H272534   3.893   2.837   0.166 -1.0835  1.6765 -1.1021
17015TIP3   OH272535   4.493   4.890  16.436 -1.2859 -0.3978  0.1815
17015TIP3    H172536   4.413   4.842  16.416 -1.2999 -0.3460  0.1134
17015TIP3    H272537   4.480   4.976  16.397 -1.5150 -0.1321  0.8266
17016TIP3   OH272538   6.594   6.446  13.956 -0.4267  0.1989 -0.1400
17016TIP3    H172539   6.570   6.363  13.998  0.8762  0.2172  0.6895
17016TIP3    H272540   6.586   6.511  14.025  0.2654  0.4771 -0.3175
17017TIP3   OH272541   2.262   2.535   4.771 -0.2155 -0.5288  0.3677
17017TIP3    H172542   2.305   2.476   4.710  1.0972 -1.8554  2.4347
17017TIP3    H272543   2.295   2.508   4.857 -0.0636  2.7790  1.4842
17018TIP3   OH272544   3.074   6.275  14.048 -0.6354  0.7803 -0.4510
17018TIP3    H172545   3.084   6.289  14.142 -0.5352  0.3755 -0.3979
17018TIP3    H272546   3.147   6.322  14.008  0.1534 -0.2227 -0.2274
17019TIP3   OH272547   5.570   6.420   2.282 -0.6042 -0.4978  0.6796
17019TIP3    H172548   5.613   6.465   2.355  2.6621  1.1071 -1.9851
17019TIP3    H272549   5.594   6.328   2.292  2.1401  0.1018  0.2456
17020TIP3   OH272550   5.984   5.832  11.430 -0.0415 -0.0649 -0.2715
17020TIP3    H172551   5.979   5.928  11.427  0.3561  0.2044  3.0909
17020TIP3    H272552   5.930   5.808  11.505 -1.0379 -2.6389 -1.7014
17021TIP3   OH272553   5.475   6.870   1.104 -0.1549  0.6918  0.0405
17021TIP3    H172554   5.537   6.941   1.086 -0.8172  0.5675 -3.2590
17021TIP3    H272555   5.450   6.837   1.018 -1.0179 -2.6127  1.4105
17022TIP3   OH272556   4.069   5.428   2.115  0.3289  0.0280 -0.0397
17022TIP3    H172557   4.034   5.486   2.047  0.6588  0.4988  0.1838
17022TIP3    H272558   4.160   5.415   2.090  0.5039  0.3547  0.4033
17023TIP3   OH272559   6.134   0.349  14.523  0.5882  0.6520  0.2721
17023TIP3    H172560   6.042   0.361  14.547 -0.1253 -1.5737 -1.0774
17023TIP3    H272561   6.162   0.436  14.493 -1.3782  1.1618 -0.2565
17024TIP3   OH272562   1.395   5.958   2.657  0.3498  0.2640 -0.4072
17024TIP3    H172563   1.432   5.993   2.576 -0.9056  0.0904 -1.0736
17024TIP3    H272564   1.373   5.867   2.637  1.5330 -0.2820  0.6397
17025TIP3   OH272565   2.814   2.712  14.309  0.3676 -0.4842  1.0034
17025TIP3    H172566   2.838   2.804  14.321 -0.6955 -0.3319  2.2097
17025TIP3    H272567   2.885   2.663  14.350  2.4595 -0.3962 -2.1385
17026TIP3   OH272568   0.095   5.051   5.064  0.2364 -0.3086  0.2796
17026TIP3    H172569   0.130   5.107   5.133 -1.1462  1.7854 -0.5809
17026TIP3    H272570   0.144   5.076   4.986 -0.2610 -0.4395 -0.0808
17027TIP3   OH272571   6.473   0.564  14.626  0.3869 -0.5893 -0.3866
17027TIP3    H172572   6.511   0.562  14.538  1.8694  2.1412  0.0876
17027TIP3    H272573   6.403   0.629  14.620  1.4873  0.7561  0.7542
17028TIP3   OH272574   0.309   0.062   0.237  1.0715  0.0382  0.1598
17028TIP3    H172575   0.377  -0.006   0.240 -0.9461 -2.3091 -2.0237
17028TIP3    H272576   0.294   0.076   0.144  0.5796  2.7125  0.5812
17029TIP3   OH272577   2.470   3.362  13.181 -0.3630  0.0657  0.1906
17029TIP3    H172578   2.405   3.356  13.112  0.4654 -0.0014 -0.6044
17029TIP3    H272579   2.553   3.342  13.138  0.4591  2.0404  0.7443
17030TIP3   OH272580   1.734   4.120  15.935  0.1473  0.7919 -0.0511
17030TIP3    H172581   1.675   4.161  15.998  1.2437  0.8798  0.9358
17030TIP3    H272582   1.729   4.178  15.858 -0.6564  1.0755  0.2019
17031TIP3   OH272583   1.811   6.440   2.564 -0.8240 -0.3915 -0.2207
17031TIP3    H172584   1.883   6.401   2.615 -0.9649  0.1121  0.3815
17031TIP3    H272585   1.738   6.379   2.574 -0.7391 -0.4760 -0.1201
17032TIP3   OH272586   0.652   2.850   2.952  0.8265  0.1207  0.7461
17032TIP3    H172587   0.678   2.774   2.901  0.3055  0.0952  0.5062
17032TIP3    H272588   0.556   2.851   2.946  0.8889  1.9792 -1.0313
17033TIP3   OH272589   3.750   6.775  14.391  0.2715 -0.0104  0.0638
17033TIP3    H172590   3.748   6.718  14.315 -0.4103 -0.4376  0.3954
17033TIP3    H272591   3.658   6.796  14.408  0.5403  1.6795 -0.4126
17034TIP3   OH272592   2.339   2.122   0.316  0.1883 -0.1399 -0.5022
17034TIP3    H172593   2.316   2.033   0.289  3.1883 -1.2684  0.3421
17034TIP3    H272594   2.383   2.160   0.240 -0.9608  0.6416 -0.8127
17035TIP3   OH272595   2.462   4.452   2.627 -0.0288 -0.3716 -0.0724
17035TIP3    H172596   2.371   4.424   2.637  0.0012 -0.6560 -0.5350
17035TIP3    H272597   2.459   4.520   2.560  0.0211  0.0771  0.3737
17036TIP3   OH272598   1.869   1.689   0.909 -0.5497 -0.1701 -0.1524
17036TIP3    H172599   1.886   1.630   0.982 -0.9101  0.2227  0.2511
17036TIP3    H272600   1.782   1.723   0.925 -1.0494 -0.8479 -1.2961
17037TIP3   OH272601   2.645   1.193  15.458  0.0827 -0.4458 -0.5101
17037TIP3    H172602   2.719   1.198  15.397  0.0875  3.1174 -0.3772
17037TIP3    H272603   2.572   1.161  15.404  0.3822  1.4995 -2.1729
17038TIP3   OH272604   4.522   3.346   4.358 -0.7180 -0.2589  0.3343
17038TIP3    H172605   4.594   3.404   4.385  0.4304 -1.5278  0.1247
17038TIP3    H272606   4.450   3.368   4.417 -1.1010  2.8452 -1.0919
17039TIP3   OH272607   0.905   6.038   2.670 -0.5091  0.4756  0.3717
17039TIP3    H172608   0.968   5.994   2.726  0.2769  2.2714  0.9609
17039TIP3    H272609   0.849   6.087   2.730 -2.8473 -1.4315 -0.0817
17040TIP3   OH272610   6.268   4.820  13.476  0.8537 -0.2243 -0.1976
17040TIP3    H172611   6.250   4.911  13.454  1.6907 -0.4242 -1.8660
17040TIP3    H272612   6.197   4.794  13.535  0.9489  1.6643  0.8086
17041TIP3   OH272613   5.471   3.746   5.601 -0.6741 -0.2200  0.6496
17041TIP3    H172614   5.440   3.655   5.605 -1.0573 -0.1133  0.2009
17041TIP3    H272615   5.514   3.753   5.516  1.4543 -0.6176  1.6210
17042TIP3   OH272616   1.755   2.470  12.942  0.2944  0.3568  0.3208
17042TIP3    H172617   1.679   2.462  12.884 -0.7944  0.3459  1.7046
17042TIP3    H272618   1.829   2.483  12.882 -0.8012  0.5266 -1.0564
17043TIP3   OH272619   5.096   5.982   2.066 -0.5133 -0.6820  0.0498
17043TIP3    H172620   5.081   6.064   2.113 -2.0476 -0.8536 -0.0789
17043TIP3    H272621   5.016   5.932   2.080  0.3762 -2.1432  0.0679
17044TIP3   OH272622   1.892   2.536  16.234  0.3453  0.0410  0.0949
17044TIP3    H172623   1.812   2.531  16.287  0.4408 -2.6694  0.0844
17044TIP3    H272624   1.860   2.546  16.144  0.0812  0.6787  0.2524
17045TIP3   OH272625   5.809   3.504   3.838  0.3409  0.1961  0.1685
17045TIP3    H172626   5.824   3.422   3.885  0.9913  1.3936  2.1796
17045TIP3    H272627   5.887   3.516   3.784 -0.4773 -1.2659 -1.4160
17046TIP3   OH272628   5.983   1.200  13.173  0.3457 -0.6138 -0.4975
17046TIP3    H172629   6.025   1.273  13.129 -1.7246  2.1071  1.6764
17046TIP3    H272630   6.046   1.128  13.168  3.5024  1.9949 -0.7432
17047TIP3   OH272631   4.979   2.405   1.731 -0.1079  0.0052  0.4952
17047TIP3    H172632   5.008   2.333   1.787  0.7755  0.3637  0.5266
17047TIP3    H272633   5.028   2.481   1.763 -1.2587  0.6861  0.6553
17048TIP3   OH272634   0.864   6.250   4.282  0.6010 -0.7451 -0.4640
17048TIP3    H172635   0.782   6.243   4.233 -0.4074 -1.3137  1.2337
17048TIP3    H272636   0.926   6.198   4.231  0.2072  0.4677 -2.2868
17049TIP3   OH272637   4.696   5.907   4.507  0.1057 -0.1651  0.4424
17049TIP3    H172638   4.725   5.873   4.592  0.2124 -1.4620 -0.0884
17049TIP3    H272639   4.755   5.866   4.444  0.4574  1.3137 -0.2248
17050TIP3   OH272640   0.964   5.701   3.014 -0.4389 -0.2555  0.0056
17050TIP3    H172641   1.046   5.658   2.989 -0.2675 -1.1251  1.8995
17050TIP3    H272642   0.979   5.793   2.992  0.8775 -0.4710 -0.1299
17051TIP3   OH272643   6.234   6.799  12.401  0.3953 -0.0994 -0.3273
17051TIP3    H172644   6.309   6.748  12.431  1.4609 -0.0092 -2.5952
17051TIP3    H272645   6.254   6.889  12.427 -0.3473 -0.4514  1.5887
17052TIP3   OH272646   6.429   0.520   2.030 -0.1661  0.2392 -0.5930
17052TIP3    H172647   6.355   0.481   1.984 -1.3941  1.1290  0.5409
17052TIP3    H272648   6.394   0.543   2.116  0.7523  2.8037 -0.8058
17053TIP3   OH272649   5.305   5.808  12.874  0.1094  0.3454  0.4725
17053TIP3    H172650   5.307   5.895  12.834 -5.3714  1.1559  1.1582
17053TIP3    H272651   5.238   5.760  12.825 -2.4282 -0.7442  4.4924
17054TIP3   OH272652   2.297   4.981  16.153  0.0220 -0.3925 -0.0496
17054TIP3    H172653   2.338   5.015  16.074 -1.1095  1.0042 -0.0679
17054TIP3    H272654   2.291   4.886  16.137 -2.3789  0.0588 -2.7699
17055TIP3   OH272655   2.207   3.772  10.804  0.2203  0.4925  0.2486
17055TIP3    H172656   2.180   3.822  10.727 -0.8201  0.2034  0.4027
17055TIP3    H272657   2.262   3.832  10.854 -1.2504  1.6174  0.5829
17056TIP3   OH272658   4.361   2.770  14.914 -0.7998 -0.1125  0.2284
17056TIP3    H172659   4.353   2.840  14.849 -1.1527  1.1676  1.5722
17056TIP3    H272660   4.428   2.712  14.879  1.5353  2.3344  0.2323
17057TIP3   OH272661   0.951   1.234   1.722 -0.3847  0.4048  0.5022
17057TIP3    H172662   0.975   1.143   1.741 -2.7935 -0.1371  1.2042
17057TIP3    H272663   0.895   1.229   1.645 -2.7346  0.9033  2.0670
17058TIP3   OH272664   4.416   0.673  10.943 -0.2640 -0.3743 -0.3415
17058TIP3    H172665   4.487   0.610  10.960  0.7775  0.9248  0.3324
17058TIP3    H272666   4.449   0.755  10.979 -2.3124  0.1839  0.3593
17059TIP3   OH272667   6.025   2.291   0.801  0.0407  0.1335  0.8429
17059TIP3    H172668   6.078   2.357   0.845 -1.6234  1.9542  0.2841
17059TIP3    H272669   6.083   2.216   0.791  2.4472  1.9418  0.3728
17060TIP3   OH272670   3.907   2.579  15.176 -0.2156 -0.8492  0.0940
17060TIP3    H172671   4.001   2.593  15.180 -0.3666  0.8433 -1.0705
17060TIP3    H272672   3.871   2.629  15.250 -0.2625 -0.6601 -0.0548
17061TIP3   OH272673   5.854   6.788  11.234  0.3290  0.1940  0.2445
17061TIP3    H172674   5.808   6.728  11.293 -2.2288  0.1947 -1.5922
17061TIP3    H272675   5.890   6.731  11.165  0.5277  0.4847  0.1066
17062TIP3   OH272676   1.435   5.352  16.706 -0.4424 -0.2764  0.0458
17062TIP3    H172677   1.494   5.281  16.681  0.6490 -0.4686  2.8029
17062TIP3    H272678   1.474   5.389  16.786 -3.4142  0.4026  1.3304
17063TIP3   OH272679   1.855   5.809   3.871  0.1435 -0.4757  0.1437
17063TIP3    H172680   1.793   5.858   3.817  0.2361 -0.5193 -0.0004
17063TIP3    H272681   1.890   5.742   3.813 -0.6389 -1.2854  0.5739
17064TIP3   OH272682   1.504   3.874  11.542  0.0253 -0.3161 -0.1272
17064TIP3    H172683   1.423   3.916  11.514 -0.1240  0.1334  0.9383
17064TIP3    H272684   1.567   3.946  11.551 -0.0779 -0.3543  1.1582
17065TIP3   OH272685   3.572   5.177   0.839 -0.5549 -0.5749  0.2738
17065TIP3    H172686   3.538   5.145   0.755  0.7468 -0.9940 -0.1198
17065TIP3    H272687   3.579   5.272   0.826  0.3319 -0.7139 -0.3768
17066TIP3   OH272688   3.700   0.245   1.183  0.5516 -0.8358 -0.6383
17066TIP3    H172689   3.649   0.324   1.196  0.2055 -1.3927  1.7205
17066TIP3    H272690   3.754   0.264   1.106  0.2377  1.5337 -0.3397
17067TIP3   OH272691   1.013   1.402  11.856 -0.4033  0.3477 -0.0346
17067TIP3    H172692   0.979   1.410  11.767 -0.7993 -0.1525  0.0706
17067TIP3    H272693   1.088   1.342  11.848 -1.8124 -1.5482  0.3063
17068TIP3   OH272694   6.770   3.931   2.713 -0.5231 -0.3221  0.2977
17068TIP3    H172695   6.808   4.018   2.727 -0.3117 -0.3807  0.0890
17068TIP3    H272696   6.841   3.870   2.733  0.1661 -0.4059 -2.0286
17069TIP3   OH272697   1.956   4.248   1.977 -0.1750 -0.1531  0.1461
17069TIP3    H172698   1.866   4.216   1.987 -0.4445  0.7481  0.6919
17069TIP3    H272699   1.979   4.284   2.062  0.7392 -0.4475  0.0318
17070TIP3   OH272700   3.072   5.737   2.510 -0.8223  0.0254  0.1121
17070TIP3    H172701   3.126   5.712   2.436 -0.3841 -2.1033  1.0568
17070TIP3    H272702   3.134   5.755   2.581 -1.2668 -0.3571  0.6131
17071TIP3   OH272703   4.273   1.909   1.908 -0.0151 -0.2656  0.1968
17071TIP3    H172704   4.340   1.890   1.843  0.7119  2.3834  0.0317
17071TIP3    H272705   4.322   1.930   1.987 -0.7696 -0.5291  0.7452
17072TIP3   OH272706   6.696   0.601  16.860  0.2971 -0.0092  0.4012
17072TIP3    H172707   6.655   0.660  16.924  0.7662  0.7183  0.0550
17072TIP3    H272708   6.684   0.514  16.897  1.0159  0.4259  1.7806
17073TIP3   OH272709   3.124   2.032   2.520  0.1210  0.3372  0.1229
17073TIP3    H172710   3.171   2.082   2.453  2.4300 -0.4393  1.0924
17073TIP3    H272711   3.145   1.941   2.501 -1.5195 -0.0996  0.2480
17074TIP3   OH272712   5.641   5.723   2.950  0.2188 -0.1578  0.0778
17074TIP3    H172713   5.697   5.674   2.890 -0.0962 -2.0097  1.2109
17074TIP3    H272714   5.696   5.741   3.026 -0.5308 -1.6237  1.0207
17075TIP3   OH272715   1.422   3.711   1.284 -0.8722  0.3067  0.6950
17075TIP3    H172716   1.464   3.642   1.336  0.0110  0.6939  0.5112
17075TIP3    H272717   1.440   3.791   1.333  1.0692  0.8518 -0.8215
17076TIP3   OH272718   1.217   2.151  15.655 -0.0006  0.0904  0.2257
17076TIP3    H172719   1.204   2.181  15.564  2.1300  0.3684 -0.0470
17076TIP3    H272720   1.156   2.203  15.706 -1.4328 -0.2499 -1.0763
17077TIP3   OH272721   0.305   0.688  14.474 -0.1775 -0.2710  0.2347
17077TIP3    H172722   0.370   0.754  14.448 -0.0219 -1.1032 -1.5632
17077TIP3    H272723   0.339   0.606  14.440 -0.9021 -1.1423  1.5407
17078TIP3   OH272724   2.877   2.540   2.175  0.1363 -0.1847 -0.3718
17078TIP3    H172725   2.941   2.477   2.210  0.3663  0.4786  0.4335
17078TIP3    H272726   2.792   2.503   2.198  0.2685 -0.2232  0.0762
17079TIP3   OH272727   4.327   5.050   5.198 -0.0827 -0.3734  0.5509
17079TIP3    H172728   4.376   5.051   5.280  2.1886  0.6444 -0.7241
17079TIP3    H272729   4.293   5.139   5.190 -0.9118 -0.6710  0.7234
17080TIP3   OH272730   0.132   2.525   2.387 -0.4354  0.1594  0.2199
17080TIP3    H172731   0.120   2.503   2.479  0.0066  4.8696  1.6548
17080TIP3    H272732   0.226   2.518   2.373 -0.4110  0.1919  0.3688
17081TIP3   OH272733   2.113   2.990   4.651 -0.2035  0.3631 -0.6192
17081TIP3    H172734   2.156   3.075   4.657 -2.5684  1.6027  0.1699
17081TIP3    H272735   2.125   2.950   4.738 -0.7035  0.7485 -0.3693
17082TIP3   OH272736   3.738   0.463   4.185 -0.1773 -0.3117  0.2079
17082TIP3    H172737   3.744   0.434   4.276  1.2116  2.0287  0.9554
17082TIP3    H272738   3.828   0.460   4.153 -0.0862  1.9988  0.0439
17083TIP3   OH272739   3.189   2.233  14.122 -0.7212 -0.4134  0.4391
17083TIP3    H172740   3.249   2.187  14.063  1.5209  2.4685  0.2461
17083TIP3    H272741   3.230   2.226  14.208 -0.1230  1.4272  0.3433
17084TIP3   OH272742   0.104   0.077   2.349  0.6369 -0.1311 -0.5644
17084TIP3    H172743   0.168   0.006   2.352  0.0343 -0.6530  1.8753
17084TIP3    H272744   0.129   0.135   2.421 -1.9199 -0.6941  0.9154
17085TIP3   OH272745   2.766   3.133   0.798 -0.2635 -0.3630 -0.7506
17085TIP3    H172746   2.855   3.117   0.829 -1.5103 -1.8291  2.4926
17085TIP3    H272747   2.768   3.222   0.764  1.7028  0.9630  2.4359
17086TIP3   OH272748   1.995   3.105   4.291  0.2035  0.4550 -0.1776
17086TIP3    H172749   2.052   3.042   4.246  0.4332  0.7672 -0.3241
17086TIP3    H272750   2.055   3.164   4.336 -0.0179  0.3913  0.2129
17087TIP3   OH272751   2.961   2.243  13.933  0.1798  0.4819 -0.0930
17087TIP3    H172752   3.001   2.230  14.019 -1.0258  0.9633  0.5559
17087TIP3    H272753   2.908   2.322  13.943 -0.0113  0.5213 -1.2742
17088TIP3   OH272754   0.780   3.143  15.628  0.1654 -0.9433 -0.6080
17088TIP3    H172755   0.813   3.190  15.705 -1.0813 -1.7243  0.4431
17088TIP3    H272756   0.771   3.211  15.561  1.1522 -0.2176 -0.0329
17089TIP3   OH272757   1.902   1.868   0.452  0.1826  0.3580 -0.5053
17089TIP3    H172758   1.884   1.920   0.373  1.8494  2.5309  0.4536
17089TIP3    H272759   1.997   1.855   0.450  0.0485 -0.8622  0.4047
17090TIP3   OH272760   5.212   3.596   4.098  0.3478 -0.9539  0.2630
17090TIP3    H172761   5.118   3.579   4.104  0.6967 -2.7985  1.1271
17090TIP3    H272762   5.230   3.656   4.170 -0.3301  0.3474 -0.6165
17091TIP3   OH272763   5.732   0.456  15.500  0.3098 -0.7489 -0.2304
17091TIP3    H172764   5.749   0.502  15.417 -0.2243  1.5085  0.8393
17091TIP3    H272765   5.637   0.446  15.504  0.2847 -0.2977  0.3842
17092TIP3   OH272766   1.488   1.403  13.709 -0.0977  0.0917  0.3085
17092TIP3    H172767   1.574   1.446  13.710  0.7147 -1.3882  2.0088
17092TIP3    H272768   1.508   1.310  13.694 -1.6364  0.0081 -1.5801
17093TIP3   OH272769   3.533   5.831  13.274  0.4863  0.0600 -0.0630
17093TIP3    H172770   3.563   5.792  13.356  0.6761  0.3320 -0.0010
17093TIP3    H272771   3.612   5.845  13.223  0.4128  0.2785 -0.1213
17094TIP3   OH272772   2.131   4.895   2.158  0.1445 -0.2289 -0.3905
17094TIP3    H172773   2.083   4.977   2.167  0.4218  0.0215 -1.1820
17094TIP3    H272774   2.205   4.916   2.102  1.3570 -0.5459  1.0249
17095TIP3   OH272775   1.192   0.532   1.737  0.0636  0.3085 -0.0782
17095TIP3    H172776   1.223   0.618   1.711  0.3491  0.0390 -0.6254
17095TIP3    H272777   1.097   0.542   1.745  0.2719  1.2188  1.9350
17096TIP3   OH272778   1.182   3.526   3.627 -0.3073  0.1495  0.2027
17096TIP3    H172779   1.088   3.542   3.620 -0.3820 -0.3367  0.0916
17096TIP3    H272780   1.222   3.593   3.571 -0.6063  0.0747 -0.1009
17097TIP3   OH272781   4.059   5.269   5.818 -0.0472  0.1768  0.3770
17097TIP3    H172782   4.052   5.364   5.823 -1.1846  0.1134  0.1473
17097TIP3    H272783   3.974   5.237   5.848  0.2509 -0.7632  0.2514
17098TIP3   OH272784   4.636   1.285   5.123  0.4785  0.1900 -0.6349
17098TIP3    H172785   4.608   1.304   5.033 -0.3663  0.0333 -0.4143
17098TIP3    H272786   4.584   1.209   5.148  0.0827  0.7594  0.2970
17099TIP3   OH272787   4.547   6.681   5.140 -0.3804 -0.2347 -0.2403
17099TIP3    H172788   4.523   6.767   5.175 -1.3518 -0.5877  0.0034
17099TIP3    H272789   4.627   6.658   5.187  0.0633  0.6557 -0.5248
17100TIP3   OH272790   1.913   0.855   1.951  0.1071  0.2835 -0.0959
17100TIP3    H172791   1.970   0.815   1.884  0.0706 -0.3310  0.2342
17100TIP3    H272792   1.959   0.935   1.975 -0.0295  0.6739 -1.0775
17101TIP3   OH272793   4.838   4.683  16.385  0.0799 -0.1700 -0.2779
17101TIP3    H172794   4.744   4.673  16.370 -0.1827  0.4939  0.8000
17101TIP3    H272795   4.847   4.682  16.481  1.0163  1.0510 -0.3301
17102TIP3   OH272796   6.483   4.080   2.013 -0.1938 -0.6347  0.0386
17102TIP3    H172797   6.488   4.067   1.919 -1.0923 -0.6747 -0.0145
17102TIP3    H272798   6.412   4.022   2.041 -1.5137  1.0723  0.3929
17103TIP3   OH272799   0.696   6.254   1.307  0.6178 -0.0338  0.0807
17103TIP3    H172800   0.670   6.346   1.308 -0.2529 -0.2443 -1.2434
17103TIP3    H272801   0.739   6.240   1.392  2.4377  2.0370 -0.4237
17104TIP3   OH272802   5.579   0.052  13.979  0.1388 -0.7850 -0.7064
17104TIP3    H172803   5.540   0.093  14.056  0.7254  0.7326 -1.1886
17104TIP3    H272804   5.531  -0.030  13.969  0.7739 -1.5533  1.8968
17105TIP3   OH272805   0.236   1.935   1.953 -0.1098  0.5311 -0.4083
17105TIP3    H172806   0.253   1.864   1.891 -0.1080  0.7516 -0.6644
17105TIP3    H272807   0.151   1.969   1.928 -0.4159  0.1832  0.1410
17106TIP3   OH272808   2.079   5.758  16.647  0.3538  0.9027 -0.0552
17106TIP3    H172809   2.095   5.816  16.573 -1.2540  1.1766 -0.2180
17106TIP3    H272810   1.990   5.778  16.675  0.8058  0.5739  1.7641
17107TIP3   OH272811   0.392   3.060   0.619 -0.7140 -0.0986  0.2245
17107TIP3    H172812   0.360   2.985   0.571 -3.1610 -0.4341  2.1929
17107TIP3    H272813   0.381   3.134   0.560 -2.9894 -0.5878 -0.0371
17108TIP3   OH272814   5.611   3.581   6.261  0.5200  0.7765 -0.1485
17108TIP3    H172815   5.542   3.593   6.195  1.8098  0.3694 -1.6300
17108TIP3    H272816   5.573   3.614   6.342 -1.1697  1.1879 -1.0654
17109TIP3   OH272817   1.604   4.206  13.144  0.1419 -0.1880 -0.0260
17109TIP3    H172818   1.596   4.132  13.205 -0.8503  0.1401  0.2555
17109TIP3    H272819   1.635   4.166  13.062  2.2619 -0.5264  0.8825
17110TIP3   OH272820   4.497   6.696   1.930 -0.8874  0.2780  1.1108
17110TIP3    H172821   4.532   6.668   2.014 -1.5903 -1.5078  0.8583
17110TIP3    H272822   4.541   6.640   1.866 -2.6258 -0.5723  0.6011
17111TIP3   OH272823   1.196   2.883  15.713  0.0933  0.1374  0.0187
17111TIP3    H172824   1.193   2.972  15.746  0.5487  0.2047 -0.1245
17111TIP3    H272825   1.153   2.831  15.782  0.2645  0.3942  0.3207
17112TIP3   OH272826   4.096   5.669  10.943 -0.1619 -0.1711  0.3641
17112TIP3    H172827   4.067   5.592  10.992 -0.1642 -1.4332 -1.4937
17112TIP3    H272828   4.052   5.743  10.985 -0.4121 -1.1987  2.0056
17113TIP3   OH272829   5.560   0.535  13.078 -0.1318  0.2820  0.0679
17113TIP3    H172830   5.583   0.623  13.046  0.9037  0.6980  1.7908
17113TIP3    H272831   5.611   0.475  13.023  1.9474  0.9905  1.0991
17114TIP3   OH272832   6.205   1.072   4.537  0.0924 -0.2471  0.0801
17114TIP3    H172833   6.141   1.140   4.557 -1.5448 -0.8902 -2.5352
17114TIP3    H272834   6.284   1.119   4.512 -0.8898  0.7470 -1.2985
17115TIP3   OH272835   3.931   4.525  12.335 -0.3975 -0.0045  0.7564
17115TIP3    H172836   3.855   4.508  12.391 -3.5261  0.6571 -2.8953
17115TIP3    H272837   3.913   4.609  12.294  2.1782  0.0054 -0.5738
17116TIP3   OH272838   0.642   3.116   1.930  0.9294  0.1553 -0.1083
17116TIP3    H172839   0.585   3.039   1.940 -0.5273  0.8178 -2.4264
17116TIP3    H272840   0.609   3.178   1.995 -0.4424  0.1839 -0.7921
17117TIP3   OH272841   3.248   3.955  15.389  0.2324 -0.2167 -0.3804
17117TIP3    H172842   3.322   3.905  15.354 -0.3062 -1.6712  0.4409
17117TIP3    H272843   3.253   4.040  15.345  1.2727 -0.9406 -1.7497
17118TIP3   OH272844   0.201   5.862  13.203 -0.4298  0.4245 -0.1383
17118TIP3    H172845   0.173   5.771  13.199  0.8915  0.0300 -1.7623
17118TIP3    H272846   0.256   5.866  13.282  2.4089 -1.1857 -1.8372
17119TIP3   OH272847   1.505   1.268   5.951  0.4213 -0.1487  0.3498
17119TIP3    H172848   1.564   1.205   5.909  0.3918  0.3670 -0.5025
17119TIP3    H272849   1.561   1.344   5.968  0.3074 -0.1595  0.7844
17120TIP3   OH272850   5.266   5.369   2.298 -0.0220  0.0720  0.4701
17120TIP3    H172851   5.361   5.371   2.311  0.0071 -3.4693  1.9899
17120TIP3    H272852   5.230   5.410   2.376  0.2565 -0.1990  0.7416
17121TIP3   OH272853   1.534   4.135   3.268 -0.1383 -0.1130 -1.2560
17121TIP3    H172854   1.540   4.211   3.325 -1.9950 -0.7236 -0.1697
17121TIP3    H272855   1.617   4.089   3.279 -0.4256 -0.1868  0.9413
17122TIP3   OH272856   4.955   3.555   0.990 -0.4724  0.0914  0.1323
17122TIP3    H172857   4.904   3.542   0.909 -1.2445 -0.6003  0.7115
17122TIP3    H272858   4.898   3.523   1.059 -0.1322  1.3965  1.0586
17123TIP3   OH272859   6.601   0.926   1.063  0.0691  0.3096 -0.0644
17123TIP3    H172860   6.529   0.965   1.013  0.9139  1.4640 -0.4074
17123TIP3    H272861   6.563   0.846   1.099 -0.0606 -1.7433 -4.1889
17124TIP3   OH272862   4.478   6.310   5.038  0.1545  0.4579  0.2292
17124TIP3    H172863   4.540   6.268   5.097  1.4379  1.8059 -0.0930
17124TIP3    H272864   4.408   6.343   5.095 -0.4936 -1.3806  0.5574
17125TIP3   OH272865   2.089   4.522   1.453 -0.7019 -0.7929  0.4254
17125TIP3    H172866   2.124   4.532   1.542  3.0332  1.0388 -1.0455
17125TIP3    H272867   2.020   4.588   1.447  1.7570  2.0159  0.8636
17126TIP3   OH272868   6.498   3.994  16.390  0.4884  0.3002  0.2839
17126TIP3    H172869   6.465   3.909  16.360 -0.4286  0.3535  1.0792
17126TIP3    H272870   6.545   3.975  16.471  1.8501  0.3293 -0.4686
17127TIP3   OH272871   1.941   3.809  11.884 -0.4190  0.0162 -0.3277
17127TIP3    H172872   1.951   3.851  11.798  0.1873 -0.7081 -0.6238
17127TIP3    H272873   2.022   3.760  11.896 -0.2809  0.5203  0.9000
17128TIP3   OH272874   4.501   1.521   1.287 -0.2310  0.2457 -0.4574
17128TIP3    H172875   4.414   1.541   1.322 -0.5546 -1.8972  0.0881
17128TIP3    H272876   4.489   1.523   1.192 -0.8111  0.2519 -0.3895
17129TIP3   OH272877   0.380   2.462  11.042  0.7858  1.0110 -0.6458
17129TIP3    H172878   0.317   2.390  11.037  0.5307  1.1449  0.4150
17129TIP3    H272879   0.341   2.531  10.987 -0.3447  1.3401  0.5160
17130TIP3   OH272880   4.865   2.987   2.175  0.1598  0.2711  0.2924
17130TIP3    H172881   4.917   3.005   2.096  0.5301  0.6993  0.6280
17130TIP3    H272882   4.880   2.894   2.193  1.2576  0.5097  0.6893
17131TIP3   OH272883   6.191   5.834   4.015 -0.0410  0.8000  0.5498
17131TIP3    H172884   6.185   5.926   3.988 -0.7977  0.9416  1.1853
17131TIP3    H272885   6.117   5.791   3.972  0.5967  0.3730 -0.1496
17132TIP3   OH272886   3.509   2.883   3.367 -0.5233  0.2072  0.5798
17132TIP3    H172887   3.518   2.827   3.290 -1.0150  0.7437  0.1223
17132TIP3    H272888   3.568   2.957   3.350 -0.0214 -0.0668  1.0930
17133TIP3   OH272889   3.418   5.672   3.419  0.4347  0.0807 -0.6864
17133TIP3    H172890   3.456   5.701   3.502 -0.4369  0.5848 -0.4455
17133TIP3    H272891   3.423   5.749   3.362 -1.7262  0.7391 -0.1030
17134TIP3   OH272892   3.989   3.327   2.334 -0.1052 -0.0273 -0.2236
17134TIP3    H172893   3.915   3.267   2.336 -2.2321  2.3122 -1.9194
17134TIP3    H272894   3.991   3.366   2.422 -0.4854 -0.5344  0.0163
17135TIP3   OH272895   0.185   0.977   5.278  0.5378 -0.1468 -0.0729
17135TIP3    H172896   0.263   0.923   5.261  0.0807 -0.7842 -0.1741
17135TIP3    H272897   0.118   0.942   5.220 -0.0988 -0.2167  0.6877
17136TIP3   OH272898   2.184   0.465  11.183 -0.4294  0.5051 -0.0647
17136TIP3    H172899   2.216   0.480  11.094 -0.9398  1.0875 -0.1506
17136TIP3    H272900   2.249   0.405  11.221  0.4276  1.1744 -0.4385
17137TIP3   OH272901   5.481   4.205  11.183 -0.1697 -0.7982  0.1908
17137TIP3    H172902   5.469   4.179  11.091  0.4949 -0.3527 -0.0341
17137TIP3    H272903   5.515   4.295  11.178 -1.7244 -0.1364  0.9202
17138TIP3   OH272904   3.824   5.686   2.339  0.2143  0.0358 -0.7385
17138TIP3    H172905   3.843   5.593   2.338 -0.8269 -0.1879 -0.9536
17138TIP3    H272906   3.735   5.692   2.373  1.2237  1.1560  2.0485
17139TIP3   OH272907   1.328   2.363   0.291 -1.0537  0.4651 -0.9442
17139TIP3    H172908   1.266   2.418   0.243 -0.7621  0.9629 -0.7576
17139TIP3    H272909   1.397   2.423   0.318  0.8238 -0.4430 -3.2987
17140TIP3   OH272910   0.028   0.867   6.134 -0.0045 -0.3815 -1.2540
17140TIP3    H172911   0.081   0.947   6.139  0.1378 -0.5709  1.2918
17140TIP3    H272912  -0.061   0.898   6.118 -0.1677  0.4488  0.9521
17141TIP3   OH272913   6.596   6.619   2.790  0.0004  0.5856 -0.3694
17141TIP3    H172914   6.566   6.567   2.716 -0.4043 -0.1319  0.2771
17141TIP3    H272915   6.688   6.634   2.773  0.3772 -1.1645 -0.1365
17142TIP3   OH272916   3.280   3.876   1.021  0.0746 -0.3246  0.2639
17142TIP3    H172917   3.353   3.846   1.075 -0.6979 -1.3138  0.8001
17142TIP3    H272918   3.295   3.839   0.935  0.8480  0.5253  0.0124
17143TIP3   OH272919   5.565   0.103   1.714 -0.1294  0.0030  0.4251
17143TIP3    H172920   5.625   0.033   1.688  1.0891  1.3086 -0.5037
17143TIP3    H272921   5.615   0.155   1.777  0.1334  1.6195 -1.0316
17144TIP3   OH272922   5.508   2.907   1.667  0.4349 -0.1477  0.0466
17144TIP3    H172923   5.592   2.919   1.623  0.3180 -0.5376 -0.2893
17144TIP3    H272924   5.532   2.884   1.757  0.7227 -1.3201 -0.3053
17145TIP3   OH272925   5.310   3.588   2.044  0.3003  0.1377  0.6769
17145TIP3    H172926   5.313   3.651   1.972 -0.1861 -0.9164 -0.2925
17145TIP3    H272927   5.400   3.584   2.076  0.5899  0.3745 -0.0903
17146TIP3   OH272928   6.868   4.911  10.431  0.2029 -0.2673 -0.1365
17146TIP3    H172929   6.830   4.996  10.409 -0.0074 -0.6798 -1.4963
17146TIP3    H272930   6.924   4.890  10.356  1.8424 -0.4245  1.0939
17147TIP3   OH272931   6.695   5.114   5.938  0.0445 -0.4137  0.3981
17147TIP3    H172932   6.757   5.044   5.958 -0.4113 -0.7456  0.6540
17147TIP3    H272933   6.740   5.194   5.966 -0.0345 -0.7396  1.4966
17148TIP3   OH272934   4.041   2.092  16.700  0.1027 -0.4853 -0.5230
17148TIP3    H172935   4.086   2.010  16.719  3.5900  1.4994  0.8110
17148TIP3    H272936   4.070   2.152  16.769 -2.4681  1.8726 -1.2761
17149TIP3   OH272937   3.437   5.118   4.907  0.1530  0.0821  0.5909
17149TIP3    H172938   3.503   5.164   4.959  0.5330 -0.3594  0.5088
17149TIP3    H272939   3.362   5.177   4.906  0.1228  0.0840  1.6681
17150TIP3   OH272940   0.334   4.437   3.382 -0.1755 -0.0031  0.5174
17150TIP3    H172941   0.426   4.457   3.398  0.0267  0.3573 -0.9725
17150TIP3    H272942   0.332   4.403   3.293 -1.3721 -0.8691  0.8481
17151TIP3   OH272943   0.997   3.985  14.105  0.0718 -0.3100  0.0249
17151TIP3    H172944   1.037   4.034  14.176 -0.4674  0.5932 -0.2876
17151TIP3    H272945   0.916   4.031  14.085 -0.1368 -0.9560 -0.7028
17152TIP3   OH272946   0.640   3.339  14.651 -0.4506  0.4388 -0.8225
17152TIP3    H172947   0.602   3.346  14.739  1.6481 -0.1992  0.2077
17152TIP3    H272948   0.577   3.287  14.602  0.1463 -2.9226  1.5703
17153TIP3   OH272949   3.322   0.745  12.435  1.1861 -0.6110  0.1716
17153TIP3    H172950   3.286   0.722  12.349  1.4613 -0.6895  0.0761
17153TIP3    H272951   3.360   0.832  12.422 -2.1725  1.1893  1.1824
17154TIP3   OH272952   0.647   2.477  13.268  0.1520 -0.0171 -0.3158
17154TIP3    H172953   0.609   2.388  13.263 -0.5042  0.2789 -0.7612
17154TIP3    H272954   0.611   2.522  13.192 -1.1000  1.2256  0.9515
17155TIP3   OH272955   4.075   1.256  11.930  0.3070  0.2097 -0.4463
17155TIP3    H172956   4.153   1.237  11.878  0.6206 -0.0800  0.1159
17155TIP3    H272957   4.022   1.313  11.875  0.1357 -0.9493 -1.5103
17156TIP3   OH272958   2.565   3.421   6.192  0.0006  0.0114 -0.0961
17156TIP3    H172959   2.557   3.500   6.246  1.4794  0.9042 -1.1059
17156TIP3    H272960   2.572   3.454   6.102 -2.4533 -1.4336 -0.9212
17157TIP3   OH272961   1.114   5.090   9.917  0.0574 -0.1967  0.0076
17157TIP3    H172962   1.041   5.147   9.941  0.3057 -0.6723  2.0570
17157TIP3    H272963   1.079   5.001   9.928  0.3358 -0.4486 -1.0317
17158TIP3   OH272964   5.528   2.078  11.670 -0.2478 -0.1977  0.3002
17158TIP3    H172965   5.468   2.021  11.621  0.1884 -0.5335  0.1458
17158TIP3    H272966   5.571   2.130  11.602  0.6189 -0.9147  0.2861
17159TIP3   OH272967   4.560   4.255   5.158  0.1927  0.0356 -0.1905
17159TIP3    H172968   4.593   4.202   5.086  0.7365 -0.4104  0.3742
17159TIP3    H272969   4.531   4.191   5.223  0.8559  0.4192  0.4973
17160TIP3   OH272970   5.670   1.122   5.831  0.0872  0.3323 -0.1800
17160TIP3    H172971   5.597   1.162   5.879  2.3154  1.0711  2.9105
17160TIP3    H272972   5.697   1.048   5.886 -0.3066 -2.0387 -2.9345
17161TIP3   OH272973   0.872   3.440  11.786 -0.4367 -0.0966  0.0079
17161TIP3    H172974   0.905   3.510  11.842 -0.4571 -0.4196  0.4375
17161TIP3    H272975   0.780   3.432  11.810 -0.9204  0.9880 -1.3861
17162TIP3   OH272976   3.745   5.795  10.091  0.4173 -0.2742 -0.2484
17162TIP3    H172977   3.812   5.844  10.138 -0.3744  1.1752 -0.5674
17162TIP3    H272978   3.681   5.861  10.065 -0.0400 -1.3032 -1.8490
17163TIP3   OH272979   5.722   5.714  13.443 -0.1482 -0.0811 -1.0760
17163TIP3    H172980   5.737   5.621  13.423 -1.2483 -0.1444 -1.7313
17163TIP3    H272981   5.637   5.733  13.403 -2.1206  0.0751  2.7247
17164TIP3   OH272982   5.208   2.463   4.435  0.1034  0.1791 -0.7948
17164TIP3    H172983   5.267   2.500   4.501 -0.7245 -0.5222  0.3609
17164TIP3    H272984   5.174   2.383   4.474 -0.2902 -0.3515 -2.1463
17165TIP3   OH272985   1.738   0.912  15.246 -0.2855  0.7616  0.8692
17165TIP3    H172986   1.674   0.855  15.204  0.2327  0.5805  0.2973
17165TIP3    H272987   1.775   0.963  15.175  0.7029  0.3575  1.0675
17166TIP3   OH272988   1.651   1.913   1.451  0.1532  0.3154  0.2796
17166TIP3    H172989   1.598   1.838   1.477  2.1988 -1.1901  0.3398
17166TIP3    H272990   1.659   1.904   1.356  0.7836  0.1700  0.3420
17167TIP3   OH272991   0.816   0.790  11.884 -0.1795  0.4462  0.4409
17167TIP3    H172992   0.732   0.770  11.924 -0.2780  0.3086  0.1626
17167TIP3    H272993   0.854   0.858  11.941 -0.1802  0.0343  0.9431
17168TIP3   OH272994   4.565   3.927   3.372  0.3876  0.1335 -0.2044
17168TIP3    H172995   4.483   3.970   3.397 -0.0051 -0.8765  0.3306
17168TIP3    H272996   4.539   3.869   3.299  0.7928  0.3844 -0.5534
17169TIP3   OH272997   4.364   6.172  16.169  0.4774 -0.1527 -0.3465
17169TIP3    H172998   4.445   6.166  16.219  0.3238  0.4734 -0.0071
17169TIP3    H272999   4.300   6.204  16.232 -0.2050 -1.2953 -0.4240
17170TIP3   OH273000   3.768   3.375   1.077  0.1941  0.4070  0.6575
17170TIP3    H173001   3.793   3.285   1.056 -0.6923  0.3328 -0.1042
17170TIP3    H273002   3.675   3.380   1.058  0.1715  1.4139  0.9592
17171TIP3   OH273003   5.584   4.169   3.003 -0.3495  0.2317  0.2814
17171TIP3    H173004   5.616   4.217   3.079  1.0433 -0.5881  0.2466
17171TIP3    H273005   5.611   4.079   3.019 -0.1502  0.0292 -1.1331
17172TIP3   OH273006   4.288   5.057   4.737 -0.2476 -0.2709  0.4016
17172TIP3    H173007   4.215   5.000   4.712  0.7764 -0.7641 -1.6572
17172TIP3    H273008   4.322   5.018   4.818 -0.0279 -2.1829 -0.5681
17173TIP3   OH273009   5.105   5.700  16.306 -0.2723 -0.4137  0.5950
17173TIP3    H173010   5.199   5.691  16.286 -0.8347 -1.8639 -1.7799
17173TIP3    H273011   5.074   5.765  16.243 -1.5079 -2.7387 -1.3538
17174TIP3   OH273012   5.421   0.104   4.654  0.3435  0.0994  0.2554
17174TIP3    H173013   5.446   0.023   4.697 -0.7288 -0.0367  0.6586
17174TIP3    H273014   5.400   0.164   4.726 -0.5238  0.1807 -0.0550
17175TIP3   OH273015   0.540   6.574  11.341  0.0850  0.6163 -0.1383
17175TIP3    H173016   0.463   6.523  11.367  0.5748  0.3010  0.7545
17175TIP3    H273017   0.560   6.544  11.252  0.9523 -1.5425  0.6987
17176TIP3   OH273018   2.372   4.305  10.658 -0.0964 -0.1432  0.7713
17176TIP3    H173019   2.427   4.291  10.581  1.3685  1.2463  1.4941
17176TIP3    H273020   2.349   4.217  10.687 -0.5137 -0.6937 -1.1112
17177TIP3   OH273021   6.869   1.642   3.909 -0.3521  0.3003 -0.3042
17177TIP3    H173022   6.834   1.583   3.976 -0.2135  1.3444  0.7187
17177TIP3    H273023   6.921   1.585   3.851  0.4302 -0.4721  1.1077
17178TIP3   OH273024   2.653   3.066  13.232  0.0569 -0.0600 -0.0387
17178TIP3    H173025   2.699   2.995  13.187 -2.2888 -1.9284  0.3454
17178TIP3    H273026   2.650   3.040  13.324 -0.2462  0.8724  0.2331
17179TIP3   OH273027   6.884   2.057  13.973 -0.3612 -0.4691 -0.5297
17179TIP3    H173028   6.978   2.057  13.992 -0.2285  1.7509 -0.8760
17179TIP3    H273029   6.868   2.143  13.934 -2.3512 -1.2175 -1.5091
17180TIP3   OH273030   2.704   2.416   2.376 -0.2604 -0.5127  0.1161
17180TIP3    H173031   2.780   2.392   2.429 -0.1970 -0.3209  0.1133
17180TIP3    H273032   2.632   2.426   2.439 -0.5322 -1.7019  0.0100
17181TIP3   OH273033   4.354   5.590   0.969 -0.1904 -0.0133  0.4494
17181TIP3    H173034   4.445   5.611   0.989 -0.5902 -0.5562  3.2696
17181TIP3    H273035   4.335   5.641   0.890  1.6648  2.6047  1.5166
17182TIP3   OH273036   6.873   2.237  12.998 -0.3666 -0.5493 -0.3351
17182TIP3    H173037   6.874   2.142  12.995 -2.6153 -0.6325  0.0779
17182TIP3    H273038   6.855   2.264  12.908 -0.6300 -0.5400 -0.2789
17183TIP3   OH273039   1.201   5.644   5.231  0.1506 -0.0842  0.0942
17183TIP3    H173040   1.176   5.622   5.321  0.1440 -1.4405 -0.2179
17183TIP3    H273041   1.149   5.721   5.210  1.3213  1.2394  1.7865
17184TIP3   OH273042   3.982   2.458   3.804  0.0978  0.3637 -0.2271
17184TIP3    H173043   3.891   2.483   3.788 -0.8973 -1.4119  2.0875
17184TIP3    H273044   3.990   2.454   3.900  2.4754 -0.0207 -0.3687
17185TIP3   OH273045   3.360   3.207  13.119 -0.8333  0.2776 -0.5373
17185TIP3    H173046   3.359   3.302  13.129 -0.3549  0.0475  2.7423
17185TIP3    H273047   3.267   3.182  13.124 -1.0551  0.5672 -2.4003
17186TIP3   OH273048   3.280   6.664   9.970 -0.2552  0.1792  0.6787
17186TIP3    H173049   3.198   6.651   9.922 -0.1071 -0.9568  0.7095
17186TIP3    H273050   3.326   6.580   9.962  0.2772  0.3432  1.8487
17187TIP3   OH273051   4.795   0.050  15.033 -0.9778  0.2712  0.1766
17187TIP3    H173052   4.768   0.002  15.112 -2.7121  1.0567  0.1145
17187TIP3    H273053   4.812  -0.018  14.968  1.6879 -0.4706  1.4977
17188TIP3   OH273054   1.138   5.516  15.134 -0.0448 -0.5337  0.6099
17188TIP3    H173055   1.181   5.561  15.062  1.5579  0.5106  2.1494
17188TIP3    H273056   1.197   5.526  15.209 -1.7681 -1.2903  2.1787
17189TIP3   OH273057   5.659   3.519   5.828 -0.1999  0.2092 -0.4870
17189TIP3    H173058   5.631   3.499   5.917 -0.1457 -1.4643 -0.8161
17189TIP3    H273059   5.578   3.517   5.776 -0.1249  0.3786 -0.6123
17190TIP3   OH273060   6.774   0.966  11.376 -0.4167 -0.0123  0.1562
17190TIP3    H173061   6.780   1.033  11.309  0.5398 -1.1693 -0.9698
17190TIP3    H273062   6.835   0.994  11.444  0.5002 -0.0555 -0.6235
17191TIP3   OH273063   4.229   5.095  14.786  0.4164 -0.2437 -0.5582
17191TIP3    H173064   4.217   5.129  14.875  1.7196 -0.1620 -0.3904
17191TIP3    H273065   4.161   5.139  14.734  0.9299  1.2876  0.0111
17192TIP3   OH273066   3.655   1.539   2.890 -0.2791 -0.8323 -0.0318
17192TIP3    H173067   3.560   1.540   2.883 -0.2793 -0.7921 -0.0228
17192TIP3    H273068   3.680   1.631   2.896  0.0229 -0.5507 -3.6496
17193TIP3   OH273069   5.583   5.539  10.804  0.3393  0.8056 -0.0243
17193TIP3    H173070   5.648   5.549  10.734  1.1143 -0.4959  0.4877
17193TIP3    H273071   5.629   5.569  10.883 -0.3015  1.6023  0.0611
17194TIP3   OH273072   3.111   2.200  15.394  0.7959  0.2662 -0.3803
17194TIP3    H173073   3.202   2.174  15.408  0.4840 -0.7909 -0.2923
17194TIP3    H273074   3.078   2.219  15.482  0.8058  0.2667 -0.3765
17195TIP3   OH273075   6.511   1.374   1.479 -0.1804 -0.1236 -0.0333
17195TIP3    H173076   6.605   1.365   1.465 -0.4904 -1.6149 -1.4746
17195TIP3    H273077   6.499   1.357   1.573  0.8868 -0.9623 -0.0269
17196TIP3   OH273078   6.876   0.564   1.151 -0.0584  0.9485  0.1431
17196TIP3    H173079   6.953   0.526   1.108 -1.3488 -2.0959  0.2849
17196TIP3    H273080   6.812   0.573   1.081 -1.1634 -1.2429  0.7753
17197TIP3   OH273081   2.349   0.121   1.155  0.5185 -0.5312  0.3167
17197TIP3    H173082   2.309   0.048   1.108  0.1404 -0.4437  0.5038
17197TIP3    H273083   2.424   0.083   1.200  2.0199 -0.2937 -1.8330
17198TIP3   OH273084   2.462   0.499  13.842 -0.1832  0.3551 -0.1736
17198TIP3    H173085   2.522   0.491  13.768  0.2244 -2.7666  0.3551
17198TIP3    H273086   2.501   0.565  13.899  0.7996  0.9815 -1.5281
17199TIP3   OH273087   0.892   4.036  10.720 -0.5969 -0.4647  0.2853
17199TIP3    H173088   0.979   3.997  10.731  0.1349  1.4094  1.8204
17199TIP3    H273089   0.909   4.119  10.674 -1.4222  0.3762  1.4422
17200TIP3   OH273090   4.838   1.992   0.978  0.6669  0.1098  0.3778
17200TIP3    H173091   4.845   2.058   0.908 -0.1335  1.2613  1.3548
17200TIP3    H273092   4.878   1.914   0.940  1.4587  1.0851 -0.8955
17201TIP3   OH273093   6.105   2.671  11.264  0.0830 -0.3061 -0.2608
17201TIP3    H173094   6.124   2.765  11.256 -1.9691  0.0858 -1.2080
17201TIP3    H273095   6.120   2.651  11.356 -0.7752  1.2883  0.2637
17202TIP3   OH273096   2.949   4.569   4.246  0.1960 -0.1386  0.0785
17202TIP3    H173097   2.967   4.475   4.246  0.7557 -0.0354 -0.1107
17202TIP3    H273098   2.859   4.576   4.279 -0.0647 -0.7797 -0.4673
17203TIP3   OH273099   1.618   3.365   3.199  0.2160 -0.2838  0.1040
17203TIP3    H173100   1.610   3.425   3.273  3.2435 -0.5411  0.7850
17203TIP3    H273101   1.696   3.395   3.153 -1.0837 -0.6950 -2.5258
17204TIP3   OH273102   1.097   5.137  12.792  0.2718  0.4256  0.0426
17204TIP3    H173103   1.164   5.138  12.860  0.0739  0.4395  0.2391
17204TIP3    H273104   1.085   5.045  12.771 -0.0483  0.3818  0.4075
17205TIP3   OH273105   0.582   6.709   2.378  0.1400 -0.1508 -0.6884
17205TIP3    H173106   0.548   6.620   2.377  0.6231 -0.3344 -0.6152
17205TIP3    H273107   0.642   6.714   2.304 -0.1793  0.2319 -0.9291
17206TIP3   OH273108   5.439   4.087  15.184  0.2276  0.2163 -0.0183
17206TIP3    H173109   5.495   4.157  15.216  0.7598 -0.3043  0.2013
17206TIP3    H273110   5.493   4.040  15.121 -0.5781  0.8238 -1.2184
17207TIP3   OH273111   3.455   4.607   0.706  0.2085  0.0460 -0.0627
17207TIP3    H173112   3.371   4.646   0.682  0.8103  1.7202  0.4205
17207TIP3    H273113   3.453   4.602   0.802  0.3336 -0.7248 -0.0900
17208TIP3   OH273114   0.323   0.599  12.749  0.5420  0.1997 -0.2682
17208TIP3    H173115   0.371   0.669  12.705  0.7683 -0.5899 -1.3006
17208TIP3    H273116   0.364   0.518  12.719 -0.4333 -0.4274  0.0432
17209TIP3   OH273117   1.964   2.726  15.426 -0.1482 -0.2512  0.3669
17209TIP3    H173118   1.871   2.724  15.445 -0.4493  0.2554 -0.9540
17209TIP3    H273119   1.973   2.682  15.342  0.6252  0.7861 -0.1214
17210TIP3   OH273120   5.482   4.728  12.835  0.0072  0.4794 -0.7787
17210TIP3    H173121   5.458   4.637  12.820  0.0440  0.4845 -0.8688
17210TIP3    H273122   5.422   4.758  12.903  0.6746  0.0811  0.0179
17211TIP3   OH273123   0.565   6.602  12.834  0.0776 -0.0270  0.1639
17211TIP3    H173124   0.483   6.561  12.862 -0.1563 -0.1775 -0.6973
17211TIP3    H273125   0.631   6.564  12.891 -0.5991  1.0247  1.7013
17212TIP3   OH273126   6.220   0.871   2.289  0.2313  0.3164  0.0408
17212TIP3    H173127   6.188   0.894   2.376  0.0453  2.3261 -0.5217
17212TIP3    H273128   6.153   0.903   2.229  1.1854  0.5541 -0.9341
17213TIP3   OH273129   5.172   0.520   5.315  0.0573  0.5858 -0.1175
17213TIP3    H173130   5.234   0.591   5.294 -0.0532  1.1854  1.4540
17213TIP3    H273131   5.225   0.456   5.363 -0.3843  0.8030  0.6740
17214TIP3   OH273132   2.361   3.786   4.885 -0.8081  0.2325 -0.4492
17214TIP3    H173133   2.388   3.878   4.877  0.2327 -0.0625 -0.4913
17214TIP3    H273134   2.327   3.763   4.799  0.2370  0.1868 -0.8614
17215TIP3   OH273135   5.943   5.174   4.363 -0.3379  0.4068  0.7685
17215TIP3    H173136   5.918   5.188   4.271 -1.6732  1.7762  1.2899
17215TIP3    H273137   6.035   5.149   4.359 -0.0511  1.5250 -0.8930
17216TIP3   OH273138   2.183   3.683  13.593  0.2279  0.0464  0.0526
17216TIP3    H173139   2.119   3.650  13.656 -1.5434  2.7081 -0.1811
17216TIP3    H273140   2.221   3.760  13.635  2.3582 -0.7103 -0.3747
17217TIP3   OH273141   2.611   2.023  16.302 -0.1209 -0.5909  0.4912
17217TIP3    H173142   2.586   1.932  16.316  0.9339 -1.1740 -1.1083
17217TIP3    H273143   2.688   2.036  16.356  0.0675 -0.8257  0.2804
17218TIP3   OH273144   3.690   3.408   2.168  0.0945  0.4807 -0.1085
17218TIP3    H173145   3.653   3.356   2.097  0.0515 -1.1725  1.0863
17218TIP3    H273146   3.776   3.435   2.135  0.9063 -1.8929 -0.1020
17219TIP3   OH273147   0.171   2.827   1.239  0.0222 -0.2765  0.0981
17219TIP3    H173148   0.218   2.812   1.322 -0.1347  0.3293  0.3030
17219TIP3    H273149   0.139   2.917   1.247 -0.5323 -0.4372 -0.3623
17220TIP3   OH273150   0.150   5.212   0.226  0.0527 -0.9451  0.1048
17220TIP3    H173151   0.225   5.221   0.168 -0.0002  0.3627  0.2068
17220TIP3    H273152   0.074   5.233   0.171 -0.1228 -0.9840  0.3302
17221TIP3   OH273153   5.474   1.973   1.972 -0.6893  0.0024 -0.2303
17221TIP3    H173154   5.483   1.897   1.914 -3.0068  0.1149 -0.8258
17221TIP3    H273155   5.407   1.947   2.035  1.1604  0.2150  1.9624
17222TIP3   OH273156   6.258   5.065  15.366 -0.0509  0.2865  0.5577
17222TIP3    H173157   6.332   5.005  15.370  1.1917  1.7714  1.3625
17222TIP3    H273158   6.226   5.058  15.276 -0.2428 -1.8562  0.7508
17223TIP3   OH273159   3.124   1.392   4.020  0.1812 -0.2930  0.5346
17223TIP3    H173160   3.121   1.476   3.974  1.8409 -0.2774  0.3733
17223TIP3    H273161   3.053   1.340   3.981  1.1102 -0.0540 -1.6445
17224TIP3   OH273162   3.275   5.518  15.515  0.3739 -0.0165 -0.2155
17224TIP3    H173163   3.289   5.447  15.578  0.2660  0.1135 -0.0446
17224TIP3    H273164   3.317   5.487  15.435 -1.0480 -0.9644 -0.6297
17225TIP3   OH273165   3.362   6.200   3.038  0.6124  0.5438 -0.1039
17225TIP3    H173166   3.294   6.147   3.079  0.9071 -0.6932 -1.1491
17225TIP3    H273167   3.329   6.218   2.950  1.6514 -0.1375 -0.6570
17226TIP3   OH273168   5.004   1.660  11.054  0.1495 -0.0729  0.3649
17226TIP3    H173169   4.965   1.636  10.970  1.0959 -0.0113 -0.1035
17226TIP3    H273170   4.973   1.593  11.115  0.0890 -0.5755 -0.2050
17227TIP3   OH273171   0.802   1.091  11.168  0.2131  0.1647 -0.2711
17227TIP3    H173172   0.733   1.026  11.154  0.6760 -0.5474  0.6673
17227TIP3    H273173   0.767   1.148  11.236 -0.4770  1.3481 -1.5672
17228TIP3   OH273174   4.223   5.013  11.647  0.0571 -0.1544 -0.1937
17228TIP3    H173175   4.201   4.922  11.625 -0.7909 -0.7694  2.7945
17228TIP3    H273176   4.140   5.060  11.641 -0.3772 -0.5081  2.1607
17229TIP3   OH273177   4.412   4.708  11.391 -0.2138 -0.3372  0.2942
17229TIP3    H173178   4.396   4.800  11.367  1.2369  0.1211  0.9410
17229TIP3    H273179   4.332   4.662  11.366 -0.7118  0.9852 -0.6671
17230TIP3   OH273180   6.564   0.874   2.633 -0.1507  0.3106  0.1141
17230TIP3    H173181   6.575   0.808   2.702 -1.4803  0.4671  0.5216
17230TIP3    H273182   6.574   0.958   2.678 -2.5152  0.4656  0.5173
17231TIP3   OH273183   4.016   1.242   6.188  0.1542  0.0311 -0.7808
17231TIP3    H173184   4.054   1.321   6.151  1.1140 -0.2732 -0.4723
17231TIP3    H273185   4.091   1.185   6.205 -0.5896 -1.4200 -2.0789
17232TIP3   OH273186   4.423   2.488  15.104 -0.0750  0.1799  0.0052
17232TIP3    H173187   4.494   2.468  15.165 -1.8203 -1.4703  1.5952
17232TIP3    H273188   4.439   2.431  15.028 -0.4961 -1.3106  1.0053
17233TIP3   OH273189   2.516   4.358   5.581 -0.0352 -0.0776  0.2978
17233TIP3    H173190   2.474   4.283   5.624 -3.0109  1.5121  0.4241
17233TIP3    H273191   2.542   4.416   5.653 -0.5695  0.3831  0.1264
17234TIP3   OH273192   1.487   4.818  15.364 -0.0554  0.3338 -0.2306
17234TIP3    H173193   1.464   4.766  15.287 -0.0845 -0.0093  0.0071
17234TIP3    H273194   1.517   4.901  15.328  0.3311  0.0277 -0.6311
17235TIP3   OH273195   2.324   0.962  12.710 -0.0009  0.5789 -0.1085
17235TIP3    H173196   2.377   0.882  12.716  1.1897  1.4121  1.7459
17235TIP3    H273197   2.259   0.953  12.780 -0.0550  1.0832 -0.0911
17236TIP3   OH273198   6.252   0.364   6.140 -0.2409 -0.2338 -0.4375
17236TIP3    H173199   6.329   0.398   6.095 -0.8833 -0.7624 -2.0161
17236TIP3    H273200   6.282   0.283   6.181  0.7219  1.0059  1.4034
17237TIP3   OH273201   1.032   1.912  10.855 -0.6452  0.4376  0.1172
17237TIP3    H173202   1.126   1.898  10.869 -0.2966  2.2167 -0.1646
17237TIP3    H273203   1.020   1.901  10.760 -1.0377 -1.2767  0.3342
17238TIP3   OH273204   2.379   6.451   1.445 -0.2698 -0.4955  0.1602
17238TIP3    H173205   2.398   6.464   1.352  0.6300  0.2551  0.4291
17238TIP3    H273206   2.420   6.367   1.467  1.3780  0.3054  0.3345
17239TIP3   OH273207   0.369   4.634   0.673  0.0966  0.0235  0.3045
17239TIP3    H173208   0.429   4.645   0.599  1.0589  1.0671  1.2036
17239TIP3    H273209   0.292   4.686   0.649  1.1778  1.9647  0.8085
17240TIP3   OH273210   3.497   1.566  11.317  0.2303 -0.0126  0.3198
17240TIP3    H173211   3.545   1.510  11.256 -0.5922 -2.0692  1.4789
17240TIP3    H273212   3.405   1.541  11.304  0.0502 -0.6252  2.4785
17241TIP3   OH273213   4.599   1.041   6.281 -0.4547  0.4545 -1.1855
17241TIP3    H173214   4.588   1.055   6.187 -2.4751  1.8949 -0.7976
17241TIP3    H273215   4.634   1.125   6.314  1.3839 -0.4199 -0.7620
17242TIP3   OH273216   4.262   6.885   2.070  0.1121 -0.3727  0.8257
17242TIP3    H173217   4.326   6.832   2.117  0.0693 -0.5841  0.6510
17242TIP3    H273218   4.221   6.940   2.137  0.5734 -0.1368  0.9137
17243TIP3   OH273219   2.123   0.053   4.725 -0.5952  0.0908 -0.8654
17243TIP3    H173220   2.209   0.055   4.767 -1.8144  0.1915  1.8909
17243TIP3    H273221   2.126  -0.024   4.668  0.8788 -0.7511  0.2567
17244TIP3   OH273222   2.014   0.053  13.855 -0.2497 -0.5508 -0.3965
17244TIP3    H173223   1.944   0.106  13.893 -1.0226 -1.0953 -1.0087
17244TIP3    H273224   2.089   0.066  13.913 -0.7920  0.2260  0.1493
17245TIP3   OH273225   2.909   0.324  14.171 -0.4692 -0.2512  0.4609
17245TIP3    H173226   2.925   0.235  14.203  0.3098 -0.1951  0.2450
17245TIP3    H273227   2.878   0.371  14.248 -0.9996 -0.7337  0.5518
17246TIP3   OH273228   3.667   0.544  16.278  0.3553 -0.0673  0.2963
17246TIP3    H173229   3.656   0.639  16.285  1.2343  0.0531  0.0629
17246TIP3    H273230   3.752   0.532  16.235 -0.9484 -0.9069 -2.3022
17247TIP3   OH273231   3.670   4.989   1.627 -0.3196 -0.3005  0.8428
17247TIP3    H173232   3.640   4.898   1.618  0.8625 -0.5612 -1.0275
17247TIP3    H273233   3.672   5.022   1.537  1.2388  0.9079  1.2873
17248TIP3   OH273234   6.675   0.572  15.631  0.4433  0.0962 -0.4850
17248TIP3    H173235   6.734   0.571  15.556  1.4509  1.1579  0.2753
17248TIP3    H273236   6.716   0.515  15.695  0.3244  0.3303 -0.1972
17249TIP3   OH273237   1.203   4.649  12.426  0.5169  0.1999  0.5178
17249TIP3    H173238   1.209   4.585  12.497  2.3702 -0.5622 -0.2537
17249TIP3    H273239   1.265   4.617  12.360  0.1045  1.8038 -0.7019
17250TIP3   OH273240   5.393   6.434  11.000 -0.3442  0.3592 -0.0637
17250TIP3    H173241   5.469   6.491  10.992 -0.6909  0.7039 -0.9901
17250TIP3    H273242   5.415   6.356  10.949 -0.3734  0.1993  0.1653
17251TIP3   OH273243   6.433   6.337  11.206  0.0955 -0.7909 -0.0336
17251TIP3    H173244   6.416   6.269  11.272  1.2537 -0.6635  0.4321
17251TIP3    H273245   6.477   6.406  11.255 -0.2875 -0.0806 -0.6789
17252TIP3   OH273246   2.289   5.811  11.487  0.4368 -0.5594  0.6081
17252TIP3    H173247   2.296   5.905  11.503 -1.3518 -0.6758  2.5339
17252TIP3    H273248   2.238   5.778  11.561 -1.6739 -2.5514 -1.5713
17253TIP3   OH273249   4.065   2.541   4.594 -0.0315  0.7088  0.1088
17253TIP3    H173250   4.028   2.592   4.522  0.6040  2.3329  0.8764
17253TIP3    H273251   4.144   2.589   4.620  0.8495 -0.9244  0.6037
17254TIP3   OH273252   5.656   0.219  10.426 -0.2892 -0.0389 -0.4714
17254TIP3    H173253   5.699   0.203  10.342 -0.2160 -2.1765 -0.0712
17254TIP3    H273254   5.568   0.250  10.402  0.2605  0.9726 -1.2944
17255TIP3   OH273255   0.347   2.688  12.161 -0.3760  0.3042  0.4115
17255TIP3    H173256   0.345   2.641  12.245  1.1079 -0.7784 -0.1241
17255TIP3    H273257   0.434   2.671  12.126 -0.1560  2.6192 -0.3184
17256TIP3   OH273258   4.776   3.399   0.805 -0.0271  0.1735  0.0704
17256TIP3    H173259   4.717   3.324   0.800 -0.0422  0.1794  0.1547
17256TIP3    H273260   4.718   3.475   0.802 -0.0044  0.1833 -0.1082
17257TIP3   OH273261   5.722   0.329  12.203  0.2730 -0.1021  0.6423
17257TIP3    H173262   5.798   0.386  12.203 -1.4141  2.3034  1.4859
17257TIP3    H273263   5.658   0.374  12.148 -0.1141 -2.8129 -1.3538
17258TIP3   OH273264   6.858   2.319   1.000 -0.0562  0.2280  0.3701
17258TIP3    H173265   6.951   2.342   0.998 -0.2664  1.0996  0.0065
17258TIP3    H273266   6.857   2.224   0.989  0.7908  0.2034  0.4061
17259TIP3   OH273267   5.086   0.814   5.669  0.0783  0.4631  0.1161
17259TIP3    H173268   5.044   0.786   5.588  0.4117 -1.2471  0.4990
17259TIP3    H273269   5.178   0.828   5.646 -0.0340  0.9940 -0.0174
17260TIP3   OH273270   4.541   6.253   2.358 -0.3159 -0.9551  0.2295
17260TIP3    H173271   4.585   6.190   2.302 -0.1955 -1.6675  1.1045
17260TIP3    H273272   4.510   6.321   2.298 -0.0042 -1.5819 -0.6615
17261TIP3   OH273273   5.936   2.797  12.454 -0.5676  0.5413  0.3985
17261TIP3    H173274   5.990   2.753  12.389 -2.2915  0.4667 -1.0581
17261TIP3    H273275   5.966   2.762  12.538 -1.4352 -3.0542 -0.6123
17262TIP3   OH273276   5.873   0.636   3.324 -0.0766  0.7709 -0.1250
17262TIP3    H173277   5.812   0.564   3.331  1.3298 -0.6523 -1.6115
17262TIP3    H273278   5.837   0.692   3.255  0.0560  0.1682 -0.6944
17263TIP3   OH273279   5.119   2.370  14.722 -0.3823 -0.4872 -0.8311
17263TIP3    H173280   5.206   2.329  14.719  0.3392  0.5943  1.8757
17263TIP3    H273281   5.074   2.325  14.794 -1.1008  0.6323 -0.5549
17264TIP3   OH273282   3.311   5.401   5.467 -0.0196  0.5586 -0.1576
17264TIP3    H173283   3.314   5.474   5.405  0.4526 -0.0772 -0.9075
17264TIP3    H273284   3.403   5.377   5.480 -0.1412  0.4153  0.4688
17265TIP3   OH273285   4.694   4.373  12.727  0.2002  0.2336  0.1946
17265TIP3    H173286   4.756   4.310  12.689  0.1568  0.1609  0.2442
17265TIP3    H273287   4.741   4.411  12.801 -0.6765 -1.6281  1.8127
17266TIP3   OH273288   0.361   6.220  16.125  0.7616  0.0788 -0.1433
17266TIP3    H173289   0.451   6.225  16.092  0.9355  2.5128  0.5575
17266TIP3    H273290   0.309   6.265  16.058  0.6024  1.7852  1.0774
17267TIP3   OH273291   3.657   0.446   5.599  0.5472  0.0217 -0.3429
17267TIP3    H173292   3.732   0.389   5.582 -1.1235 -2.6606  0.6255
17267TIP3    H273293   3.695   0.527   5.631  3.0653 -0.6983 -1.2679
17268TIP3   OH273294   4.646   6.307  16.660 -0.1860 -0.0693 -0.3179
17268TIP3    H173295   4.577   6.371  16.677  0.9535  1.3451 -0.8474
17268TIP3    H273296   4.716   6.357  16.617  1.1594 -1.4468  0.1556
17269TIP3   OH273297   4.220   3.614  15.322 -0.4842  0.0667 -0.6728
17269TIP3    H173298   4.201   3.618  15.416 -0.3643 -1.6561 -0.5389
17269TIP3    H273299   4.282   3.685  15.307 -1.6851  1.3600  0.2340
17270TIP3   OH273300   1.314   4.458   2.113  0.0792  0.3648  0.6157
17270TIP3    H173301   1.263   4.472   2.033  1.4586  2.6405  0.0434
17270TIP3    H273302   1.255   4.409   2.170 -1.7349  0.5501 -0.9850
17271TIP3   OH273303   4.617   5.106   0.695 -0.3521  0.1631  0.8073
17271TIP3    H173304   4.535   5.072   0.657  0.2157 -1.4548  0.9634
17271TIP3    H273305   4.615   5.077   0.786  1.1785 -1.4288  0.3783
17272TIP3   OH273306   5.874   4.021  12.283  0.2602 -0.5088  0.2798
17272TIP3    H173307   5.958   4.065  12.298  0.2244 -0.4982  0.4559
17272TIP3    H273308   5.882   3.938  12.331  0.1906 -0.5334  0.2495
17273TIP3   OH273309   4.059   1.204  16.316  0.0513  0.0814 -0.1945
17273TIP3    H173310   4.074   1.114  16.342  0.4045  0.5029  1.1187
17273TIP3    H273311   4.120   1.219  16.243  2.2464  0.1488  1.5586
17274TIP3   OH273312   2.876   0.528  15.606  0.6189 -0.2571 -0.2804
17274TIP3    H173313   2.833   0.489  15.530 -0.9667 -0.1681  0.5427
17274TIP3    H273314   2.905   0.454  15.659 -1.3788 -0.3845  0.7172
17275TIP3   OH273315   4.381   0.896  13.188 -0.1639  0.3184  0.3289
17275TIP3    H173316   4.442   0.847  13.242 -0.6535 -0.4233  0.2231
17275TIP3    H273317   4.299   0.896  13.237 -0.4537  0.1310 -0.1477
17276TIP3   OH273318   1.527   4.842   5.639  0.0870  0.1823  0.0829
17276TIP3    H173319   1.576   4.874   5.563 -1.4034 -0.6437 -1.2948
17276TIP3    H273320   1.561   4.753   5.652  0.6323  0.4688  0.6734
17277TIP3   OH273321   6.596   3.338   4.904  0.6982 -0.6774 -0.6283
17277TIP3    H173322   6.529   3.271   4.920  0.3511 -0.4417 -1.0680
17277TIP3    H273323   6.610   3.379   4.989 -0.6784  0.1639 -0.7751
17278TIP3   OH273324   2.362   0.128   6.341  0.0962  0.2879  0.5400
17278TIP3    H173325   2.357   0.165   6.253  1.7510  0.5496  0.5093
17278TIP3    H273326   2.411   0.193   6.391 -1.4058  0.4629  1.8604
17279TIP3   OH273327   0.399   5.985  13.016  0.0157  0.0430  0.2582
17279TIP3    H173328   0.465   6.028  13.070  0.6085  0.6826 -0.9442
17279TIP3    H273329   0.344   5.938  13.079  0.7897  0.6085  1.3952
17280TIP3   OH273330   1.788   5.114  10.439 -0.4622  0.0532  0.0526
17280TIP3    H173331   1.877   5.078  10.444  0.0334  1.1362 -0.6525
17280TIP3    H273332   1.741   5.052  10.384  0.5686  0.7686 -1.7243
17281TIP3   OH273333   2.429   3.537   1.660 -0.0201  0.2309 -0.0505
17281TIP3    H173334   2.502   3.536   1.598  0.3976 -2.3631  0.4002
17281TIP3    H273335   2.355   3.505   1.610 -0.3902  0.9015  0.0512
17282TIP3   OH273336   1.099   1.437   3.193  0.3084  0.9525  0.1811
17282TIP3    H173337   1.174   1.381   3.170 -0.6296 -0.4655  0.4705
17282TIP3    H273338   1.055   1.452   3.109 -0.6646 -0.6155  0.3629
17283TIP3   OH273339   0.530   6.773   5.695  0.3526  0.0704  0.3181
17283TIP3    H173340   0.516   6.860   5.731 -1.4142 -0.4181  0.9230
17283TIP3    H273341   0.476   6.715   5.750  1.9993 -1.5115  0.3634
17284TIP3   OH273342   0.048   0.938   4.284  0.4429  0.2944 -0.5072
17284TIP3    H173343   0.001   0.883   4.221 -0.6989  0.3879  0.2425
17284TIP3    H273344  -0.013   1.008   4.305  1.4212  1.1696 -0.5004
17285TIP3   OH273345   0.004   4.856  12.272 -0.4759 -0.0491 -0.1713
17285TIP3    H173346  -0.084   4.826  12.291 -0.3328 -0.8434 -0.7196
17285TIP3    H273347   0.047   4.781  12.231  0.5352  0.2440  0.3123
17286TIP3   OH273348   5.297   3.006  12.909 -0.6687  0.3533 -0.5145
17286TIP3    H173349   5.317   2.914  12.926 -0.5699  0.6966  1.3971
17286TIP3    H273350   5.380   3.043  12.878 -0.7382 -0.1901 -1.4032
17287TIP3   OH273351   5.861   0.278  11.575  0.1150 -0.0876 -0.2889
17287TIP3    H173352   5.885   0.214  11.509  0.1164  0.2892 -0.6571
17287TIP3    H273353   5.770   0.259  11.596  0.6944 -1.5394  1.1277
17288TIP3   OH273354   6.037   6.775   3.902 -0.1487  0.0435  0.3598
17288TIP3    H173355   6.041   6.833   3.826 -1.0692 -0.5280 -0.1354
17288TIP3    H273356   5.995   6.828   3.970 -0.9371 -0.0074 -0.0730
17289TIP3   OH273357   6.139   3.575  15.549  0.7454  0.1644 -0.2671
17289TIP3    H173358   6.048   3.563  15.577  1.0894 -1.5672  0.2129
17289TIP3    H273359   6.140   3.663  15.511 -0.5512  1.2410  1.9764
17290TIP3   OH273360   4.086   5.828   5.847  0.5799  0.4211  0.1286
17290TIP3    H173361   3.993   5.851   5.858  0.4634 -0.8387  2.1951
17290TIP3    H273362   4.133   5.910   5.867 -0.0233  0.4610  1.4963
17291TIP3   OH273363   5.230   5.170  10.727 -0.6983 -0.4136 -0.0115
17291TIP3    H173364   5.141   5.137  10.716  0.0475 -2.2809 -0.9786
17291TIP3    H273365   5.254   5.144  10.817 -1.3470  0.7513  0.5197
17292TIP3   OH273366   6.714   1.427  10.738  0.0670  0.1270 -0.4873
17292TIP3    H173367   6.736   1.363  10.806 -0.5606 -0.0062 -0.3995
17292TIP3    H273368   6.651   1.382  10.682 -1.1515  0.9770  0.1423
17293TIP3   OH273369   2.614   6.049   0.599  0.0461 -0.0803  0.3258
17293TIP3    H173370   2.533   6.100   0.604 -0.2340 -0.5322  0.4914
17293TIP3    H273371   2.683   6.114   0.598 -0.3451  0.3453 -0.5908
17294TIP3   OH273372   1.084   2.504   3.666 -0.8170 -0.7628  0.6303
17294TIP3    H173373   1.135   2.534   3.742  0.6319 -0.7125 -0.3167
17294TIP3    H273374   1.015   2.570   3.656 -0.5069 -0.3079  1.3943
17295TIP3   OH273375   1.454   6.789   5.476  0.0721  1.1976  0.2406
17295TIP3    H173376   1.517   6.756   5.539 -1.3809 -0.1918  1.0277
17295TIP3    H273377   1.440   6.716   5.415 -1.5373  1.0867  0.7024
17296TIP3   OH273378   4.770   2.103   2.142 -0.5125 -0.2756 -0.2299
17296TIP3    H173379   4.794   2.050   2.066 -2.2860 -1.0820 -0.2619
17296TIP3    H273380   4.748   2.040   2.210 -1.1092  0.4209  0.2424
17297TIP3   OH273381   3.601   2.526   2.298  0.1934 -0.2229 -0.2328
17297TIP3    H173382   3.650   2.472   2.361 -0.5526 -0.0820  0.4721
17297TIP3    H273383   3.520   2.478   2.283 -1.2665  1.5112  1.7289
17298TIP3   OH273384   6.691   4.289   1.880  0.5034 -0.0147 -0.0379
17298TIP3    H173385   6.695   4.309   1.786  1.1639  1.5088  0.2780
17298TIP3    H273386   6.606   4.323   1.908 -0.6023 -2.2669 -0.4119
17299TIP3   OH273387   5.481   5.531   3.258  0.5105 -0.4692 -0.3869
17299TIP3    H173388   5.417   5.529   3.186  0.5618  0.6819 -0.4851
17299TIP3    H273389   5.488   5.624   3.280  2.6114 -0.4968 -0.7962
17300TIP3   OH273390   0.029   4.091  13.309 -0.0858  0.5305 -0.7058
17300TIP3    H173391  -0.027   4.148  13.363 -0.2152 -1.0159  0.8810
17300TIP3    H273392  -0.027   4.068  13.234  0.1115  2.7424 -1.6223
17301TIP3   OH273393   5.469   1.575  13.460 -0.0272  0.0594 -0.2997
17301TIP3    H173394   5.415   1.522  13.518  0.6145 -0.4274 -0.1368
17301TIP3    H273395   5.465   1.529  13.376  2.4653 -1.6654  0.4184
17302TIP3   OH273396   1.198   5.003   5.032  0.1290  0.2462  0.4393
17302TIP3    H173397   1.104   5.019   5.045 -0.1471 -0.4485 -0.5392
17302TIP3    H273398   1.212   4.916   5.069  0.8172  1.1197  2.3283
17303TIP3   OH273399   4.550   4.664   4.140 -0.4293 -0.1803 -0.1502
17303TIP3    H173400   4.609   4.621   4.078 -1.0042  0.8446 -1.4681
17303TIP3    H273401   4.468   4.674   4.091 -0.9351  0.5839  0.8164
17304TIP3   OH273402   6.450   3.266  10.348  0.0139 -0.6034  0.0785
17304TIP3    H173403   6.362   3.234  10.329  0.0635 -0.7750  0.1423
17304TIP3    H273404   6.475   3.314  10.270 -0.5415  0.3190  0.4491
17305TIP3   OH273405   3.503   1.340   5.410 -0.4735 -0.0680  0.0863
17305TIP3    H173406   3.506   1.325   5.316 -2.2112 -0.1426  0.0074
17305TIP3    H273407   3.433   1.283   5.441 -0.7389  0.8329  1.2246
17306TIP3   OH273408   0.626   1.621  15.736  0.5954  0.3618 -0.0982
17306TIP3    H173409   0.664   1.535  15.718 -1.1769 -0.4678 -0.0551
17306TIP3    H273410   0.694   1.683  15.708  2.0532 -1.0262  0.2110
17307TIP3   OH273411   0.008   0.156  11.139  0.0557  0.2807  0.4101
17307TIP3    H173412  -0.020   0.065  11.146  0.1861  0.3141  1.7606
17307TIP3    H273413  -0.044   0.192  11.068  2.1628 -1.5995 -2.3046
17308TIP3   OH273414   1.065   0.525  15.114 -0.1486  0.0191 -0.1229
17308TIP3    H173415   1.132   0.459  15.131  1.7036  1.9809  0.6093
17308TIP3    H273416   0.999   0.510  15.181  0.1219 -1.2186 -0.1163
17309TIP3   OH273417   5.860   4.220  13.141 -0.3670  0.2738  1.1148
17309TIP3    H173418   5.943   4.223  13.190  0.8693 -0.3932 -0.8133
17309TIP3    H273419   5.834   4.311  13.130  1.0967  0.6116  0.2238
17310TIP3   OH273420   3.911   6.626  16.326 -0.5167 -0.2857  0.0969
17310TIP3    H173421   3.913   6.683  16.250  2.5568 -1.1857 -0.6389
17310TIP3    H273422   3.918   6.685  16.401 -1.1644  0.4815 -0.4358
17311TIP3   OH273423   2.598   2.053   2.882  0.3024 -0.0622 -0.2251
17311TIP3    H173424   2.553   2.104   2.950  0.5450 -0.1651  0.0148
17311TIP3    H273425   2.647   1.987   2.930 -0.4559 -0.8853 -0.5629
17312TIP3   OH273426   1.046   4.833  14.550 -0.6606 -0.4756  0.9687
17312TIP3    H173427   1.103   4.880  14.611 -0.6182  0.4904  0.2086
17312TIP3    H273428   1.105   4.771  14.506 -0.3539 -0.0417  0.7570
17313TIP3   OH273429   5.613   4.733  13.270 -0.1089  0.1413 -0.6511
17313TIP3    H173430   5.545   4.750  13.336  1.7520  0.3667  1.2998
17313TIP3    H273431   5.611   4.811  13.214 -0.1176  1.0674  0.6053
17314TIP3   OH273432   6.419   2.345  15.421 -0.4026 -0.1065 -0.2005
17314TIP3    H173433   6.374   2.280  15.476 -0.5921  1.1232  1.1726
17314TIP3    H273434   6.489   2.379  15.477 -0.8191  1.4428 -0.5683
17315TIP3   OH273435   1.237   0.603   2.061  0.2555  0.5986  0.0808
17315TIP3    H173436   1.191   0.535   2.110  0.5567 -0.1014 -0.5846
17315TIP3    H273437   1.302   0.556   2.009 -0.3098  1.2503 -1.2840
17316TIP3   OH273438   1.597   5.270   0.342  0.1990  0.6316  0.3347
17316TIP3    H173439   1.534   5.342   0.339  0.8190  1.3052  1.9890
17316TIP3    H273440   1.663   5.299   0.405  0.8211 -1.1181  0.5484
17317TIP3   OH273441   2.938   4.558  16.848  0.1899  0.5856 -0.1202
17317TIP3    H173442   2.990   4.543  16.927 -0.0661  0.1173 -0.0329
17317TIP3    H273443   2.907   4.470  16.823  0.4338  0.7002 -0.8529
17318TIP3   OH273444   1.090   0.535  13.850  0.0560 -0.3349  0.2548
17318TIP3    H173445   1.033   0.555  13.776  1.5282  0.6167 -0.6698
17318TIP3    H273446   1.127   0.449  13.829 -1.4701 -1.2553  1.1689
17319TIP3   OH273447   5.412   6.558   3.310  0.8791 -0.0592 -0.4625
17319TIP3    H173448   5.356   6.520   3.377  1.1750  1.8337  0.9284
17319TIP3    H273449   5.491   6.503   3.311  1.8117  1.1479  2.3519
17320TIP3   OH273450   0.099   1.590  14.662 -0.1377 -0.2460  0.1707
17320TIP3    H173451   0.123   1.640  14.739 -1.9995 -0.7008  1.0952
17320TIP3    H273452   0.104   1.498  14.689  2.1465 -0.6106 -1.1792
17321TIP3   OH273453   4.685   5.128  12.439  0.3806 -0.6230  0.2728
17321TIP3    H173454   4.770   5.169  12.451  0.0985  0.3472 -0.8419
17321TIP3    H273455   4.625   5.200  12.419 -0.2943 -1.4719 -0.9600
17322TIP3   OH273456   4.181   5.482   4.970 -0.1191  0.1777 -0.3477
17322TIP3    H173457   4.088   5.499   4.957 -0.2359  0.2123  0.4733
17322TIP3    H273458   4.203   5.414   4.907 -0.6390  0.3493 -0.7159
17323TIP3   OH273459   5.104   3.772  15.217 -0.2498  0.3253  0.1585
17323TIP3    H173460   5.032   3.744  15.274  0.2993 -1.5796  0.0112
17323TIP3    H273461   5.124   3.861  15.244 -1.9930  0.5310  0.8751
17324TIP3   OH273462   4.789   6.321  12.163  0.2752  0.0947 -0.7172
17324TIP3    H173463   4.758   6.314  12.073 -0.2337 -1.1608 -0.4749
17324TIP3    H273464   4.754   6.243  12.206 -2.2843  2.2384  1.4193
17325TIP3   OH273465   6.491   2.094  15.645 -0.1511  0.0965 -0.3277
17325TIP3    H173466   6.481   2.081  15.739 -0.2923 -0.2383 -0.3834
17325TIP3    H273467   6.406   2.069  15.609  0.3465 -1.2279 -0.6739
17326TIP3   OH273468   4.554   2.546   4.364 -0.9963 -0.8707  0.0207
17326TIP3    H173469   4.565   2.585   4.278 -1.5397 -0.9685 -0.0980
17326TIP3    H273470   4.473   2.584   4.397 -2.0298 -2.5671 -0.4700
17327TIP3   OH273471   3.967   6.112  12.410 -0.5843 -0.3859  0.0865
17327TIP3    H173472   3.896   6.172  12.431 -1.4341 -1.1969 -0.3490
17327TIP3    H273473   3.947   6.033  12.460 -0.9228 -1.2059 -1.2660
17328TIP3   OH273474   4.634   4.895   2.972  0.4330 -0.1151  0.4445
17328TIP3    H173475   4.568   4.889   3.040 -0.9791  0.3349 -0.8446
17328TIP3    H273476   4.621   4.817   2.918  0.8299  0.0708  0.0669
17329TIP3   OH273477   6.591   6.728  16.207 -0.8126 -0.4528 -0.4887
17329TIP3    H173478   6.532   6.657  16.181 -0.6558 -0.5698 -0.5235
17329TIP3    H273479   6.535   6.806  16.208 -0.6224 -0.2626 -2.1152
17330TIP3   OH273480   4.800   6.821  12.890 -0.3690  0.1705 -0.2502
17330TIP3    H173481   4.788   6.909  12.856 -1.5860 -0.3854 -1.3779
17330TIP3    H273482   4.714   6.797  12.925 -0.5358 -1.1224 -1.4278
17331TIP3   OH273483   3.041   5.671  13.295 -0.4024 -0.8673  0.3468
17331TIP3    H173484   2.957   5.660  13.251 -0.3998  2.8516 -0.9287
17331TIP3    H273485   3.106   5.665  13.225  0.0900 -0.2890  0.7447
17332TIP3   OH273486   1.931   6.763  11.167 -0.0597  0.4709 -0.1926
17332TIP3    H173487   1.988   6.797  11.236  1.1004 -0.7215 -0.5029
17332TIP3    H273488   1.947   6.821  11.093  2.6263 -1.1309 -1.0209
17333TIP3   OH273489   1.027   5.743  11.227 -0.2071 -0.5653  0.3407
17333TIP3    H173490   1.115   5.764  11.258 -0.7173  2.9973 -0.1939
17333TIP3    H273491   0.968   5.781  11.293 -1.4241 -3.1880  0.8749
17334TIP3   OH273492   4.963   0.667   5.462  0.2121 -0.5035 -0.8257
17334TIP3    H173493   4.902   0.598   5.488 -1.5193  0.9422 -0.9111
17334TIP3    H273494   5.013   0.628   5.390  0.6456 -2.3201  0.3966
17335TIP3   OH273495   2.067   1.198   3.569  0.2936  0.0583  0.9617
17335TIP3    H173496   2.067   1.253   3.647  3.3905 -0.1807  1.2416
17335TIP3    H273497   2.061   1.109   3.602 -0.4509  0.0317  0.7717
17336TIP3   OH273498   5.337   3.481  16.648 -0.0627  0.4950  0.3663
17336TIP3    H173499   5.289   3.447  16.724  0.2688  1.3519  0.9773
17336TIP3    H273500   5.420   3.434  16.650 -0.1633  0.3152  0.3704
17337TIP3   OH273501   2.109   4.221   1.126  0.3158  0.0637  0.6281
17337TIP3    H173502   2.059   4.243   1.048  2.3898 -0.0293 -0.8226
17337TIP3    H273503   2.085   4.130   1.146 -0.5287  0.2220  0.3426
17338TIP3   OH273504   4.574   3.932   1.983 -0.4612 -0.2513 -0.8812
17338TIP3    H173505   4.571   3.886   2.067  1.1316 -0.1075 -0.7178
17338TIP3    H273506   4.490   3.978   1.978 -0.8355 -0.7587  0.3354
17339TIP3   OH273507   1.448   1.135   3.056 -0.2668  0.2518 -0.4766
17339TIP3    H173508   1.374   1.081   3.081 -0.5351  0.9320  0.2502
17339TIP3    H273509   1.522   1.074   3.051 -0.5206 -0.1648  0.5178
17340TIP3   OH273510   5.714   2.170   3.740  0.8456  0.6221 -0.6785
17340TIP3    H173511   5.752   2.096   3.694  0.4607  1.2823 -2.1422
17340TIP3    H273512   5.787   2.209   3.788  0.7331 -1.6172  1.5042
17341TIP3   OH273513   0.617   1.975  12.842 -0.2918 -0.1042  0.2733
17341TIP3    H173514   0.582   1.982  12.931 -1.1041  0.9984 -0.1115
17341TIP3    H273515   0.611   2.064  12.807  1.0173 -0.3051 -0.5219
17342TIP3   OH273516   5.916   5.281  14.566 -0.1805  0.1660 -0.4059
17342TIP3    H173517   5.973   5.322  14.501 -2.0715  0.1163 -2.2118
17342TIP3    H273518   5.957   5.197  14.584  1.2272  0.8423 -0.2675
17343TIP3   OH273519   6.067   0.590  16.790 -0.5970  0.4173 -0.0536
17343TIP3    H173520   6.160   0.590  16.814 -0.5753  0.6916 -0.1258
17343TIP3    H273521   6.050   0.502  16.757 -0.0885  0.6967 -1.0871
17344TIP3   OH273522   1.533   6.513  16.446 -0.4720  0.1884 -0.0733
17344TIP3    H173523   1.590   6.471  16.382 -1.5944 -0.2152 -0.8394
17344TIP3    H273524   1.586   6.520  16.525  0.4243 -0.7504 -0.5729
17345TIP3   OH273525   6.108   4.360  15.815 -0.5219 -0.2742  0.0210
17345TIP3    H173526   6.103   4.273  15.855  1.0315 -0.5515 -0.3186
17345TIP3    H273527   6.092   4.345  15.722  2.9901 -0.7882 -0.6356
17346TIP3   OH273528   2.380   2.602  10.903  0.3808  0.0266  0.4965
17346TIP3    H173529   2.304   2.642  10.945 -0.4530 -1.4729  0.4912
17346TIP3    H273530   2.346   2.565  10.821  0.3106 -3.3723  1.8746
17347TIP3   OH273531   5.607   1.124   4.132  0.0086  0.2298  0.1295
17347TIP3    H173532   5.616   1.040   4.087  1.1293 -0.9431  2.3619
17347TIP3    H273533   5.678   1.124   4.196  0.7526  3.4217 -0.5254
17348TIP3   OH273534   4.716   1.284  13.502  0.2333  0.2674 -0.2918
17348TIP3    H173535   4.742   1.318  13.417 -0.3189 -1.4959 -1.2019
17348TIP3    H273536   4.646   1.221  13.483  1.6963 -1.9518  1.2054
17349TIP3   OH273537   1.615   5.044  13.479  0.6057 -0.2395 -0.6436
17349TIP3    H173538   1.585   4.956  13.458 -1.3487  0.2715 -0.1928
17349TIP3    H273539   1.662   5.073  13.401 -1.2789 -0.6096 -1.9913
17350TIP3   OH273540   4.638   0.801   6.187  0.5274 -0.2425 -0.1511
17350TIP3    H173541   4.667   0.731   6.244  1.6791 -0.1879 -0.6379
17350TIP3    H273542   4.635   0.879   6.243  2.0251 -0.1073 -0.2237
17351TIP3   OH273543   4.979   5.153  12.961 -0.0550  0.2059  0.0797
17351TIP3    H173544   4.983   5.088  13.031 -4.0747  0.0268  0.3965
17351TIP3    H273545   4.995   5.236  13.005  0.3395 -0.1489  0.6236
17352TIP3   OH273546   1.763   3.162  13.941 -0.4426  0.2023  0.0159
17352TIP3    H173547   1.834   3.135  13.998 -0.8440  0.0962  0.4695
17352TIP3    H273548   1.703   3.088  13.941 -0.8129  0.4990  0.0588
17353TIP3   OH273549   1.007   5.151   5.553  0.8825  0.4486  0.2859
17353TIP3    H173550   0.983   5.147   5.646  3.5471  2.4588  1.1854
17353TIP3    H273551   1.046   5.065   5.535 -1.2808 -0.6291  0.4353
17354TIP3   OH273552   1.502   0.849   2.432  0.0831  0.2772 -0.1754
17354TIP3    H173553   1.426   0.804   2.469  0.1483  1.3243  1.3075
17354TIP3    H273554   1.576   0.794   2.455  0.2141  1.2429  2.0070
17355TIP3   OH273555   6.659   5.056   2.197 -0.3005 -0.1565  0.1537
17355TIP3    H173556   6.728   5.021   2.141 -0.5129 -0.9688  0.3869
17355TIP3    H273557   6.602   4.982   2.213 -0.4312  0.1554  1.1650
17356TIP3   OH273558   3.627   6.007  14.845  0.2351 -0.2485  0.2057
17356TIP3    H173559   3.588   6.085  14.805 -1.6032 -0.9670  0.4996
17356TIP3    H273560   3.625   6.025  14.939  1.3705  0.0211  0.1904
17357TIP3   OH273561   0.269   6.216  14.177 -0.1518  0.5125  0.5064
17357TIP3    H173562   0.307   6.303  14.193 -0.1413  0.6644 -0.3277
17357TIP3    H273563   0.202   6.207  14.245 -0.2159  1.2115  0.5432
17358TIP3   OH273564   3.491   5.136   6.162  1.0293  0.0227 -0.6982
17358TIP3    H173565   3.457   5.047   6.159  1.5897 -0.2202 -0.1319
17358TIP3    H273566   3.466   5.175   6.079  0.0331 -0.3914 -0.6043
17359TIP3   OH273567   1.511   6.009  11.514  0.3186  0.5226 -0.2397
17359TIP3    H173568   1.423   6.034  11.488 -0.0311 -0.3719  0.0457
17359TIP3    H273569   1.499   5.930  11.566  1.3347  0.0623 -0.6757
17360TIP3   OH273570   4.982   5.332   0.429 -0.5480  0.9337  0.2667
17360TIP3    H173571   5.054   5.355   0.488 -0.8002  1.9414  0.1905
17360TIP3    H273572   5.002   5.378   0.347 -1.2595  1.1868  0.2322
17361TIP3   OH273573   3.736   4.424  12.519 -0.5916 -0.5153 -0.1146
17361TIP3    H173574   3.738   4.461  12.608  2.2899  1.6830 -0.9488
17361TIP3    H273575   3.661   4.466  12.477  1.3320  2.9897 -0.3543
17362TIP3   OH273576   0.562   4.641   0.915  0.4402  0.2385 -0.2939
17362TIP3    H173577   0.521   4.570   0.866  0.4521 -1.4341  1.9561
17362TIP3    H273578   0.489   4.700   0.937  0.0870 -0.1046 -0.5256
17363TIP3   OH273579   4.336   3.639   3.208  0.5965  0.7977 -0.2373
17363TIP3    H173580   4.313   3.630   3.116  1.6874  3.1215 -0.8004
17363TIP3    H273581   4.274   3.702   3.243 -0.8585 -1.2565  1.1151
17364TIP3   OH273582   5.824   3.177  14.867  0.1674 -0.2506  0.3873
17364TIP3    H173583   5.900   3.234  14.880  0.9642 -1.4153  1.0468
17364TIP3    H273584   5.858   3.088  14.878 -1.1889 -0.8291  0.1576
17365TIP3   OH273585   0.539   6.767  13.161 -0.2176 -0.1988 -0.1970
17365TIP3    H173586   0.462   6.772  13.216 -1.0697 -1.8637 -1.1462
17365TIP3    H273587   0.506   6.786  13.073  0.5507 -0.3911 -0.5319
17366TIP3   OH273588   0.916   1.748   0.773 -0.1279  0.1821 -0.2605
17366TIP3    H173589   0.909   1.665   0.819  4.2970  0.0131  0.5520
17366TIP3    H273590   0.842   1.799   0.805 -1.3722 -2.4561  1.4051
17367TIP3   OH273591   3.355   2.903   3.915  0.9649  0.1395 -0.4007
17367TIP3    H173592   3.297   2.886   3.841  0.8732  1.1744 -0.5851
17367TIP3    H273593   3.430   2.845   3.902  0.2395 -0.7932 -0.4702
17368TIP3   OH273594   5.282   6.210  11.250 -0.3827  0.2802  1.1665
17368TIP3    H173595   5.212   6.196  11.313 -0.4773  0.6286  1.1430
17368TIP3    H273596   5.246   6.179  11.167  0.3786 -1.8577  1.5871
17369TIP3   OH273597   4.359   1.564   1.043 -0.1475  0.1906  0.0421
17369TIP3    H173598   4.413   1.570   0.964  1.4467 -1.3833  0.9581
17369TIP3    H273599   4.334   1.654   1.062 -1.1127  0.5705 -2.5751
17370TIP3   OH273600   3.517   2.835   4.147 -0.0891  1.0082 -0.5088
17370TIP3    H173601   3.454   2.777   4.104 -0.1512  0.4865  0.2541
17370TIP3    H273602   3.572   2.869   4.076  0.5702 -0.7499 -0.8946
17371TIP3   OH273603   0.577   3.796   4.900  0.2340  0.0089 -0.0165
17371TIP3    H173604   0.506   3.780   4.962  0.0407  0.5183 -0.1026
17371TIP3    H273605   0.641   3.846   4.950  0.3466 -0.0968 -0.0559
17372TIP3   OH273606   0.709   6.607  14.511 -0.1819 -0.6371  0.7960
17372TIP3    H173607   0.685   6.620  14.419  0.1555  0.6938  0.8781
17372TIP3    H273608   0.742   6.518  14.515  2.6866  0.2193 -1.0181
17373TIP3   OH273609   3.415   2.166  14.787  0.7275  0.5603 -0.2513
17373TIP3    H173610   3.331   2.133  14.819 -0.4882  4.4236  1.1222
17373TIP3    H273611   3.431   2.117  14.707 -2.2989 -1.0538 -0.0072
17374TIP3   OH273612   3.781   0.263  15.329  0.2048  0.3173 -0.0181
17374TIP3    H173613   3.875   0.247  15.320  0.1505 -0.0178  0.0024
17374TIP3    H273614   3.767   0.279  15.422 -0.1668 -2.3739  0.4597
17375TIP3   OH273615   1.583   0.383   2.844  0.3496  0.0935 -0.1912
17375TIP3    H173616   1.670   0.356   2.816  0.2193 -0.0027 -0.5183
17375TIP3    H273617   1.524   0.344   2.779  0.1465  1.0452 -0.5978
17376TIP3   OH273618   2.528   6.608   3.371 -0.2721  0.0472  0.2100
17376TIP3    H173619   2.590   6.661   3.421 -2.9014  1.7723  1.8870
17376TIP3    H273620   2.491   6.547   3.435 -0.3898 -0.9089 -0.7363
17377TIP3   OH273621   5.597   6.886   2.347 -0.3002 -0.2438  0.2779
17377TIP3    H173622   5.658   6.814   2.359 -0.8414 -0.6680  0.5227
17377TIP3    H273623   5.639   6.942   2.281  1.1374  0.3704  1.6443
17378TIP3   OH273624   6.409   2.901  15.743  0.3030 -0.1237  0.2305
17378TIP3    H173625   6.416   2.832  15.677 -2.1810 -0.2829  0.0484
17378TIP3    H273626   6.483   2.885  15.802  0.6857 -1.9697 -0.6667
17379TIP3   OH273627   1.220   2.078  11.163  0.3362  0.0539 -0.0762
17379TIP3    H173628   1.187   2.136  11.093 -1.1783 -0.6770  0.0034
17379TIP3    H273629   1.294   2.032  11.122 -1.0862 -1.0318 -1.5361
17380TIP3   OH273630   6.805   0.365  15.139 -0.4938  0.0773 -0.2161
17380TIP3    H173631   6.827   0.458  15.136  1.1494 -0.1874  1.3523
17380TIP3    H273632   6.846   0.328  15.061  2.8811  0.0159  1.3937
17381TIP3   OH273633   4.325   4.866   1.592 -0.1677 -0.3295 -0.4053
17381TIP3    H173634   4.372   4.787   1.565 -0.6647 -0.2673 -1.4725
17381TIP3    H273635   4.233   4.843   1.586 -0.3143  0.2747 -0.5400
17382TIP3   OH273636   1.928   1.374   0.895  0.5021 -0.0453 -0.0536
17382TIP3    H173637   1.932   1.418   0.980 -1.9949  1.3122 -0.5428
17382TIP3    H273638   2.012   1.394   0.853  0.9906  0.9050  1.3099
17383TIP3   OH273639   1.864   4.240  11.984  0.2205 -0.3985  0.4447
17383TIP3    H173640   1.923   4.308  11.950 -1.1578 -0.0770 -1.4998
17383TIP3    H273641   1.812   4.214  11.908 -2.5771 -0.2206  2.1721
17384TIP3   OH273642   5.109   6.695  15.088 -0.4951  0.1042 -0.1141
17384TIP3    H173643   5.123   6.725  15.178  1.1063 -0.4884 -0.1376
17384TIP3    H273644   5.072   6.608  15.097 -0.5203  0.1237 -0.0263
17385TIP3   OH273645   6.794   1.434  11.870 -0.2230  0.0614 -0.1928
17385TIP3    H173646   6.871   1.456  11.922 -0.3992  1.0190 -0.3070
17385TIP3    H273647   6.752   1.363  11.917  0.4542 -0.1243  0.1410
17386TIP3   OH273648   1.752   0.870   5.706  0.0101  0.2325  0.3278
17386TIP3    H173649   1.846   0.855   5.713 -0.0835 -0.0143  1.1659
17386TIP3    H273650   1.712   0.800   5.758 -0.6303  0.4254  0.1101
17387TIP3   OH273651   6.274   6.698   0.386  0.4191  0.3300 -0.8917
17387TIP3    H173652   6.305   6.621   0.337  0.0107 -0.2046 -0.3277
17387TIP3    H273653   6.189   6.671   0.420  0.5612  0.8121 -0.1503
17388TIP3   OH273654   2.284   4.457  13.552  0.7049  0.5346 -0.2900
17388TIP3    H173655   2.259   4.545  13.582 -0.5822  0.7683 -1.8541
17388TIP3    H273656   2.355   4.472  13.490  0.2057  0.5497 -0.8774
17389TIP3   OH273657   2.652   4.557  14.601 -0.9251  0.4218  0.3862
17389TIP3    H173658   2.607   4.527  14.523 -0.6656  0.6695  0.1404
17389TIP3    H273659   2.621   4.647  14.614 -1.0146  0.3618  0.6062
17390TIP3   OH273660   1.702   2.812  14.590  0.3952  0.0709  0.7135
17390TIP3    H173661   1.656   2.881  14.638  0.0011  0.5648 -0.3479
17390TIP3    H273662   1.795   2.829  14.607  0.3035  0.8586  0.4893
17391TIP3   OH273663   3.151   5.778   4.188 -0.0414  0.1143 -0.1757
17391TIP3    H173664   3.080   5.810   4.244  1.3821  0.1865  1.6860
17391TIP3    H273665   3.157   5.843   4.117 -1.3321  0.4847  0.0209
17392TIP3   OH273666   1.875   6.013   3.663 -0.1827 -0.2228  0.3313
17392TIP3    H173667   1.877   6.088   3.603 -2.1091 -0.6375 -0.3439
17392TIP3    H273668   1.888   5.937   3.606  1.1379 -0.4499  0.9213
17393TIP3   OH273669   6.610   3.581   0.263  0.2841 -0.4151  0.3096
17393TIP3    H173670   6.615   3.563   0.357 -0.9351 -0.1829  0.4378
17393TIP3    H273671   6.574   3.670   0.257 -1.3745 -1.0831 -0.3586
17394TIP3   OH273672   5.251   6.003   3.018  0.4105 -0.2770 -0.3605
17394TIP3    H173673   5.174   6.033   2.971 -0.1396  0.2973  0.8476
17394TIP3    H273674   5.292   5.938   2.960  1.2751  2.2432 -2.8220
17395TIP3   OH273675   6.143   1.538  15.504  0.1558 -0.0855  0.0763
17395TIP3    H173676   6.154   1.532  15.409 -1.0068  1.3839 -0.1821
17395TIP3    H273677   6.219   1.589  15.533  0.0823  0.1783 -0.1837
17396TIP3   OH273678   0.430   2.627   3.033  0.0787  0.0039  0.2936
17396TIP3    H173679   0.352   2.572   3.034 -0.1968  0.3864  1.1102
17396TIP3    H273680   0.420   2.681   2.954  1.4945 -2.6378 -1.8568
17397TIP3   OH273681   6.015   3.872   2.071  0.1573  0.2291  0.4031
17397TIP3    H173682   6.107   3.896   2.085  0.5239 -0.3446 -0.8535
17397TIP3    H273683   6.019   3.786   2.029 -0.7645  1.7150 -3.0915
17398TIP3   OH273684   2.600   1.742   0.593 -0.0989 -0.1912 -0.4809
17398TIP3    H173685   2.685   1.786   0.589 -0.2037  0.0867  0.1818
17398TIP3    H273686   2.591   1.717   0.685 -0.4878 -0.7165 -0.6581
17399TIP3   OH273687   1.051   0.013  15.224  0.0853  0.0275 -0.2235
17399TIP3    H173688   1.041   0.057  15.140 -0.7558 -0.2711 -0.2867
17399TIP3    H273689   0.962   0.001  15.256  0.3815 -0.1464  0.5641
17400TIP3   OH273690   3.405   0.767   4.887 -0.1931  0.0963 -0.0923
17400TIP3    H173691   3.439   0.765   4.797  0.0063 -0.8476 -0.0025
17400TIP3    H273692   3.480   0.796   4.940  0.4157 -1.6030  0.0537
17401TIP3   OH273693   0.409   0.652   3.174 -0.6462 -0.3280 -0.2718
17401TIP3    H173694   0.329   0.599   3.171 -1.1908  0.2713  1.8569
17401TIP3    H273695   0.452   0.627   3.256 -0.0343  1.2430 -0.0800
17402TIP3   OH273696   1.438   5.621   2.807 -0.1265  1.1522 -0.4861
17402TIP3    H173697   1.373   5.647   2.872 -1.0155 -0.7477 -0.5527
17402TIP3    H273698   1.389   5.611   2.726  0.7728  2.3612 -1.2151
17403TIP3   OH273699   3.708   5.527  10.175  0.7766  0.1133 -0.7422
17403TIP3    H173700   3.686   5.500  10.086 -1.0319  3.1457 -1.3564
17403TIP3    H273701   3.762   5.605  10.165  2.1202 -0.5447  0.8703
17404TIP3   OH273702   6.235   3.835  15.464  0.3527  0.7130  0.3892
17404TIP3    H173703   6.247   3.888  15.543 -0.6849  2.1483 -0.3758
17404TIP3    H273704   6.310   3.857  15.409  0.7922  0.1162  0.7355
17405TIP3   OH273705   4.207   2.611  12.013  0.1237 -0.6174 -0.3359
17405TIP3    H173706   4.184   2.704  12.006 -0.6128 -0.7752 -0.0463
17405TIP3    H273707   4.302   2.612  12.026  0.0916  0.1106 -0.0816
17406TIP3   OH273708   0.153   5.836   4.855  0.5794  0.2398  0.0018
17406TIP3    H173709   0.072   5.872   4.893  0.6614 -0.5513  0.9780
17406TIP3    H273710   0.216   5.907   4.863  0.1568  0.6411 -0.1583
17407TIP3   OH273711   0.398   2.243   3.395  0.2233  0.4006  0.0887
17407TIP3    H173712   0.441   2.328   3.407 -0.5964  1.0231 -1.1489
17407TIP3    H273713   0.406   2.200   3.480 -0.5762  2.3039  1.1997
17408TIP3   OH273714   5.588   5.011  16.098 -0.4608  0.5331 -0.1144
17408TIP3    H173715   5.578   4.926  16.140 -1.1815  0.9663  0.6146
17408TIP3    H273716   5.499   5.036  16.073 -0.2873  1.1840 -0.0933
17409TIP3   OH273717   1.823   4.114  15.622  0.0763  0.4325 -0.5971
17409TIP3    H173718   1.845   4.163  15.542  0.9603  0.8717 -0.0969
17409TIP3    H273719   1.789   4.031  15.591 -2.5018  1.7139 -1.5355
17410TIP3   OH273720   0.037   5.122  16.650 -0.0185 -0.6285  0.3386
17410TIP3    H173721   0.066   5.041  16.692  2.3203 -0.8739 -1.5611
17410TIP3    H273722   0.116   5.176  16.644 -1.5285  1.9140  1.6510
17411TIP3   OH273723   0.403   0.853   4.619  0.2469 -0.0495 -0.1316
17411TIP3    H173724   0.416   0.775   4.565 -0.2618 -0.6817  0.6363
17411TIP3    H273725   0.314   0.882   4.599 -0.1201 -0.5657  0.6947
17412TIP3   OH273726   2.306   1.502  16.195 -0.1012  0.4283 -0.5469
17412TIP3    H173727   2.239   1.458  16.142 -0.8264 -1.4011  1.7069
17412TIP3    H273728   2.256   1.554  16.258  0.6534  0.6934 -0.1599
17413TIP3   OH273729   3.172   2.364  13.126 -0.0834  0.5575  0.2259
17413TIP3    H173730   3.180   2.297  13.194 -2.0127  0.1198  0.0810
17413TIP3    H273731   3.256   2.360  13.079  0.1300 -1.2576  0.6718
17414TIP3   OH273732   4.114   0.258   1.127  0.0930  0.4569  0.8506
17414TIP3    H173733   4.026   0.259   1.165  0.7275  0.8702  2.3720
17414TIP3    H273734   4.125   0.345   1.089  0.3194  0.8908  1.8638
17415TIP3   OH273735   4.617   1.867   2.894 -0.0320  0.5447  0.3673
17415TIP3    H173736   4.607   1.836   2.984 -1.2786 -0.0574  0.0443
17415TIP3    H273737   4.615   1.787   2.841  0.4524  0.9120 -0.2184
17416TIP3   OH273738   4.146   3.730   3.615  0.6188  0.3185  0.2271
17416TIP3    H173739   4.237   3.712   3.591  0.3980  0.0264 -0.4260
17416TIP3    H273740   4.115   3.792   3.549 -0.0073 -0.5049 -0.2739
17417TIP3   OH273741   6.841   4.494   5.421 -0.2017  0.4364 -0.1753
17417TIP3    H173742   6.752   4.466   5.399 -0.8651  2.8381 -0.7949
17417TIP3    H273743   6.885   4.500   5.337  0.6732 -0.9414  0.1431
17418TIP3   OH273744   3.196   2.049  15.019  0.0632 -0.3266 -0.2614
17418TIP3    H173745   3.233   1.979  14.966  0.3151 -0.7227  0.4157
17418TIP3    H273746   3.182   2.009  15.105 -1.3506 -0.0080 -0.3163
17419TIP3   OH273747   5.842   1.361   3.834  0.6327  0.2500 -0.0303
17419TIP3    H173748   5.778   1.298   3.804  1.6773 -0.0104 -1.9079
17419TIP3    H273749   5.884   1.320   3.909 -1.6520  0.6406  1.5522
17420TIP3   OH273750   5.510   1.935  12.715  0.1618 -0.4481 -0.3677
17420TIP3    H173751   5.444   1.988  12.671  1.1863  1.5703  0.4268
17420TIP3    H273752   5.460   1.876  12.771 -0.9850  0.9672  0.1505
17421TIP3   OH273753   5.895   0.319   2.654 -0.5155  0.3790  0.3426
17421TIP3    H173754   5.956   0.303   2.583 -2.4379 -2.0040 -0.9376
17421TIP3    H273755   5.907   0.244   2.713 -0.3522  1.2950  1.5103
17422TIP3   OH273756   0.073   3.696  11.464  0.1183  0.8520 -0.5293
17422TIP3    H173757  -0.010   3.742  11.454 -0.7404 -0.7268 -0.9697
17422TIP3    H273758   0.099   3.673  11.375  1.3600  1.8370 -0.4552
17423TIP3   OH273759   1.776   4.942   9.994  0.5413  0.1467 -0.4678
17423TIP3    H173760   1.705   4.879   9.982 -0.1105  0.9234 -0.7879
17423TIP3    H273761   1.812   4.953   9.906  2.0457 -1.3287 -0.1010
17424TIP3   OH273762   3.711   6.666   3.753  0.3118  0.4020 -0.1455
17424TIP3    H173763   3.783   6.701   3.700 -0.0841  2.4014  0.5252
17424TIP3    H273764   3.651   6.740   3.762 -0.1336 -0.1872  2.2081
17425TIP3   OH273765   0.695   6.226   5.606 -0.0604  0.6172 -0.1113
17425TIP3    H173766   0.723   6.168   5.535 -1.4407 -0.6464  0.3269
17425TIP3    H273767   0.775   6.272   5.632  0.7036  0.2895 -1.7088
17426TIP3   OH273768   6.287   4.707   4.723 -0.1318  0.2304  0.0909
17426TIP3    H173769   6.309   4.759   4.646 -1.8945  0.5367 -0.2415
17426TIP3    H273770   6.193   4.690   4.714  0.1120 -1.8320  0.9037
17427TIP3   OH273771   1.894   3.863   1.814 -0.2281 -0.3867  0.2032
17427TIP3    H173772   1.866   3.853   1.905  0.8867 -2.0085  0.4168
17427TIP3    H273773   1.820   3.832   1.762 -0.7292  0.1951  0.5578
17428TIP3   OH273774   1.005   0.133  11.844 -0.0355  0.2441  0.2780
17428TIP3    H173775   1.022   0.129  11.750 -1.2340 -0.6934  0.0744
17428TIP3    H273776   1.052   0.211  11.874  1.5188 -0.2065 -0.8373
17429TIP3   OH273777   6.019   4.786  12.272  0.2654 -0.4744  0.0893
17429TIP3    H173778   5.936   4.832  12.288  0.4822 -0.3818  1.0328
17429TIP3    H273779   6.028   4.784  12.177 -0.3797  0.3078  0.0040
17430TIP3   OH273780   0.549   3.879   2.749  0.2492 -0.2129 -0.5373
17430TIP3    H173781   0.467   3.850   2.789  0.7924  0.3135  1.0174
17430TIP3    H273782   0.566   3.965   2.788  0.7390  0.4193 -2.0511
17431TIP3   OH273783   6.894   0.097   3.009  0.2866  0.1593 -0.2794
17431TIP3    H173784   6.957   0.093   2.937 -1.1126 -1.6548 -1.4984
17431TIP3    H273785   6.930   0.037   3.075  1.1416  1.1758  0.2077
17432TIP3   OH273786   6.257   4.358  10.008 -0.1209 -0.0874  0.1698
17432TIP3    H173787   6.173   4.332  10.047 -0.3503  1.6098  0.9022
17432TIP3    H273788   6.311   4.383  10.083  1.6242 -2.5299 -0.1469
17433TIP3   OH273789   1.027   0.652  14.112  0.2899  0.1169 -0.4095
17433TIP3    H173790   1.070   0.621  14.032 -0.1046 -2.5323  0.3166
17433TIP3    H273791   1.083   0.620  14.183 -0.7387  0.1761  0.4468
17434TIP3   OH273792   0.878   5.079   3.573 -0.0419 -0.0967 -0.3534
17434TIP3    H173793   0.872   5.162   3.618  3.2297  0.1339 -0.0642
17434TIP3    H273794   0.907   5.017   3.640  2.3138 -0.3180 -1.4709
17435TIP3   OH273795   2.536   2.111  15.247 -0.0161 -0.2666 -0.1697
17435TIP3    H173796   2.457   2.164  15.238 -0.0225 -0.1344  0.5959
17435TIP3    H273797   2.602   2.156  15.194 -0.3898 -0.2643 -0.6426
17436TIP3   OH273798   3.050   3.321   5.487 -0.0396  0.1164  0.5043
17436TIP3    H173799   2.987   3.258   5.520  1.2637 -1.3951  0.2183
17436TIP3    H273800   3.031   3.328   5.393  0.1793 -0.3002  0.4279
17437TIP3   OH273801   4.647   1.808   3.921  0.1724  0.0153 -0.3914
17437TIP3    H173802   4.656   1.730   3.866 -3.3135 -0.3221 -0.7585
17437TIP3    H273803   4.586   1.864   3.872  1.6978  2.5028  0.3994
17438TIP3   OH273804   6.523   0.717  10.296  0.1986  0.0691  0.1796
17438TIP3    H173805   6.436   0.711  10.257  0.0001  0.0149  0.6191
17438TIP3    H273806   6.508   0.705  10.390  0.3836  2.4298  0.5611
17439TIP3   OH273807   0.797   0.010   1.114  0.3645  0.3249 -0.4806
17439TIP3    H173808   0.732   0.080   1.109  0.9943  0.9877  0.4161
17439TIP3    H273809   0.834   0.005   1.026 -0.5819  0.2330 -0.8851
17440TIP3   OH273810   6.009   4.765  11.265 -0.1077 -0.3022 -0.2348
17440TIP3    H173811   5.985   4.694  11.205 -0.2366 -2.7660  2.5232
17440TIP3    H273812   6.093   4.738  11.301 -0.4105  0.6488  1.2655
17441TIP3   OH273813   2.644   6.251  11.284  0.1400  0.3328 -0.6259
17441TIP3    H173814   2.582   6.178  11.280  0.8301 -0.2712 -0.7802
17441TIP3    H273815   2.660   6.274  11.193  1.6024 -0.8373 -0.7197
17442TIP3   OH273816   3.999   0.911   2.895 -0.3478 -0.1747  0.0940
17442TIP3    H173817   3.936   0.875   2.957 -0.5984 -0.4891 -0.3359
17442TIP3    H273818   3.964   0.886   2.809 -0.7744  1.4615 -0.2505
17443TIP3   OH273819   4.868   2.688   2.210  0.6999  0.1274  0.2415
17443TIP3    H173820   4.860   2.597   2.180  0.9389 -0.1617  1.0417
17443TIP3    H273821   4.962   2.699   2.226  0.6972  0.5828 -0.0434
17444TIP3   OH273822   2.649   4.993  11.776 -0.0308 -0.1174 -0.2224
17444TIP3    H173823   2.645   5.088  11.789  2.6835  0.0130  0.0822
17444TIP3    H273824   2.653   4.983  11.681  0.9822  0.1587 -0.2135
17445TIP3   OH273825   0.640   0.433  16.704  0.6190  0.1205 -0.0147
17445TIP3    H173826   0.729   0.464  16.722  2.3442 -4.4426  0.7245
17445TIP3    H273827   0.646   0.392  16.617 -0.7075 -0.3663  0.0967
17446TIP3   OH273828   0.203   5.764   5.441 -0.6463 -0.2744 -0.0694
17446TIP3    H173829   0.244   5.723   5.517 -1.8287 -1.7893 -0.1903
17446TIP3    H273830   0.139   5.825   5.477  0.9652  1.3939  0.1141
17447TIP3   OH273831   5.504   4.671  15.842  0.1866  0.2332  0.0697
17447TIP3    H173832   5.563   4.715  15.904  0.9849  1.5014 -1.5045
17447TIP3    H273833   5.526   4.710  15.757 -0.1721 -2.1185 -1.1932
17448TIP3   OH273834   6.377   6.564  15.252  0.4667  0.0092 -0.1057
17448TIP3    H173835   6.317   6.564  15.327 -1.2459 -0.0576 -1.4095
17448TIP3    H273836   6.402   6.472  15.241 -3.0228 -0.8529 -2.3594
17449TIP3   OH273837   4.762   3.908   0.293  0.1471 -0.0011 -0.2810
17449TIP3    H173838   4.746   4.001   0.277  2.8931  0.4847 -0.6061
17449TIP3    H273839   4.676   3.874   0.319 -0.7652  2.7842  0.7902
17450TIP3   OH273840   4.016   2.675  15.775 -0.1184 -0.3585 -0.2567
17450TIP3    H173841   4.015   2.714  15.862  1.8235 -2.9936  1.0943
17450TIP3    H273842   3.924   2.672  15.748 -0.5602  2.8724  0.4436
17451TIP3   OH273843   0.074   0.719   5.700 -0.1347 -0.1418  0.3021
17451TIP3    H173844   0.148   0.779   5.700  0.4567 -0.8564  0.0219
17451TIP3    H273845   0.084   0.668   5.619 -0.2575 -1.0562  0.8495
17452TIP3   OH273846   6.722   6.082   5.647  0.3888 -0.0048  0.1607
17452TIP3    H173847   6.730   6.173   5.617  0.8596  0.0260  0.3811
17452TIP3    H273848   6.684   6.089   5.735  0.6812 -0.0091  0.2868
17453TIP3   OH273849   5.540   5.997  16.314  0.0730  0.3701 -0.6791
17453TIP3    H173850   5.578   6.052  16.246  0.6227 -1.1412 -1.6375
17453TIP3    H273851   5.547   5.908  16.280 -2.0255 -0.2044  0.2336
17454TIP3   OH273852   5.377   1.485   3.767  0.0270  0.4606 -0.2526
17454TIP3    H173853   5.415   1.573   3.769 -0.5898  0.7296  0.5618
17454TIP3    H273854   5.404   1.446   3.850  1.8396 -0.8295 -1.3801
17455TIP3   OH273855   6.175   6.510  12.177 -0.4472 -0.4603  0.1510
17455TIP3    H173856   6.196   6.510  12.271  2.2329  0.0851 -0.3639
17455TIP3    H273857   6.151   6.601  12.159  0.1196 -0.3138  0.1164
17456TIP3   OH273858   0.110   2.385   5.834  0.0086 -0.0174 -0.3620
17456TIP3    H173859   0.120   2.450   5.903 -1.7199  1.5785 -1.5036
17456TIP3    H273860   0.141   2.430   5.755 -2.0614 -0.1985 -1.3328
17457TIP3   OH273861   1.151   2.827   5.773  0.0183  0.2847 -0.3047
17457TIP3    H173862   1.069   2.868   5.799  0.9498  2.0769 -0.0175
17457TIP3    H273863   1.149   2.741   5.814 -1.0529  0.8846  0.9747
17458TIP3   OH273864   2.856   4.512  13.589  0.5011  0.0809 -0.0637
17458TIP3    H173865   2.945   4.529  13.621 -0.3139  0.2744  2.3720
17458TIP3    H273866   2.848   4.564  13.510  3.1940 -1.5688 -1.5733
17459TIP3   OH273867   4.632   4.807  10.262 -0.3186  0.0100  0.0234
17459TIP3    H173868   4.565   4.876  10.271  0.0553  0.5960 -1.4998
17459TIP3    H273869   4.609   4.763  10.181  0.5241 -0.4947  0.0597
17460TIP3   OH273870   5.051   6.728  16.496 -0.1393 -0.4887 -0.7089
17460TIP3    H173871   5.102   6.794  16.449  0.0355  0.1935  0.4033
17460TIP3    H273872   5.103   6.649  16.489 -0.3703 -0.5565 -2.1000
17461TIP3   OH273873   2.577   6.148  11.637 -0.6272  0.1643  0.0236
17461TIP3    H173874   2.596   6.195  11.718  4.3052 -0.7389 -0.2703
17461TIP3    H273875   2.599   6.057  11.656  0.0018 -0.1881 -2.0541
17462TIP3   OH273876   6.767   3.019   1.989 -0.2854  1.1024  0.4800
17462TIP3    H173877   6.833   3.085   1.970  1.0959 -0.3030  0.2017
17462TIP3    H273878   6.764   2.964   1.911 -2.1530  1.3986  0.2939
17463TIP3   OH273879   3.364   4.242  11.513 -0.9582 -0.1424  0.0555
17463TIP3    H173880   3.329   4.329  11.496  0.2108  0.4576  0.5992
17463TIP3    H273881   3.384   4.241  11.606 -0.1428 -0.6770 -0.1116
17464TIP3   OH273882   0.054   4.523   5.176 -0.6187  0.2834 -0.3066
17464TIP3    H173883   0.047   4.618   5.190  0.2523  0.4195 -0.7672
17464TIP3    H273884   0.090   4.514   5.088 -0.0514 -0.4642 -0.0085
17465TIP3   OH273885   4.439   5.903   4.784  0.3686 -0.4456 -0.5487
17465TIP3    H173886   4.407   5.876   4.697 -0.4094 -0.0364 -0.3999
17465TIP3    H273887   4.365   5.885   4.842  0.2606  0.8927 -0.2548
17466TIP3   OH273888   3.800   5.344  11.575  0.1516  0.3454 -0.0915
17466TIP3    H173889   3.744   5.333  11.498 -1.3332  0.5137  0.9242
17466TIP3    H273890   3.831   5.435  11.569 -0.1517  0.4341 -0.3634
17467TIP3   OH273891   0.308   1.284   1.578  0.1187 -0.4679 -0.0927
17467TIP3    H173892   0.334   1.372   1.603 -0.3719 -0.7619  1.5715
17467TIP3    H273893   0.276   1.293   1.488 -0.3777  1.1475  0.2126
17468TIP3   OH273894   2.645   1.877  13.482  0.9079 -0.6112  0.1477
17468TIP3    H173895   2.733   1.861  13.517  0.4030 -1.6063  0.9977
17468TIP3    H273896   2.603   1.792  13.483  1.3486 -1.1138 -4.5051
17469TIP3   OH273897   5.857   6.525  15.315 -0.3322  0.6115 -0.5069
17469TIP3    H173898   5.911   6.603  15.319 -0.5241  0.7289 -0.1218
17469TIP3    H273899   5.782   6.551  15.260 -0.9617  1.0650  0.5202
17470TIP3   OH273900   6.423   0.358  14.223  0.0204  0.3256  0.2443
17470TIP3    H173901   6.478   0.378  14.299  0.3561 -0.8818  0.3346
17470TIP3    H273902   6.399   0.444  14.187  0.1098  0.9045  1.5260
17471TIP3   OH273903   0.183   2.315  15.124  0.4548  0.2610  0.2626
17471TIP3    H173904   0.221   2.256  15.059  0.2605  0.6685 -0.2283
17471TIP3    H273905   0.258   2.343  15.178  0.8636  1.0344 -0.6777
17472TIP3   OH273906   3.022   0.345  12.520  0.2733 -0.0384 -0.1209
17472TIP3    H173907   3.018   0.291  12.599 -1.2647 -0.7106 -0.6011
17472TIP3    H273908   2.993   0.287  12.450  0.4313  0.8814 -0.9780
17473TIP3   OH273909   3.138   1.630   3.489 -0.3805  0.1035  0.6110
17473TIP3    H173910   3.180   1.561   3.438 -0.8317  0.7571 -0.7205
17473TIP3    H273911   3.205   1.697   3.498 -0.7075  0.5955 -0.4007
17474TIP3   OH273912   1.665   1.117  11.106 -0.5936  0.3080  0.3173
17474TIP3    H173913   1.693   1.197  11.061 -0.9125  0.4753  0.4080
17474TIP3    H273914   1.584   1.143  11.151 -0.2491  0.1569  1.0245
17475TIP3   OH273915   4.503   3.151  11.470 -0.4016  0.0952 -0.4517
17475TIP3    H173916   4.450   3.076  11.445  1.4952 -0.8702 -1.7651
17475TIP3    H273917   4.593   3.118  11.470  0.4276  2.2195 -0.4638
17476TIP3   OH273918   0.765   6.235   4.873  0.1962 -0.0632 -0.0769
17476TIP3    H173919   0.852   6.251   4.910 -0.4132 -1.0501  1.9102
17476TIP3    H273920   0.761   6.140   4.860  0.0497  0.1529 -1.9276
17477TIP3   OH273921   4.612   1.892  14.307  0.4158  0.0439  0.3397
17477TIP3    H173922   4.650   1.873  14.222 -2.1891  0.3822 -0.9994
17477TIP3    H273923   4.550   1.820  14.323  0.1949  0.4645  1.5008
17478TIP3   OH273924   4.569   1.310  12.601 -0.2096 -0.5851  0.1938
17478TIP3    H173925   4.633   1.342  12.537 -1.8060  2.2057 -0.1318
17478TIP3    H273926   4.529   1.234  12.558  0.9677 -0.7088 -0.7385
17479TIP3   OH273927   0.739   4.658  10.579  0.2266  0.1131  0.3555
17479TIP3    H173928   0.709   4.690  10.494  1.1007  0.5278  0.1872
17479TIP3    H273929   0.834   4.647  10.568  0.6010  1.6525  1.7100
17480TIP3   OH273930   4.326   2.493   2.836 -0.6781 -0.1466  0.4739
17480TIP3    H173931   4.336   2.400   2.820  0.6528 -0.2703  1.7921
17480TIP3    H273932   4.273   2.525   2.763 -0.0631 -1.6890 -0.6852
17481TIP3   OH273933   5.552   1.476  15.704 -0.1499 -0.2640 -0.3164
17481TIP3    H173934   5.548   1.438  15.616 -1.1012  0.5997 -0.6582
17481TIP3    H273935   5.526   1.404  15.762 -1.0650 -0.4145 -0.8833
17482TIP3   OH273936   3.061   0.383  13.799 -0.7247  0.3618 -0.1725
17482TIP3    H173937   3.118   0.319  13.840 -0.4827  0.6707 -0.0238
17482TIP3    H273938   3.114   0.421  13.729 -0.8375  0.4626 -0.2042
17483TIP3   OH273939   0.105   6.687   5.709  0.0049  0.4740 -0.0592
17483TIP3    H173940   0.032   6.626   5.722  0.3702 -0.1519 -0.8339
17483TIP3    H273941   0.171   6.661   5.772  0.9957 -1.3022 -1.7400
17484TIP3   OH273942   3.347   2.616   0.578  0.0414 -0.1188 -0.1851
17484TIP3    H173943   3.313   2.531   0.550 -1.3646  0.9525 -2.0094
17484TIP3    H273944   3.271   2.675   0.571  1.0931  1.3719  0.5318
17485TIP3   OH273945   3.396   0.448   4.911 -0.2170 -0.2487  0.2045
17485TIP3    H173946   3.361   0.381   4.970 -1.2866  0.2328  0.1249
17485TIP3    H273947   3.411   0.524   4.966 -0.2600 -0.1272  0.0512
17486TIP3   OH273948   4.591   4.569  16.319 -0.2462 -0.0754  0.5660
17486TIP3    H173949   4.549   4.513  16.254 -1.1335  0.2052  0.8952
17486TIP3    H273950   4.521   4.597  16.377  0.0871  1.7072  0.1873
17487TIP3   OH273951   5.376   1.388  11.181  0.0880  0.3850 -0.3748
17487TIP3    H173952   5.289   1.351  11.171  0.3455 -0.3392  0.0254
17487TIP3    H273953   5.425   1.322  11.230  0.5708  1.2218  0.3074
17488TIP3   OH273954   6.536   6.641   5.765  0.2171  0.0827  0.8166
17488TIP3    H173955   6.625   6.607   5.757  0.4198  0.8025 -0.1220
17488TIP3    H273956   6.547   6.736   5.768 -0.4690  0.1476  1.5649
17489TIP3   OH273957   0.380   4.022   3.901  0.1234  0.0981  0.2951
17489TIP3    H173958   0.285   4.015   3.891  0.0736  1.6022 -0.4910
17489TIP3    H273959   0.412   4.039   3.813  1.3752 -2.3583  0.1870
17490TIP3   OH273960   3.670   0.349  15.869 -0.0937  0.1354 -0.0123
17490TIP3    H173961   3.601   0.361  15.804  0.5659 -0.5478 -0.8680
17490TIP3    H273962   3.630   0.377  15.951 -0.8021  1.4643 -0.7646
17491TIP3   OH273963   2.310   6.775  16.461 -0.0246 -0.2940  0.0335
17491TIP3    H173964   2.222   6.741  16.474  0.4983 -1.1446  1.6793
17491TIP3    H273965   2.368   6.703  16.485  1.1668 -0.1759 -2.2395
17492TIP3   OH273966   5.875   1.151  15.080  0.1814 -0.2938 -0.0572
17492TIP3    H173967   5.878   1.223  15.142  0.6172  1.3401 -1.8777
17492TIP3    H273968   5.805   1.174  15.019  0.1857 -1.5213 -0.5666
17493TIP3   OH273969   0.588   5.908   4.111 -0.7619 -0.2336  0.4619
17493TIP3    H173970   0.680   5.887   4.093 -0.4640  0.1727  1.4266
17493TIP3    H273971   0.580   6.000   4.089 -0.7363 -0.0794  1.0729
17494TIP3   OH273972   4.992   3.250  16.056  0.3614  0.7810  0.1809
17494TIP3    H173973   4.983   3.172  16.111  0.0911  0.3042 -0.5262
17494TIP3    H273974   5.027   3.317  16.115  0.2679  0.2250  0.8825
17495TIP3   OH273975   3.911   3.977  16.311  0.2302  0.6674  0.0452
17495TIP3    H173976   3.954   4.059  16.338  0.3165  0.8807 -0.7157
17495TIP3    H273977   3.838   4.005  16.257  0.3725  0.2366 -0.3795
17496TIP3   OH273978   6.740   6.642  12.696  0.3350 -0.9562  0.0279
17496TIP3    H173979   6.704   6.559  12.728 -2.2903  0.9050  2.3137
17496TIP3    H273980   6.801   6.670  12.764  0.6451 -0.6404 -0.3740
17497TIP3   OH273981   2.817   6.353  14.476  0.3380 -0.1907 -0.2572
17497TIP3    H173982   2.773   6.318  14.554  0.4358  1.5115  0.6083
17497TIP3    H273983   2.846   6.440  14.502  2.3172 -0.4041 -1.5151
17498TIP3   OH273984   0.261   2.216  14.200 -0.2501  0.9499 -0.1289
17498TIP3    H173985   0.211   2.168  14.266  0.3273  1.1446  0.4635
17498TIP3    H273986   0.225   2.304  14.202  0.0630  1.0744  0.2559
17499TIP3   OH273987   1.869   2.522   4.407 -0.3970  0.1602 -0.1047
17499TIP3    H173988   1.940   2.458   4.400 -0.9150 -0.4971  0.5134
17499TIP3    H273989   1.909   2.597   4.451 -0.0682 -0.1746  0.1713
17500TIP3   OH273990   4.355   6.385   1.693  0.0761  0.7785 -0.2354
17500TIP3    H173991   4.437   6.435   1.698  0.1953  0.5783 -0.1589
17500TIP3    H273992   4.314   6.396   1.779 -1.3941  3.2366 -1.1532
17501TIP3   OH273993   3.433   0.839   3.460 -0.8105  0.4973 -0.1993
17501TIP3    H173994   3.463   0.881   3.541  1.2448 -0.6125 -0.3246
17501TIP3    H273995   3.418   0.748   3.484  1.3045 -0.2143 -1.3293
17502TIP3   OH273996   0.889   2.052   3.067  0.0788  0.0353 -1.0135
17502TIP3    H173997   0.933   2.062   3.151 -2.1120  0.4239  0.1508
17502TIP3    H273998   0.909   1.962   3.040  0.5502 -0.1903  0.0690
17503TIP3   OH273999   0.741   5.111  16.178  0.0972 -0.0373 -0.2127
17503TIP3    H174000   0.738   5.151  16.091  0.7052  1.3054  0.3452
17503TIP3    H274001   0.823   5.143  16.215 -0.2576 -0.4216  0.9236
17504TIP3   OH274002   6.481   1.020  10.642 -0.2528  0.3652  0.2033
17504TIP3    H174003   6.450   0.947  10.588  0.2124 -0.6916  1.3351
17504TIP3    H274004   6.420   1.092  10.622 -0.6532 -0.2842 -1.0042
17505TIP3   OH274005   3.855   5.982  16.011 -0.1932  0.1656  0.1193
17505TIP3    H174006   3.920   5.931  16.060 -0.1869  0.6548  0.6270
17505TIP3    H274007   3.771   5.950  16.044 -0.2569 -1.1200 -1.1893
17506TIP3   OH274008   4.806   3.424  13.206  0.2580  0.2750 -0.0466
17506TIP3    H174009   4.897   3.423  13.177  0.8916 -1.9339  1.7389
17506TIP3    H274010   4.767   3.346  13.165 -0.3874  0.3279  0.4428
17507TIP3   OH274011   5.541   4.147  12.971 -0.0368 -0.6142 -0.0607
17507TIP3    H174012   5.456   4.137  12.929  0.9317  0.8402 -2.6596
17507TIP3    H274013   5.596   4.079  12.931  0.5390 -0.1787 -0.0295
17508TIP3   OH274014   0.503   4.403  11.467  0.3795 -0.0425 -0.8028
17508TIP3    H174015   0.487   4.383  11.375  0.6049 -1.1465 -0.6110
17508TIP3    H274016   0.422   4.444  11.497  0.0691 -0.2638 -1.3211
17509TIP3   OH274017   5.601   2.373   3.080 -0.1487  0.1377 -0.3364
17509TIP3    H174018   5.529   2.434   3.096 -0.3357 -0.3838  0.9517
17509TIP3    H274019   5.559   2.295   3.043 -0.4718 -0.6777  1.6420
17510TIP3   OH274020   1.671   5.979  13.692 -0.4597 -0.4807  0.1139
17510TIP3    H174021   1.680   5.891  13.655  0.0090  0.6143 -2.5684
17510TIP3    H274022   1.589   5.975  13.742 -0.6908 -2.2924 -0.3213
17511TIP3   OH274023   5.516   1.423   0.172 -0.0895 -0.1301  0.0065
17511TIP3    H174024   5.547   1.498   0.223  2.0221 -0.6182 -0.4564
17511TIP3    H274025   5.471   1.462   0.097 -2.4754  0.5959  1.6783
17512TIP3   OH274026   5.671   1.628   2.916  0.0558 -0.1097  0.3967
17512TIP3    H174027   5.761   1.599   2.899  0.1999  1.0328 -0.9507
17512TIP3    H274028   5.652   1.691   2.847 -2.1944 -1.1640 -0.0732
17513TIP3   OH274029   2.250   1.554  12.703  0.1871  0.3270  0.0749
17513TIP3    H174030   2.186   1.616  12.738 -0.6179 -0.8667  0.7851
17513TIP3    H274031   2.252   1.572  12.609 -1.5449  0.0739 -0.0286
17514TIP3   OH274032   1.205   4.390   4.965  0.0685  0.2025  0.7536
17514TIP3    H174033   1.226   4.438   5.045  0.0780  0.9670  0.3042
17514TIP3    H274034   1.284   4.341   4.944 -0.3129 -0.9314  1.8379
17515TIP3   OH274035   3.320   0.679  16.748  0.4657  0.0047 -0.0215
17515TIP3    H174036   3.366   0.649  16.669  0.9341 -2.4579  1.1014
17515TIP3    H274037   3.245   0.621  16.756 -0.4729  1.2485  0.5259
17516TIP3   OH274038   1.279   4.008  12.674  0.0730  0.4146 -0.4951
17516TIP3    H174039   1.195   4.052  12.691  0.8053  1.8011 -0.3578
17516TIP3    H274040   1.300   4.030  12.584  0.7068  0.8271 -0.2575
17517TIP3   OH274041   3.764   1.458   5.569  0.8069 -0.6047  0.1580
17517TIP3    H174042   3.736   1.482   5.481  0.5708 -1.3936  0.0099
17517TIP3    H274043   3.696   1.492   5.626 -0.4555 -2.4062 -0.1874
17518TIP3   OH274044   4.073   3.590  11.138 -0.1003  0.2954  0.1100
17518TIP3    H174045   4.000   3.629  11.186 -2.1321 -1.6012 -1.2200
17518TIP3    H274046   4.085   3.648  11.063 -1.2960 -0.1358 -0.4462
17519TIP3   OH274047   3.875   4.431   2.286 -0.0352 -0.2361  0.0091
17519TIP3    H174048   3.860   4.455   2.377  0.5066 -0.8647  0.2699
17519TIP3    H274049   3.922   4.347   2.290 -1.6860 -1.2672 -0.8549
17520TIP3   OH274050   4.420   3.944   1.403 -0.3788 -0.6194  0.7659
17520TIP3    H174051   4.372   3.971   1.324 -0.2485 -0.8275  0.6139
17520TIP3    H274052   4.512   3.943   1.375 -0.2915 -0.2915  1.0349
17521TIP3   OH274053   1.042   2.832  12.184  0.5685  0.4748 -0.1822
17521TIP3    H174054   1.014   2.773  12.253 -0.6322 -0.7542 -1.6653
17521TIP3    H274055   1.133   2.852  12.205  0.3079 -0.0432  1.5970
17522TIP3   OH274056   3.413   2.612  14.590 -0.1262  0.0796 -0.4133
17522TIP3    H174057   3.421   2.683  14.527  0.0469  0.7594  0.3519
17522TIP3    H274058   3.501   2.577  14.598  0.1396  0.9018  0.4594
17523TIP3   OH274059   6.454   5.182   5.829 -0.3748 -0.2546  0.0097
17523TIP3    H174060   6.527   5.134   5.869 -0.2668  0.3107  0.5038
17523TIP3    H274061   6.457   5.268   5.871  0.5991  0.8510 -2.1769
17524TIP3   OH274062   1.646   4.165   0.244  0.3283  0.3049 -0.0969
17524TIP3    H174063   1.600   4.087   0.216  0.4217  0.5622 -0.9862
17524TIP3    H274064   1.726   4.166   0.192  0.6140  0.6782  0.3373
17525TIP3   OH274065   2.756   4.104  11.459 -0.6770  0.7686 -0.4737
17525TIP3    H174066   2.727   4.136  11.373 -0.3602  1.4014 -0.3537
17525TIP3    H274067   2.837   4.152  11.476 -1.0482  1.1026  0.4438
17526TIP3   OH274068   2.791   1.557   3.899  0.1296 -0.0099  0.1123
17526TIP3    H174069   2.767   1.492   3.965  1.3942 -0.7978 -0.1513
17526TIP3    H274070   2.742   1.531   3.820  0.6628 -0.6989 -0.0056
17527TIP3   OH274071   6.722   2.810  11.454 -0.1623  0.4251 -0.5137
17527TIP3    H174072   6.736   2.805  11.548  1.9504  0.5628 -0.7628
17527TIP3    H274073   6.805   2.844  11.419 -2.1641  4.2705 -2.0911
17528TIP3   OH274074   5.643   4.193  10.042 -0.3474  0.1152 -0.0392
17528TIP3    H174075   5.672   4.105  10.018 -0.7301  0.0710 -0.3636
17528TIP3    H274076   5.656   4.198  10.137 -1.4380 -0.7284  0.1823
17529TIP3   OH274077   4.333   5.812  11.540  0.4107 -0.1713  0.1376
17529TIP3    H174078   4.276   5.777  11.472  0.8291 -1.7448  0.5622
17529TIP3    H274079   4.304   5.769  11.620  1.1240  0.2529  0.6312
17530TIP3   OH274080   1.868   4.026  13.404  0.4850 -0.7766  0.0461
17530TIP3    H174081   1.941   4.029  13.342 -0.0086 -0.7481 -0.5385
17530TIP3    H274082   1.908   4.049  13.488  1.7416 -3.5293  0.3122
17531TIP3   OH274083   3.395   4.123  16.400  0.3692 -0.1575 -0.1294
17531TIP3    H174084   3.401   4.081  16.314  1.9161  1.0994 -0.6856
17531TIP3    H274085   3.303   4.149  16.407  0.5741  1.4665 -2.3129
17532TIP3   OH274086   4.105   1.939   0.571  0.3707  0.3679  0.0846
17532TIP3    H174087   4.096   1.849   0.542 -1.7111  1.0965 -1.8566
17532TIP3    H274088   4.178   1.938   0.633  0.3378 -2.6204  0.1841
17533TIP3   OH274089   1.725   1.792   3.258  0.0087  0.0574 -0.3098
17533TIP3    H174090   1.740   1.699   3.275 -0.3016 -0.0710 -0.7333
17533TIP3    H274091   1.665   1.820   3.327  1.2416  0.2997  0.7036
17534TIP3   OH274092   5.761   6.238  15.842  0.0272 -0.1627  0.2649
17534TIP3    H174093   5.834   6.220  15.783 -1.6119  1.5790 -2.5315
17534TIP3    H274094   5.708   6.158  15.839 -1.1296  0.5880 -2.5250
17535TIP3   OH274095   3.306   0.949  14.298 -0.2009 -0.4986  0.0676
17535TIP3    H174096   3.333   1.036  14.325 -1.2041 -0.2789  0.3980
17535TIP3    H274097   3.372   0.922  14.234  0.5573  0.1682  0.5592
17536TIP3   OH274098   4.912   5.815   1.225  0.3909  0.2509  0.4033
17536TIP3    H174099   4.887   5.899   1.185 -0.5707  0.4952  1.4714
17536TIP3    H274100   4.973   5.777   1.162  0.1431  1.3354 -0.5476
17537TIP3   OH274101   0.950   3.398  16.322 -0.6638 -0.5176 -0.8184
17537TIP3    H174102   0.951   3.494  16.319 -0.6416 -0.5135 -0.7013
17537TIP3    H274103   1.029   3.371  16.276 -0.1967 -0.4544 -0.0755
17538TIP3   OH274104   5.180   4.918   0.887  0.0878  0.2262 -0.2750
17538TIP3    H174105   5.095   4.875   0.893  1.0053 -1.6304  0.0760
17538TIP3    H274106   5.223   4.900   0.971  1.7013 -0.9086 -1.2783
17539TIP3   OH274107   2.323   2.529  14.664 -0.0294 -1.1772  0.5352
17539TIP3    H174108   2.247   2.494  14.712  0.0127 -1.4692  0.3883
17539TIP3    H274109   2.356   2.599  14.721 -1.1678 -0.1900  0.0076
17540TIP3   OH274110   2.821   3.842  12.974  0.3708  0.0557  0.3561
17540TIP3    H174111   2.791   3.864  12.886  1.4795 -1.4451 -0.4558
17540TIP3    H274112   2.803   3.921  13.026 -0.7816  0.7910 -1.0727
17541TIP3   OH274113   5.042   4.860  15.524  0.2658  0.2254  0.4661
17541TIP3    H174114   5.006   4.849  15.436 -2.7314  0.0768  1.6061
17541TIP3    H274115   5.086   4.777  15.543  0.3825  0.0274 -0.6055
17542TIP3   OH274116   6.516   3.186   1.943  0.3914  0.0324  0.0915
17542TIP3    H174117   6.527   3.245   1.869  0.1932 -1.9798 -1.6551
17542TIP3    H274118   6.600   3.141   1.951  0.1834 -0.2800  0.6309
17543TIP3   OH274119   1.872   6.824   4.021 -0.2489  0.1944  0.0677
17543TIP3    H174120   1.917   6.860   3.945  0.4030 -3.2262 -1.3375
17543TIP3    H274121   1.782   6.807   3.992  0.1125 -1.5250 -0.1810
17544TIP3   OH274122   4.045   1.602   1.695 -0.1367 -0.2638 -0.2151
17544TIP3    H174123   4.038   1.691   1.731  3.6021  1.2012 -2.5183
17544TIP3    H274124   3.988   1.603   1.619 -0.2400  0.0947 -0.1366
17545TIP3   OH274125   4.984   4.352  12.070  0.4063  0.1426 -0.2282
17545TIP3    H174126   4.902   4.399  12.060 -0.1461 -0.8641 -0.5786
17545TIP3    H274127   5.024   4.389  12.149  0.1964  1.4564 -0.7198
17546TIP3   OH274128   5.154   3.603  11.537  0.7187 -0.3729  0.0592
17546TIP3    H174129   5.156   3.521  11.489  2.1107  0.6508 -1.7533
17546TIP3    H274130   5.136   3.578  11.628  1.6696 -2.6943 -0.3375
17547TIP3   OH274131   5.362   0.386  11.783  0.0171  0.4628  0.4459
17547TIP3    H174132   5.391   0.300  11.753 -0.9754 -0.3615  1.7126
17547TIP3    H274133   5.313   0.423  11.710  0.3671 -0.0847 -0.0718
17548TIP3   OH274134   4.759   3.816  11.571  0.2149  0.7199  0.8891
17548TIP3    H174135   4.691   3.778  11.627 -0.7675  1.3728  0.1609
17548TIP3    H274136   4.750   3.910  11.584  1.0571  0.8072  0.8557
17549TIP3   OH274137   6.676   2.066  11.148 -0.8460 -0.0234 -0.3481
17549TIP3    H174138   6.725   1.987  11.123 -0.0161  0.4122 -0.1195
17549TIP3    H274139   6.699   2.131  11.081 -0.4921  0.4222  0.1973
17550TIP3   OH274140   2.291   1.475  11.540  0.3219  0.3412 -0.5116
17550TIP3    H174141   2.222   1.520  11.589  1.6216  0.5320  1.2565
17550TIP3    H274142   2.362   1.540  11.535  1.9619 -1.1462  1.4651
17551TIP3   OH274143   3.281   6.546   5.113 -0.2078 -0.1648 -0.3538
17551TIP3    H174144   3.195   6.514   5.143  0.2863  0.2714  1.7249
17551TIP3    H274145   3.344   6.489   5.156  0.5715  0.5935 -0.4625
17552TIP3   OH274146   3.621   1.638  13.726  0.1455 -0.2838 -0.2988
17552TIP3    H174147   3.683   1.704  13.756  3.5921 -3.2257 -0.2613
17552TIP3    H274148   3.538   1.663  13.767  1.7712  2.6697  1.5826
17553TIP3   OH274149   2.012   0.911   3.489 -0.1051  0.0103 -0.5463
17553TIP3    H174150   2.072   0.949   3.424  1.8270 -2.3879 -0.3236
17553TIP3    H274151   1.943   0.871   3.438 -0.7223  1.4366 -0.8854
17554TIP3   OH274152   2.120   1.331   2.606 -0.3187 -0.2377 -0.5670
17554TIP3    H174153   2.028   1.356   2.615 -0.3787 -0.6643  0.1413
17554TIP3    H274154   2.117   1.243   2.567 -0.2398 -0.4561 -0.0925
17555TIP3   OH274155   2.053   5.522  15.057  0.2870  0.0286  0.4939
17555TIP3    H174156   2.072   5.582  15.129 -0.1444  1.0265 -0.2076
17555TIP3    H274157   1.994   5.457  15.095  1.2898 -0.3648  1.4367
17556TIP3   OH274158   5.593   2.747  11.980 -0.0721  0.2277  0.2074
17556TIP3    H174159   5.669   2.779  11.930 -1.1381  1.8895 -0.4268
17556TIP3    H274160   5.559   2.675  11.927  1.6131 -1.2427  1.0136
17557TIP3   OH274161   3.397   0.208  14.779 -0.1944 -0.6974  0.0937
17557TIP3    H174162   3.449   0.168  14.710  0.0066  0.0432 -0.1958
17557TIP3    H274163   3.425   0.300  14.780 -2.0956 -0.0519 -0.6662
17558TIP3   OH274164   1.870   1.395   3.757 -0.3513 -0.1229 -0.0455
17558TIP3    H174165   1.874   1.387   3.661 -0.6674 -2.3046  0.0707
17558TIP3    H274166   1.826   1.315   3.785 -2.6172  1.6340  1.7921
17559TIP3   OH274167   4.408   6.468  14.920 -0.1181 -0.0066 -0.4791
17559TIP3    H174168   4.470   6.520  14.870  0.5078  1.0610  1.2959
17559TIP3    H274169   4.463   6.416  14.979 -0.8377  1.4508  1.6017
17560TIP3   OH274170   0.964   3.705   0.321 -0.4999  0.2903  0.0457
17560TIP3    H174171   0.947   3.712   0.227 -0.5964 -1.4099 -0.0958
17560TIP3    H274172   0.878   3.694   0.360 -0.2983 -1.8855 -0.0027
17561TIP3   OH274173   0.287   2.908  10.657  0.6493 -0.1269  0.0821
17561TIP3    H174174   0.308   2.984  10.712  0.8265 -0.2209  0.1441
17561TIP3    H274175   0.214   2.865  10.702 -0.5407  0.8959 -0.7745
17562TIP3   OH274176   6.761   4.861  14.414 -0.0619 -0.1929  0.1127
17562TIP3    H174177   6.825   4.793  14.435  0.8983  0.3642 -0.8553
17562TIP3    H274178   6.676   4.821  14.432  0.4901 -1.5184 -0.0910
17563TIP3   OH274179   4.983   1.018  10.215 -0.1196  0.0809 -0.7452
17563TIP3    H174180   5.021   0.970  10.288 -1.8066 -0.8178 -0.4106
17563TIP3    H274181   4.902   1.056  10.250 -2.3392 -2.4550 -2.6519
17564TIP3   OH274182   5.119   1.816  14.808 -0.0375  0.2978 -0.2622
17564TIP3    H174183   5.094   1.896  14.761 -1.2421 -0.9006 -1.7435
17564TIP3    H274184   5.205   1.794  14.773 -0.2545  0.2636 -0.7815
17565TIP3   OH274185   5.934   4.567  15.384 -0.1507 -0.3262 -0.3211
17565TIP3    H174186   5.930   4.492  15.325  0.2350 -1.5232  1.0974
17565TIP3    H274187   5.892   4.536  15.465  0.9177  0.6444  0.6406
17566TIP3   OH274188   0.822   2.025  14.464  0.4516 -0.3473 -0.0818
17566TIP3    H174189   0.840   1.971  14.387  1.2620  0.8000 -0.7340
17566TIP3    H274190   0.754   2.086  14.436  0.7770  0.1039  0.0823
17567TIP3   OH274191   2.461   3.056   2.001 -0.0878 -0.3378 -0.2054
17567TIP3    H174192   2.462   3.152   2.007  0.7447 -0.3171 -0.5390
17567TIP3    H274193   2.496   3.026   2.085  1.4469 -0.2915 -0.7976
17568TIP3   OH274194   2.384   1.187   4.296  0.1563  0.5821  0.0829
17568TIP3    H174195   2.418   1.159   4.381  0.0366  1.0333  0.2821
17568TIP3    H274196   2.442   1.258   4.269 -1.3436  2.2352  1.0213
17569TIP3   OH274197   2.361   1.077  15.879 -0.0953  0.0785  0.6559
17569TIP3    H174198   2.417   1.151  15.904 -0.2931  0.6914 -0.6174
17569TIP3    H274199   2.410   1.032  15.810  0.1961 -1.2437  1.6814
17570TIP3   OH274200   1.237   1.702   3.705  0.5078 -0.2571  0.1872
17570TIP3    H174201   1.224   1.645   3.629 -2.9960  2.2717 -1.3251
17570TIP3    H274202   1.185   1.662   3.774 -1.2504  0.5115 -0.6247
17571TIP3   OH274203   1.344   3.568  13.675  0.9174  0.3125  0.4873
17571TIP3    H174204   1.361   3.611  13.591 -0.6479  0.7658  0.3563
17571TIP3    H274205   1.411   3.603  13.734 -0.6724  3.6083  0.5779
17572TIP3   OH274206   0.027   0.503  14.778  0.0373 -0.3442  0.2712
17572TIP3    H174207  -0.020   0.462  14.704 -0.9333  1.9378 -0.4546
17572TIP3    H274208  -0.043   0.538  14.834  0.7989  1.5730  0.0861
17573TIP3   OH274209   3.466   0.940   3.730  0.0211  0.4635 -0.1656
17573TIP3    H174210   3.405   1.011   3.711 -0.4636 -0.2189 -1.2229
17573TIP3    H274211   3.446   0.915   3.820 -1.0020  0.4982 -0.3736
17574TIP3   OH274212   2.776   1.299   2.732 -0.0073  0.3375 -0.2989
17574TIP3    H174213   2.831   1.246   2.790  1.0192  0.4748 -1.1226
17574TIP3    H274214   2.757   1.241   2.658 -0.0244  0.6566 -0.5479
17575TIP3   OH274215   6.664   3.751  14.258  0.2416 -0.2667  0.1089
17575TIP3    H174216   6.625   3.806  14.326  0.3539  0.2106 -0.2050
17575TIP3    H274217   6.613   3.770  14.179  0.4355 -0.4290 -0.0585
17576TIP3   OH274218   1.633   1.821  10.717  0.0629 -0.1711  0.0730
17576TIP3    H174219   1.593   1.847  10.800 -0.7626  0.4859 -0.5238
17576TIP3    H274220   1.661   1.730  10.732  1.8107  0.5626  1.7374
17577TIP3   OH274221   5.865   2.352  11.407  0.5113 -0.1943 -0.1276
17577TIP3    H174222   5.866   2.320  11.317  0.6121 -1.4625  0.2943
17577TIP3    H274223   5.957   2.361  11.430  0.4998 -0.4416  0.0261
17578TIP3   OH274224   0.107   3.200   1.537 -0.1391 -0.4931  0.2760
17578TIP3    H174225   0.169   3.247   1.481  0.2534 -1.0493  0.2412
17578TIP3    H274226   0.159   3.174   1.613 -0.4720 -0.4626  0.5147
17579TIP3   OH274227   6.193   2.519  14.196 -0.0617 -0.3489  0.2649
17579TIP3    H174228   6.165   2.610  14.207 -0.6248 -0.4681 -0.1545
17579TIP3    H274229   6.114   2.468  14.213  0.0446 -0.7189 -0.3542
17580TIP3   OH274230   3.570   1.302   0.772  0.0462 -0.0408 -0.4906
17580TIP3    H174231   3.534   1.267   0.854 -0.6423  0.8740 -0.3869
17580TIP3    H274232   3.614   1.227   0.732  0.2824 -0.5417  0.6449
17581TIP3   OH274233   5.370   4.050  13.862 -0.1726  0.0124  0.3079
17581TIP3    H174234   5.356   4.051  13.767 -2.5977 -0.1681  0.5956
17581TIP3    H274235   5.292   4.008  13.897  0.2686  0.8531  2.4648
17582TIP3   OH274236   2.776   6.521  15.860 -0.2107 -0.0813  0.2895
17582TIP3    H174237   2.741   6.610  15.858 -0.4996 -0.1380 -3.2180
17582TIP3    H274238   2.725   6.474  15.794  2.4767 -1.8080 -0.7015
17583TIP3   OH274239   2.213   5.466   5.239 -0.3485 -0.4823 -0.7981
17583TIP3    H174240   2.190   5.493   5.150  0.1882 -0.0983 -0.8201
17583TIP3    H274241   2.292   5.516   5.260 -0.1047 -1.0488 -0.3474
17584TIP3   OH274242   6.632   5.007  11.179 -0.7314  0.8563  0.3363
17584TIP3    H174243   6.683   4.928  11.161 -0.3130  0.8912  1.3395
17584TIP3    H274244   6.590   5.026  11.095 -0.4805 -0.1638 -0.0497
17585TIP3   OH274245   6.727   2.354  10.385 -0.1596  0.1380  0.2909
17585TIP3    H174246   6.678   2.351  10.468  0.4751  1.2231  0.7264
17585TIP3    H274247   6.816   2.377  10.411  0.3627 -0.8006 -0.5946
17586TIP3   OH274248   5.001   1.056   2.498  0.3703  0.1221  0.2222
17586TIP3    H174249   5.057   1.004   2.556  0.7177 -0.8457 -0.9544
17586TIP3    H274250   4.955   0.992   2.444 -1.8065  0.9057  1.0600
17587TIP3   OH274251   4.374   2.681   3.633  0.2158  0.6609  0.2920
17587TIP3    H174252   4.395   2.648   3.546  0.7089  0.7633  0.3724
17587TIP3    H274253   4.280   2.666   3.642  0.5867 -1.8105  0.7764
17588TIP3   OH274254   1.741   3.168  14.235 -0.3135  0.1244 -0.7463
17588TIP3    H174255   1.741   3.247  14.289 -0.5113  0.8488 -1.7924
17588TIP3    H274256   1.689   3.105  14.286  1.6159 -0.0915  1.1167
17589TIP3   OH274257   0.936   3.895   1.460 -0.0664 -0.1026  0.3742
17589TIP3    H174258   0.865   3.836   1.431 -0.6253  1.3424 -1.4019
17589TIP3    H274259   0.894   3.952   1.525 -0.2983  0.1659 -0.0072
17590TIP3   OH274260   2.461   4.365   2.909 -0.2394  0.2543  0.6847
17590TIP3    H174261   2.465   4.383   2.815  1.6258  0.4072  0.7734
17590TIP3    H274262   2.535   4.413   2.946  0.0607 -1.1705  2.0064
17591TIP3   OH274263   4.757   1.515   2.581  0.3552 -0.9048 -0.5172
17591TIP3    H174264   4.745   1.420   2.581  1.2388 -1.1857  3.4944
17591TIP3    H274265   4.847   1.527   2.613  0.1877  1.3016 -0.7691
17592TIP3   OH274266   4.280   0.076  12.348 -0.0615 -0.0284  0.1860
17592TIP3    H174267   4.282   0.034  12.434  0.0188 -1.8982 -0.6771
17592TIP3    H274268   4.188   0.103  12.337 -0.5192 -1.5711  0.0638
17593TIP3   OH274269   1.016   2.613   0.349  0.6555 -0.0772  0.6366
17593TIP3    H174270   0.988   2.557   0.276  1.8213 -0.5199  0.4978
17593TIP3    H274271   1.039   2.552   0.419  1.1209  0.2646  0.7887
17594TIP3   OH274272   3.576   2.498   5.774 -0.0094  0.0562  0.1047
17594TIP3    H174273   3.561   2.502   5.868  2.3283 -1.2073  0.5833
17594TIP3    H274274   3.529   2.420   5.745 -1.5579  0.9839 -0.0087
17595TIP3   OH274275   3.788   6.027  11.655  0.2848  0.6158 -0.3865
17595TIP3    H174276   3.849   6.085  11.701  0.0104  0.5179  0.1149
17595TIP3    H274277   3.713   6.084  11.634 -0.1391  0.3776  0.4182
17596TIP3   OH274278   2.217   5.121   9.992  0.1101  0.3112  0.2884
17596TIP3    H174279   2.171   5.044   9.957 -0.0310  0.3742  0.3324
17596TIP3    H274280   2.200   5.190   9.927 -0.2070  0.4468  0.5116
17597TIP3   OH274281   0.464   1.207  13.275  0.3178 -0.2898 -0.0701
17597TIP3    H174282   0.556   1.222  13.295  0.2943  0.3373 -0.4194
17597TIP3    H274283   0.462   1.193  13.180  0.0301 -0.1006 -0.0914
17598TIP3   OH274284   0.199   1.029  14.582  0.2108 -0.1017  0.1367
17598TIP3    H174285   0.154   0.947  14.602 -0.4983  0.1966 -0.2053
17598TIP3    H274286   0.199   1.077  14.664  0.9789 -0.5940  0.4423
17599TIP3   OH274287   0.182   4.188   2.241 -0.0413  0.4838  0.0127
17599TIP3    H174288   0.109   4.130   2.217 -0.9117  1.8107 -0.7150
17599TIP3    H274289   0.140   4.260   2.287  0.9679  0.7470  0.5301
17600TIP3   OH274290   4.179   1.090  13.454  0.0762  0.5335 -0.5955
17600TIP3    H174291   4.113   1.140  13.503 -1.3382  0.5842 -2.4510
17600TIP3    H274292   4.128   1.034  13.395  1.6753 -1.1672 -0.4689
17601TIP3   OH274293   2.742   3.907  13.898  0.3012  0.6101 -0.1790
17601TIP3    H174294   2.680   3.901  13.971 -1.3562 -0.6726 -1.6068
17601TIP3    H274295   2.724   3.993  13.859 -0.2285  0.4738 -0.2533
17602TIP3   OH274296   1.457   0.342  16.274  0.0715  0.0644 -0.3580
17602TIP3    H174297   1.513   0.332  16.198  1.8224  0.6692  0.7954
17602TIP3    H274298   1.419   0.255  16.287  0.9359 -0.4271 -1.0385
17603TIP3   OH274299   1.203   2.936   5.281 -0.0645  0.0826  0.3542
17603TIP3    H174300   1.275   2.987   5.318  0.2312 -0.2371  0.2151
17603TIP3    H274301   1.239   2.849   5.268 -0.9202 -0.5184  1.7491
17604TIP3   OH274302   2.631   0.418   5.538 -0.0580 -0.2800  0.0226
17604TIP3    H174303   2.590   0.434   5.453  0.9535  0.1622 -0.4095
17604TIP3    H274304   2.583   0.345   5.575  0.0524 -1.0776 -1.3439
17605TIP3   OH274305   6.793   5.218  13.729  0.2714  0.0755  0.4835
17605TIP3    H174306   6.857   5.173  13.785 -0.0653 -0.5821  0.3429
17605TIP3    H274307   6.708   5.196  13.767  0.0381 -0.4195 -0.3220
17606TIP3   OH274308   2.945   4.338  11.887 -0.1269  0.5277 -0.0442
17606TIP3    H174309   2.876   4.272  11.883  1.6968 -1.4228 -1.8510
17606TIP3    H274310   2.984   4.328  11.973 -0.1876 -0.4447 -0.1232
17607TIP3   OH274311   5.257   6.332  12.510 -0.4910 -0.0475  0.3760
17607TIP3    H174312   5.165   6.320  12.487 -0.4723 -0.1468  0.3566
17607TIP3    H274313   5.291   6.389  12.440 -0.6656  0.4216  0.6672
17608TIP3   OH274314   6.028   5.635  15.098  0.1402 -0.1110 -0.0683
17608TIP3    H174315   6.087   5.617  15.025 -1.0583  0.2421 -1.1657
17608TIP3    H274316   5.957   5.688  15.060 -0.9359 -0.5931  1.1668
17609TIP3   OH274317   6.417   4.977   2.371  0.5513  0.2317  0.2464
17609TIP3    H174318   6.364   4.978   2.292  1.1178 -2.3945 -0.2654
17609TIP3    H274319   6.379   4.908   2.425  1.8730  0.0512  0.9964
17610TIP3   OH274320   1.103   5.522   3.241 -0.0300  0.1168 -0.3794
17610TIP3    H174321   1.057   5.473   3.309  1.1397  3.3073  3.0314
17610TIP3    H274322   1.059   5.607   3.237  0.1119  0.1618 -3.5731
17611TIP3   OH274323   2.226   1.666  15.245  0.2988 -0.5093  0.3021
17611TIP3    H174324   2.230   1.576  15.278 -1.5142 -0.5782  0.4746
17611TIP3    H274325   2.309   1.705  15.271  1.8416 -2.5606 -1.1483
17612TIP3   OH274326   4.194   6.337  13.252 -0.6947  0.1870 -0.3998
17612TIP3    H174327   4.127   6.377  13.307 -2.4657 -0.6406 -1.8711
17612TIP3    H274328   4.271   6.332  13.309 -2.0306  0.5876  1.5569
17613TIP3   OH274329   3.568   5.709  14.502  0.1212  0.0247  0.2618
17613TIP3    H174330   3.548   5.665  14.419 -1.2899  0.1702  0.4956
17613TIP3    H274331   3.583   5.801  14.478 -1.0897  0.2317  0.2370
17614TIP3   OH274332   4.788   3.115  15.324 -0.0984  0.3588  0.0693
17614TIP3    H174333   4.786   3.049  15.393 -0.5658 -0.0851 -0.3498
17614TIP3    H274334   4.861   3.089  15.268 -0.3498  0.1221 -0.1562
17615TIP3   OH274335   3.007   3.381  14.964  0.0038 -0.4901 -0.1617
17615TIP3    H174336   3.051   3.413  15.043  0.2623 -1.5561  0.1458
17615TIP3    H274337   2.944   3.450  14.942 -2.1993 -1.3864  2.6688
17616TIP3   OH274338   1.897   3.632   2.508 -0.1205 -0.2229  0.2079
17616TIP3    H174339   1.947   3.592   2.437 -0.1805  0.4211 -0.2151
17616TIP3    H274340   1.903   3.726   2.490  0.6717  0.0172  1.6025
17617TIP3   OH274341   2.265   4.677  16.152 -0.6751 -0.8380 -0.6859
17617TIP3    H174342   2.330   4.620  16.193  0.1936  0.0270 -0.8069
17617TIP3    H274343   2.252   4.639  16.065  0.2081 -0.6381 -0.9178
17618TIP3   OH274344   5.099   6.101   3.893  0.0908 -0.4208 -0.2240
17618TIP3    H174345   5.061   6.013   3.888  1.1489 -0.9816  1.1168
17618TIP3    H274346   5.181   6.094   3.844  0.7679 -0.5358  0.8888
17619TIP3   OH274347   5.090   1.656   0.042  0.4497 -0.0518 -0.3233
17619TIP3    H174348   5.176   1.677   0.005  0.6451  0.3746  0.3667
17619TIP3    H274349   5.028   1.688  -0.024  0.7884  0.9146 -0.1857
17620TIP3   OH274350   3.869   3.672   0.605  0.5549  0.2119 -0.0437
17620TIP3    H174351   3.859   3.578   0.621  0.1293 -0.3552 -3.0826
17620TIP3    H274352   3.864   3.711   0.693  1.7803 -2.6311  1.4331
17621TIP3   OH274353   1.516   6.235  13.085 -0.2261 -0.4911  0.2302
17621TIP3    H174354   1.444   6.200  13.032 -0.4647 -0.6580  0.6563
17621TIP3    H274355   1.526   6.171  13.156 -0.7118  0.3301  1.0599
17622TIP3   OH274356   0.064   3.646   4.743 -0.2279  0.1051  0.7644
17622TIP3    H174357  -0.025   3.648   4.708 -0.0572 -0.3612  0.2814
17622TIP3    H274358   0.062   3.704   4.819 -0.9489  0.0812  0.7676
17623TIP3   OH274359   1.054   4.552   4.096 -0.1056 -1.2264  0.0629
17623TIP3    H174360   0.991   4.620   4.120  2.4531  2.0010 -1.5201
17623TIP3    H274361   1.001   4.475   4.076 -3.4881  1.1780 -0.9826
17624TIP3   OH274362   6.559   6.066  12.375 -0.3998 -0.2245  0.0885
17624TIP3    H174363   6.520   6.003  12.435 -2.6875  2.5538  1.7591
17624TIP3    H274364   6.638   6.097  12.420 -0.2751 -0.5465  0.0953
17625TIP3   OH274365   6.867   5.731   2.227  0.1429 -0.4485 -0.5675
17625TIP3    H174366   6.893   5.639   2.219 -0.7800 -0.6835 -1.0362
17625TIP3    H274367   6.852   5.759   2.137  0.2733  0.1122 -0.4123
17626TIP3   OH274368   3.383   5.968   2.655 -0.1583 -0.1246 -0.2971
17626TIP3    H174369   3.452   6.000   2.598  0.0642 -1.1533 -0.6224
17626TIP3    H274370   3.376   5.875   2.635 -1.2828 -0.1470  0.1011
17627TIP3   OH274371   2.418   0.230   4.061 -1.0085 -0.4353  0.7448
17627TIP3    H174372   2.449   0.314   4.094  0.2395  0.2968 -2.0243
17627TIP3    H274373   2.471   0.164   4.107 -0.7610  0.3543  1.6253
17628TIP3   OH274374   2.405   6.094  13.692  0.2460 -0.0099 -1.2002
17628TIP3    H174375   2.317   6.132  13.699 -0.6566 -2.0943 -0.3286
17628TIP3    H274376   2.431   6.109  13.602 -0.3102  2.0223 -1.0798
17629TIP3   OH274377   5.228   6.474   3.519  0.5597 -0.0363 -0.2066
17629TIP3    H174378   5.178   6.519   3.586  0.8940  1.4436 -0.9230
17629TIP3    H274379   5.317   6.468   3.555  0.4526 -0.3823  0.0038
17630TIP3   OH274380   4.666   1.706   4.788  0.3503 -0.6446  0.1848
17630TIP3    H174381   4.599   1.754   4.837  1.2541 -1.6699  2.5546
17630TIP3    H274382   4.677   1.757   4.707 -0.9275  1.3882  1.2021
17631TIP3   OH274383   3.066   3.497  15.219  0.7048 -0.6397 -0.2872
17631TIP3    H174384   3.108   3.440  15.283  2.5513 -0.9095 -1.6385
17631TIP3    H274385   3.036   3.572  15.269  1.3918 -1.1941  0.9947
17632TIP3   OH274386   1.253   6.358  12.652 -0.2195 -0.1357  0.3324
17632TIP3    H174387   1.159   6.341  12.656 -0.6925  1.7081 -1.4479
17632TIP3    H274388   1.287   6.324  12.735 -3.0699  2.6131  2.8724
17633TIP3   OH274389   6.196   4.854   3.649  0.0104 -0.0933 -0.5242
17633TIP3    H174390   6.162   4.816   3.730  0.3715  0.1911 -0.2336
17633TIP3    H274391   6.119   4.876   3.598 -0.2966 -3.4801 -1.8146
17634TIP3   OH274392   6.479   5.930  14.684 -0.3478 -0.2994  0.3778
17634TIP3    H174393   6.451   6.017  14.712 -0.8931 -0.3884  0.1264
17634TIP3    H274394   6.462   5.874  14.760 -2.1322 -0.6010 -0.1991
17635TIP3   OH274395   1.265   3.226   4.063  0.0658  0.1099  0.0220
17635TIP3    H174396   1.291   3.256   3.976  0.0241 -0.7212 -0.2814
17635TIP3    H274397   1.211   3.298   4.097  0.5953  0.7161 -0.3783
17636TIP3   OH274398   2.151   2.843   4.393  0.1159 -0.3953 -0.4261
17636TIP3    H174399   2.164   2.895   4.472 -1.7111  0.4263 -0.6063
17636TIP3    H274400   2.142   2.754   4.424  1.6313 -0.4128  0.0483
17637TIP3   OH274401   2.662   3.410   3.309  0.0828  1.0300  0.4546
17637TIP3    H174402   2.660   3.421   3.404  0.1861 -0.9320  0.7265
17637TIP3    H274403   2.741   3.358   3.293 -0.5705  0.3261 -0.5664
17638TIP3   OH274404   1.013   0.301  11.384  0.2398  0.3054 -0.2745
17638TIP3    H174405   1.066   0.378  11.405 -0.8061  1.1444 -0.6209
17638TIP3    H274406   1.069   0.247  11.328  1.2737  0.4114  0.6255
17639TIP3   OH274407   0.946   4.126  12.360 -0.1912  0.2361  0.0525
17639TIP3    H174408   0.964   4.209  12.406  0.4986  0.3468 -0.3995
17639TIP3    H274409   0.873   4.146  12.303 -0.2933  0.4238  0.2453
17640TIP3   OH274410   1.840   0.064   5.435  0.0694 -0.0519  0.3312
17640TIP3    H174411   1.822  -0.020   5.477  1.1626 -0.5733 -0.1865
17640TIP3    H274412   1.912   0.101   5.487  0.3648  0.0289 -0.1298
17641TIP3   OH274413   4.418   6.351  13.094 -0.1398  0.3021  0.5317
17641TIP3    H174414   4.435   6.257  13.089  1.6557  0.6295 -0.6283
17641TIP3    H274415   4.341   6.359  13.150 -0.2555 -1.8407  0.7566
17642TIP3   OH274416   6.696   4.730   5.816  0.0983  0.2992  0.2440
17642TIP3    H174417   6.672   4.693   5.731  0.3940  0.6939 -0.0152
17642TIP3    H274418   6.683   4.658   5.878 -1.9810  0.5390  0.1648
17643TIP3   OH274419   4.596   6.101   1.816 -0.3037  0.9346 -0.3876
17643TIP3    H174420   4.634   6.129   1.733  1.5112 -0.2068 -0.0095
17643TIP3    H274421   4.577   6.182   1.862 -0.1354  1.5719 -1.4020
17644TIP3   OH274422   5.508   6.139  15.641 -0.3611 -0.6746 -0.4478
17644TIP3    H174423   5.547   6.057  15.610  0.8087 -0.1432 -0.4385
17644TIP3    H274424   5.544   6.206  15.583 -1.6104 -0.1943 -0.7060
17645TIP3   OH274425   5.286   4.499  11.296  0.0054 -0.5608  0.1412
17645TIP3    H174426   5.270   4.426  11.356 -0.2628 -0.7574 -0.1650
17645TIP3    H274427   5.298   4.575  11.353 -1.9505 -0.4098  0.4163
17646TIP3   OH274428   0.188   4.500  14.687 -0.3029  0.1139  0.0001
17646TIP3    H174429   0.140   4.507  14.770 -0.1645  0.0206  0.0893
17646TIP3    H274430   0.268   4.551  14.702 -0.1794 -0.0780 -0.0032
17647TIP3   OH274431   3.660   2.838   1.821 -0.0078 -0.3358  0.0079
17647TIP3    H174432   3.599   2.776   1.862  0.1202  0.8993  2.2527
17647TIP3    H274433   3.743   2.824   1.867  0.1188  1.1915  0.3076
17648TIP3   OH274434   5.870   5.771  14.599  0.5119 -0.5308  0.1533
17648TIP3    H174435   5.860   5.865  14.590 -0.9918 -0.7682 -1.1555
17648TIP3    H274436   5.961   5.759  14.627  1.2865  1.2181 -1.3566
17649TIP3   OH274437   0.227   6.513   0.442 -0.2389  0.1561  0.0874
17649TIP3    H174438   0.196   6.497   0.353 -0.3000  0.2410  0.0929
17649TIP3    H274439   0.318   6.484   0.442  0.2805  1.6936 -0.4574
17650TIP3   OH274440   4.735   1.475   0.499 -0.3003 -0.7850  0.5257
17650TIP3    H174441   4.704   1.536   0.432  0.2242  1.2152  2.0236
17650TIP3    H274442   4.830   1.482   0.495 -0.2594  0.6880  2.5461
17651TIP3   OH274443   2.323   2.769  16.516  0.5888  0.0717 -0.0934
17651TIP3    H174444   2.279   2.845  16.554  0.0116 -0.2224 -0.1648
17651TIP3    H274445   2.258   2.729  16.459  1.2772  0.2129 -1.0116
17652TIP3   OH274446   1.353   6.429  15.717 -0.1235  0.5107 -0.6925
17652TIP3    H174447   1.398   6.481  15.783 -1.7898  0.4447  0.5600
17652TIP3    H274448   1.413   6.357  15.699  0.5609  0.7673  0.4099
17653TIP3   OH274449   0.879   3.183  13.113  0.5971  0.1871  0.1851
17653TIP3    H174450   0.784   3.178  13.123  0.7156 -1.5070  0.7140
17653TIP3    H274451   0.892   3.256  13.052 -1.0450  0.3472 -0.0328
17654TIP3   OH274452   2.178   0.261  16.400  0.1534  0.1773  0.1942
17654TIP3    H174453   2.148   0.277  16.311 -1.3863 -0.1484  0.6263
17654TIP3    H274454   2.180   0.348  16.441  1.1171  0.3615 -0.2023
17655TIP3   OH274455   6.122   4.541   4.497  0.1444 -0.0009 -0.2430
17655TIP3    H174456   6.052   4.602   4.523  0.7182  1.0222 -1.0389
17655TIP3    H274457   6.168   4.586   4.426  1.9399 -0.4321  0.5979
17656TIP3   OH274458   1.237   2.595   1.675 -0.0623  0.2792 -0.5916
17656TIP3    H174459   1.290   2.624   1.749 -0.1455  0.7654 -0.7151
17656TIP3    H274460   1.287   2.523   1.637  0.4181  0.6016 -0.5836
17657TIP3   OH274461   2.129   1.560   0.800 -0.0485  0.8603  0.6317
17657TIP3    H174462   2.221   1.576   0.818 -0.1590  0.2863  1.7726
17657TIP3    H274463   2.082   1.618   0.860 -0.4325  0.2319  0.9490
17658TIP3   OH274464   3.739   6.614  12.776 -0.3057 -0.5266  0.3020
17658TIP3    H174465   3.795   6.643  12.848  0.5114  2.6092 -1.4151
17658TIP3    H274466   3.791   6.547  12.730  0.2810 -0.6002  1.0577
17659TIP3   OH274467   5.611   4.146   4.404 -0.1380 -0.5564 -0.5027
17659TIP3    H174468   5.598   4.155   4.498 -1.0001  0.0940 -0.6712
17659TIP3    H274469   5.523   4.137   4.368 -0.0648  1.8417 -1.4946
17660TIP3   OH274470   6.381   4.636   1.044 -0.3470 -0.6298 -0.3135
17660TIP3    H174471   6.372   4.624   1.139 -0.6853  3.6193  0.4283
17660TIP3    H274472   6.350   4.554   1.006 -0.8871 -2.2620  3.2252
17661TIP3   OH274473   6.199   2.078   1.380 -0.1977 -0.2901  0.1605
17661TIP3    H174474   6.203   2.065   1.475 -1.8481 -2.1586  0.0609
17661TIP3    H274475   6.154   2.000   1.348 -0.1496  0.5484 -2.1176
17662TIP3   OH274476   1.593   3.583  12.116 -0.1665  0.3611 -0.5261
17662TIP3    H174477   1.679   3.626  12.117  0.0596 -0.0839 -0.4446
17662TIP3    H274478   1.531   3.653  12.135  0.3989  0.2337  2.2890
17663TIP3   OH274479   2.297   4.354   4.048 -0.3993 -0.2905  0.0441
17663TIP3    H174480   2.378   4.322   4.009 -1.3575 -0.6237 -1.8307
17663TIP3    H274481   2.240   4.372   3.972 -1.5245  1.4225  1.2437
17664TIP3   OH274482   6.475   4.230   4.917 -0.1032  0.3655 -0.1819
17664TIP3    H174483   6.411   4.158   4.913  0.2464  0.0531 -0.2395
17664TIP3    H274484   6.459   4.281   4.838 -0.6341  0.5971  0.0659
17665TIP3   OH274485   0.173   2.717  16.411  0.0058  0.1855 -0.5127
17665TIP3    H174486   0.220   2.647  16.457 -1.1495 -0.8641 -0.9007
17665TIP3    H274487   0.230   2.740  16.338  0.6988  0.1312 -0.0067
17666TIP3   OH274488   4.449   6.697  11.557 -0.5842 -0.2854 -0.3501
17666TIP3    H174489   4.453   6.778  11.506 -2.5822 -1.3153 -2.3249
17666TIP3    H274490   4.473   6.628  11.494 -3.4219 -1.6325 -0.1127
17667TIP3   OH274491   4.267   2.089  16.059 -0.2188 -0.8909 -0.3793
17667TIP3    H174492   4.352   2.117  16.023 -0.2004 -1.0482 -0.4619
17667TIP3    H274493   4.286   2.062  16.148 -0.8715  3.0125  1.1309
17668TIP3   OH274494   0.868   5.000  15.897 -0.4376  0.0231 -0.1357
17668TIP3    H174495   0.824   4.928  15.851  1.2152  0.2248 -2.1319
17668TIP3    H274496   0.929   4.957  15.956 -1.2938 -0.2029  0.6206
17669TIP3   OH274497   3.286   3.078  11.440 -0.0197 -0.1062 -0.0936
17669TIP3    H174498   3.263   2.996  11.397 -2.4481  0.1326  0.5855
17669TIP3    H274499   3.264   3.146  11.376 -1.9222  0.1591  0.7742
17670TIP3   OH274500   2.505   3.870  13.217 -0.6044  0.4368 -0.1478
17670TIP3    H174501   2.547   3.786  13.196  0.4400  1.0474 -0.5485
17670TIP3    H274502   2.420   3.845  13.254 -1.8946 -0.7558 -3.5470
17671TIP3   OH274503   4.657   3.838  12.527 -0.9468  0.4053 -0.2778
17671TIP3    H174504   4.666   3.753  12.570  0.1926  0.3588 -0.5914
17671TIP3    H274505   4.662   3.901  12.599 -0.7305  0.2510 -0.1550
17672TIP3   OH274506   0.881   2.557  12.031  0.3593  0.4923  0.1573
17672TIP3    H174507   0.976   2.545  12.028  0.4676  1.5959 -1.2301
17672TIP3    H274508   0.859   2.603  11.951 -1.1617  1.6984  1.2084
17673TIP3   OH274509   4.215   0.581  16.419  0.1155 -0.1632  0.2705
17673TIP3    H174510   4.184   0.513  16.479  1.0811 -2.2426 -1.4140
17673TIP3    H274511   4.163   0.658  16.440  0.7974 -0.5454  4.0973
17674TIP3   OH274512   6.652   1.050   9.889  0.0123  0.5041  0.1581
17674TIP3    H174513   6.653   1.074   9.981  0.7591 -1.2382  0.6494
17674TIP3    H274514   6.560   1.059   9.862 -0.2374  0.8721  1.1155
17675TIP3   OH274515   4.899   1.115  11.164  0.1456 -0.5565 -0.0539
17675TIP3    H174516   4.857   1.199  11.148 -0.1575 -0.6384  0.3031
17675TIP3    H274517   4.849   1.052  11.112  1.7374 -0.2085 -2.1603
17676TIP3   OH274518   6.032   1.574   1.717 -0.1487  0.6337  0.2456
17676TIP3    H174519   5.961   1.574   1.782 -0.2124 -0.9560  0.2173
17676TIP3    H274520   6.100   1.520   1.756 -0.5308 -1.0833 -1.3239
17677TIP3   OH274521   1.229   3.470  15.939 -0.0823 -0.0056 -0.4014
17677TIP3    H174522   1.215   3.535  16.008  1.8108 -0.6409  0.6576
17677TIP3    H274523   1.202   3.387  15.978 -2.1665  0.0246 -1.6309
17678TIP3   OH274524   6.391   4.291  16.633  0.2742  0.2958  0.5180
17678TIP3    H174525   6.400   4.382  16.663 -2.0835  1.0912 -0.9347
17678TIP3    H274526   6.299   4.284  16.606  0.9316 -1.8801 -1.4268
17679TIP3   OH274527   3.028   2.675   4.165  0.1015  0.0278  0.1165
17679TIP3    H174528   3.087   2.700   4.236  0.8637 -0.7168 -0.2343
17679TIP3    H274529   2.946   2.653   4.208 -0.3621  2.2640  0.5128
17680TIP3   OH274530   0.596   5.473   3.315  0.3318  0.1048  0.6213
17680TIP3    H174531   0.672   5.531   3.304 -0.1679  0.5617 -0.5880
17680TIP3    H274532   0.522   5.525   3.286  0.0219 -1.5486 -1.9581
17681TIP3   OH274533   3.063   3.028   3.613  0.4825  0.6416  0.8329
17681TIP3    H174534   3.143   3.035   3.560  0.7923 -0.4471  1.1457
17681TIP3    H274535   3.057   3.113   3.657  2.5172  0.1257  2.2655
17682TIP3   OH274536   2.804   3.971   7.724  0.2874 -0.0220  0.0243
17682TIP3    H174537   2.762   4.041   7.775  0.3767  0.1477 -0.1351
17682TIP3    H274538   2.878   4.014   7.681  0.3843 -0.2313 -0.0162
17683TIP3   OH274539   2.869   0.370  11.188  0.2396  0.2050  0.7081
17683TIP3    H174540   2.872   0.285  11.145 -0.1101  0.4174  0.2617
17683TIP3    H274541   2.840   0.430  11.120 -0.6361  0.4849  1.3158
17684TIP3   OH274542   0.109   2.863   6.151 -0.1090  0.0297 -0.0173
17684TIP3    H174543   0.136   2.943   6.196 -2.2561  1.3376 -0.9083
17684TIP3    H274544   0.062   2.813   6.216 -0.4570  0.4268  0.0405
17685TIP3   OH274545   2.698   5.042  12.374  0.2664  1.0840  0.0286
17685TIP3    H174546   2.730   5.105  12.440  3.5444 -0.4049  0.0716
17685TIP3    H274547   2.695   4.959  12.421 -0.3487  0.5361 -0.9614
17686TIP3   OH274548   3.716   4.744   2.669  0.0774  0.0318  0.2114
17686TIP3    H174549   3.791   4.755   2.611 -1.0727  0.2706 -1.3002
17686TIP3    H274550   3.747   4.686   2.739  1.7355  0.3925 -0.1950
17687TIP3   OH274551   2.013   1.576  11.642  0.1234 -0.6665  0.1680
17687TIP3    H174552   1.922   1.576  11.610  0.6755 -0.9012 -1.5062
17687TIP3    H274553   2.052   1.654  11.602  0.5571 -0.3155  1.2446
17688TIP3   OH274554   4.315   2.669   4.412 -0.1708  0.0235  0.2334
17688TIP3    H174555   4.300   2.747   4.464 -0.1220  0.5521 -0.5205
17688TIP3    H274556   4.265   2.685   4.331 -3.0646 -2.2173  1.4153
17689TIP3   OH274557   6.601   0.692   2.848  0.5034  0.2888 -0.4916
17689TIP3    H174558   6.513   0.694   2.886  0.0882  0.2724 -1.4203
17689TIP3    H274559   6.659   0.715   2.921 -0.1102 -1.2995  0.5526
17690TIP3   OH274560   2.447   4.136  14.421 -0.1514  0.5018  0.4913
17690TIP3    H174561   2.530   4.103  14.386 -0.6631 -1.1046  0.7236
17690TIP3    H274562   2.407   4.182  14.347  0.7272  0.8833  0.2377
17691TIP3   OH274563   3.741   0.170   4.271  0.0035  0.1393  0.1849
17691TIP3    H174564   3.661   0.117   4.277  0.7318 -0.9572  0.5157
17691TIP3    H274565   3.757   0.179   4.177  0.4180 -1.1005  0.1216
17692TIP3   OH274566   2.168   6.071   3.815  0.0288 -0.1617 -0.1911
17692TIP3    H174567   2.101   6.138   3.826  1.2042  1.0376  0.0704
17692TIP3    H274568   2.159   6.042   3.724 -0.2106  0.6996 -0.4515
17693TIP3   OH274569   1.012   6.703   1.943 -0.0851 -0.0709 -0.0293
17693TIP3    H174570   1.005   6.682   2.036 -1.8142 -1.4401 -0.4164
17693TIP3    H274571   1.027   6.797   1.941  1.2134 -0.1891  1.6431
17694TIP3   OH274572   3.446   3.127   5.646  0.4483 -0.2600 -0.9229
17694TIP3    H174573   3.383   3.196   5.667  1.0279  0.6738 -2.1223
17694TIP3    H274574   3.527   3.155   5.690 -0.0008 -1.6029  0.8581
17695TIP3   OH274575   2.920   2.781  11.429 -0.4995 -0.1567  1.0248
17695TIP3    H174576   2.848   2.828  11.387  0.4760  1.0367  0.6139
17695TIP3    H274577   2.957   2.845  11.490 -0.3800 -1.0729  1.9281
17696TIP3   OH274578   3.913   0.311  15.038 -0.0284 -0.2360  0.3345
17696TIP3    H174579   3.954   0.394  15.061 -0.8989 -0.1333  1.6026
17696TIP3    H274580   3.962   0.245  15.086  0.1246 -0.3767 -0.0069
17697TIP3   OH274581   5.519   3.044  14.396 -0.2044  0.8351  0.0540
17697TIP3    H174582   5.571   3.072  14.471  0.2041  1.7536 -0.5572
17697TIP3    H274583   5.572   3.068  14.319  0.2267 -1.6645 -0.5439
17698TIP3   OH274584   2.172   5.816   2.227 -0.0524  0.4696  0.4912
17698TIP3    H174585   2.231   5.864   2.286  1.8406  0.3612 -1.2296
17698TIP3    H274586   2.209   5.728   2.223 -0.9798  0.0817  0.2119
17699TIP3   OH274587   2.513   0.623   1.954  0.6899  0.7104  0.4824
17699TIP3    H174588   2.543   0.588   2.038  1.9951 -0.0420 -0.2603
17699TIP3    H274589   2.586   0.677   1.922 -0.2476  1.9590  0.3544
17700TIP3   OH274590   4.876   5.773  16.823  0.4379 -0.2631  0.9883
17700TIP3    H174591   4.868   5.824  16.742 -0.4919 -1.4373  0.3005
17700TIP3    H274592   4.788   5.773  16.860 -0.0704 -2.7674  0.0262
17701TIP3   OH274593   4.318   2.072  11.734  0.1658  0.1727  0.7306
17701TIP3    H174594   4.356   2.159  11.726 -1.8675  0.9430 -1.8878
17701TIP3    H274595   4.303   2.061  11.828  0.4208  2.6452  1.1220
17702TIP3   OH274596   2.497   4.634  13.298  0.4296  0.5933  0.4083
17702TIP3    H174597   2.488   4.675  13.212  0.1707 -0.1323  0.0832
17702TIP3    H274598   2.495   4.708  13.359  0.4441  1.1048 -0.1882
17703TIP3   OH274599   0.300   1.476  14.950 -0.5916  0.0715  0.7714
17703TIP3    H174600   0.348   1.509  15.026 -1.4706  2.9417  0.2010
17703TIP3    H274601   0.213   1.515  14.957 -1.1808 -0.8215 -0.9079
17704TIP3   OH274602   6.194   5.239   5.768 -0.1094  0.4241 -0.2510
17704TIP3    H174603   6.276   5.197   5.793 -0.1410  0.1742 -0.5631
17704TIP3    H274604   6.218   5.329   5.746  0.1744  0.1963 -0.8941
17705TIP3   OH274605   6.280   2.519  11.687  0.1462 -0.2408  0.0843
17705TIP3    H174606   6.284   2.523  11.782  0.5821  0.0680  0.0542
17705TIP3    H274607   6.371   2.526  11.658  0.3512 -3.2866 -0.2665
17706TIP3   OH274608   1.844   5.627  14.274  0.0912 -0.3831 -0.2627
17706TIP3    H174609   1.760   5.637  14.228 -0.4352  0.2639  0.8044
17706TIP3    H274610   1.858   5.532  14.278 -1.2805 -0.5761  0.7328
17707TIP3   OH274611   6.061   4.827  14.296  0.0587  0.8789  0.4047
17707TIP3    H174612   6.059   4.735  14.322  3.2913  0.8735  1.0596
17707TIP3    H274613   6.004   4.832  14.219 -0.8001 -1.4767  0.8041
17708TIP3   OH274614   5.873   0.446  14.580  0.2842 -0.5923  0.2906
17708TIP3    H174615   5.855   0.536  14.552  0.2235 -0.8662 -0.5767
17708TIP3    H274616   5.838   0.441  14.669  0.4214  0.2825  0.4015
17709TIP3   OH274617   5.114   0.164   4.266 -0.2403  0.8909 -0.9568
17709TIP3    H174618   5.142   0.079   4.231  0.1530  0.8538 -0.5704
17709TIP3    H274619   5.032   0.146   4.311  0.8529  0.2651  0.9173
17710TIP3   OH274620   0.265   5.781  12.133  0.6307 -0.6292 -0.0017
17710TIP3    H174621   0.293   5.694  12.103  1.1778 -0.7441  0.7919
17710TIP3    H274622   0.205   5.763  12.205  0.6070 -0.3545  0.0475
17711TIP3   OH274623   2.781   2.123  11.510 -0.2182 -0.3142 -0.5112
17711TIP3    H174624   2.742   2.178  11.442 -0.3088 -0.9531 -0.9866
17711TIP3    H274625   2.782   2.179  11.588 -4.0446 -0.8441  0.1458
17712TIP3   OH274626   1.669   4.447   3.880  0.4265 -0.1016 -0.1645
17712TIP3    H174627   1.688   4.400   3.961 -0.0390 -1.5769 -0.8736
17712TIP3    H274628   1.755   4.460   3.839  0.4829 -1.4034 -0.5083
17713TIP3   OH274629   0.484   5.454  14.715  0.6696 -0.3696 -0.3244
17713TIP3    H174630   0.548   5.384  14.698  0.8308 -0.2606 -0.1682
17713TIP3    H274631   0.416   5.412  14.767  1.8617  0.1019  1.7256
17714TIP3   OH274632   0.879   2.058   5.211 -0.2514 -0.6105  0.2769
17714TIP3    H174633   0.904   1.965   5.218  2.0141 -0.1681 -0.9591
17714TIP3    H274634   0.961   2.106   5.222 -1.4260  1.3158  1.2130
17715TIP3   OH274635   5.801   6.442  13.294  0.1705  0.4337  0.2505
17715TIP3    H174636   5.835   6.408  13.377  0.0224 -0.1259  0.0860
17715TIP3    H274637   5.714   6.477  13.317 -0.6667 -1.3955 -0.0041
17716TIP3   OH274638   4.793   3.256  12.795  0.1013  0.1641  0.3693
17716TIP3    H174639   4.780   3.338  12.747 -1.8700 -0.1876  0.1904
17716TIP3    H274640   4.808   3.283  12.885  1.2315  0.7630  0.0086
17717TIP3   OH274641   6.551   4.555  10.206 -0.0807 -0.5713 -0.6561
17717TIP3    H174642   6.459   4.553  10.177  0.1238 -0.6852 -1.3033
17717TIP3    H274643   6.571   4.463  10.224 -0.4277 -0.4253  0.5794
17718TIP3   OH274644   6.157   5.053  13.481 -0.4902  0.0302  0.5923
17718TIP3    H174645   6.095   5.029  13.549 -1.1196 -1.4418 -0.4415
17718TIP3    H274646   6.188   5.140  13.506 -3.4032  1.0941  0.8359
17719TIP3   OH274647   2.788   0.315   2.471 -0.0142  0.1663 -0.2761
17719TIP3    H174648   2.865   0.366   2.446 -0.2887  0.5276 -0.3974
17719TIP3    H274649   2.801   0.296   2.563  0.4240 -0.1376 -0.3978
17720TIP3   OH274650   4.811   0.173  15.417  0.5910 -0.2764 -0.6292
17720TIP3    H174651   4.895   0.187  15.373  0.4871 -0.8022 -0.9981
17720TIP3    H274652   4.816   0.229  15.494  0.9105  0.4061 -1.1279
17721TIP3   OH274653   3.429   5.060   1.143 -0.2526  0.2656  0.0969
17721TIP3    H174654   3.387   5.051   1.058  0.0141 -0.9002  0.0791
17721TIP3    H274655   3.398   4.985   1.193  0.2195  0.5127  0.7678
17722TIP3   OH274656   4.306   0.593  12.943  0.4256  0.0278  0.0539
17722TIP3    H174657   4.273   0.671  12.898  0.4943  0.0419  0.0274
17722TIP3    H274658   4.257   0.591  13.025 -0.0070 -0.2370 -0.2069
17723TIP3   OH274659   5.926   4.614  14.880 -0.1868  0.4156  0.0471
17723TIP3    H174660   5.948   4.612  14.787 -0.2436  0.3060  0.0359
17723TIP3    H274661   5.840   4.655  14.884 -0.4383 -0.1046  0.0007
17724TIP3   OH274662   0.262   5.827   1.814  0.4473 -0.1554 -0.6172
17724TIP3    H174663   0.196   5.804   1.879 -0.5060 -0.2179 -1.5708
17724TIP3    H274664   0.327   5.757   1.819 -0.7405 -1.3277 -1.2314
17725TIP3   OH274665   0.128   2.573   0.695 -0.3643  0.3666  0.1482
17725TIP3    H174666   0.072   2.556   0.770  0.5979 -1.7840  0.4634
17725TIP3    H274667   0.104   2.661   0.666 -1.5840  0.7822  2.2261
17726TIP3   OH274668   6.222   4.251   3.376 -0.4379  0.1360  0.0344
17726TIP3    H174669   6.227   4.339   3.413 -0.6055  0.5424 -0.8877
17726TIP3    H274670   6.242   4.263   3.284 -0.3616 -0.8135 -0.0809
17727TIP3   OH274671   5.123   3.158   0.103 -0.0935  0.2865 -0.4698
17727TIP3    H174672   5.177   3.236   0.119 -0.0602  0.1399  0.1474
17727TIP3    H274673   5.037   3.181   0.137 -0.0198 -0.0346 -0.0681
17728TIP3   OH274674   3.367   1.367   1.311 -0.3736  0.3335  0.4647
17728TIP3    H174675   3.301   1.365   1.380 -0.0952 -0.8692  0.7128
17728TIP3    H274676   3.342   1.297   1.251  1.2309 -0.8636  1.1198
17729TIP3   OH274677   2.813   5.402  14.230 -0.8468  0.5530 -0.2865
17729TIP3    H174678   2.818   5.371  14.140  1.4103 -0.8883  0.2723
17729TIP3    H274679   2.780   5.492  14.223 -1.5898  0.1615 -2.4378
17730TIP3   OH274680   1.273   5.059   2.432  0.3981  0.7698 -0.2549
17730TIP3    H174681   1.188   5.082   2.393 -0.6378  0.3605  1.6180
17730TIP3    H274682   1.292   4.972   2.397  0.0809  0.8970 -0.7568
17731TIP3   OH274683   6.151   2.983   3.499 -0.2476 -0.1851 -0.1469
17731TIP3    H174684   6.192   3.025   3.575  0.6319 -0.4711 -0.4410
17731TIP3    H274685   6.196   3.022   3.424 -1.1430  0.1296 -0.5363
17732TIP3   OH274686   0.580   0.704  16.166  0.3223  0.2074  0.3982
17732TIP3    H174687   0.496   0.688  16.209 -0.3628 -0.3746 -1.0556
17732TIP3    H274688   0.560   0.768  16.098  0.7511 -0.8519 -0.7702
17733TIP3   OH274689   4.879   6.828   4.505  0.0863  0.2910  0.4189
17733TIP3    H174690   4.962   6.851   4.547  1.2406 -3.1990  0.3624
17733TIP3    H274691   4.904   6.767   4.435 -2.2614  1.9293 -2.0744
17734TIP3   OH274692   5.776   2.348  14.442  0.1763 -0.1137 -0.2755
17734TIP3    H174693   5.687   2.314  14.437  0.9097 -2.6150  1.5482
17734TIP3    H274694   5.825   2.280  14.488  2.5819  2.0905  0.6655
17735TIP3   OH274695   0.072   3.988  11.305  0.0378 -0.2519  0.0187
17735TIP3    H174696   0.012   4.031  11.246 -1.1088 -1.5839  0.1567
17735TIP3    H274697   0.034   4.000  11.392 -0.7564 -2.1380 -0.0103
17736TIP3   OH274698   5.760   2.825   5.415  0.5744 -0.3400 -0.0131
17736TIP3    H174699   5.709   2.827   5.335  0.8683 -0.8377 -0.2151
17736TIP3    H274700   5.712   2.882   5.476  1.3166  1.5564 -1.1150
17737TIP3   OH274701   4.871   2.087   2.994 -0.2850  0.9198  0.3074
17737TIP3    H174702   4.919   2.096   3.076  0.3340 -1.2921  0.2399
17737TIP3    H274703   4.828   2.002   3.000  0.6728  0.1775 -2.0775
17738TIP3   OH274704   3.543   4.848   3.253  0.1394 -0.6617  0.4764
17738TIP3    H174705   3.503   4.781   3.198  0.3913  0.7508 -1.5474
17738TIP3    H274706   3.524   4.931   3.208  1.8087  0.4188  1.6175
17739TIP3   OH274707   4.011   2.837   1.732 -0.3345 -0.5321 -0.2276
17739TIP3    H174708   4.096   2.865   1.765 -0.9893  1.4383 -0.1087
17739TIP3    H274709   3.983   2.770   1.795  1.0413 -1.0917 -0.1836
17740TIP3   OH274710   6.774   1.432   2.721 -0.7162  0.0142  0.0535
17740TIP3    H174711   6.731   1.449   2.805 -0.4070  2.7543 -0.2326
17740TIP3    H274712   6.867   1.434   2.741 -0.5650  2.6692 -0.5512
17741TIP3   OH274713   5.132   2.678  13.397  0.3599 -0.2445  0.3384
17741TIP3    H174714   5.228   2.685  13.392  0.2383  0.8920 -1.9522
17741TIP3    H274715   5.101   2.758  13.354 -1.6840  0.6110  3.1291
17742TIP3   OH274716   2.513   0.034   3.627  0.4299 -0.2786 -0.5833
17742TIP3    H174717   2.561  -0.032   3.677 -0.3540 -0.6936 -0.3640
17742TIP3    H274718   2.452   0.072   3.690 -0.4322 -0.6719 -1.1600
17743TIP3   OH274719   1.700   0.111   1.109  0.0787  0.4061 -0.0574
17743TIP3    H174720   1.727   0.125   1.199 -1.5380 -1.1329  0.7337
17743TIP3    H274721   1.769   0.151   1.056  3.1806 -1.9983  1.7906
17744TIP3   OH274722   5.316   5.451  10.823 -0.0939 -0.1263  0.0402
17744TIP3    H174723   5.398   5.499  10.812  0.1745 -0.4497  0.5858
17744TIP3    H274724   5.331   5.367  10.781 -0.7620  0.4441 -1.4316
17745TIP3   OH274725   4.773   0.347  11.317  0.3457 -0.1427  0.3041
17745TIP3    H174726   4.679   0.352  11.300  0.1657 -0.6765  1.1125
17745TIP3    H274727   4.810   0.416  11.262 -0.1568 -1.8742 -2.3907
17746TIP3   OH274728   1.690   2.102   4.513  0.8706  0.2792 -0.3367
17746TIP3    H174729   1.765   2.151   4.547  0.8585 -0.1079  0.2549
17746TIP3    H274730   1.634   2.169   4.473  1.8026  0.5094 -1.3109
17747TIP3   OH274731   6.372   4.368   0.876 -0.0229 -0.2708  0.8676
17747TIP3    H174732   6.437   4.300   0.862  1.5762  1.2992  0.2485
17747TIP3    H274733   6.371   4.417   0.794 -0.6769  0.8027  1.4986
17748TIP3   OH274734   1.293   6.559  13.687 -0.2844  0.4775  0.0174
17748TIP3    H174735   1.376   6.606  13.693 -0.3621  0.4950  1.2960
17748TIP3    H274736   1.295   6.498  13.761 -1.1389  0.0262 -0.3213
17749TIP3   OH274737   2.196   5.444   4.393 -0.1945 -0.4711 -0.4662
17749TIP3    H174738   2.189   5.433   4.298 -1.8213 -1.6027 -0.2763
17749TIP3    H274739   2.263   5.511   4.405  0.9696 -1.2037 -2.3567
17750TIP3   OH274740   2.271   2.104   1.407 -0.0257 -0.0373 -0.4508
17750TIP3    H174741   2.199   2.043   1.389  0.1701 -0.5363  0.3827
17750TIP3    H274742   2.284   2.151   1.325 -1.4109  0.1765 -0.5679
17751TIP3   OH274743   3.202   3.396   3.095 -0.4739 -0.7193  0.1936
17751TIP3    H174744   3.189   3.370   3.004 -0.7409 -0.8185  0.2587
17751TIP3    H274745   3.157   3.328   3.146 -0.6747 -0.4457  0.3871
17752TIP3   OH274746   5.332   6.004   4.920 -0.7002  0.0110  0.0023
17752TIP3    H174747   5.306   6.051   4.999 -0.5340 -0.3403  0.2654
17752TIP3    H274748   5.264   5.938   4.906 -0.3646 -0.3903  0.2491
17753TIP3   OH274749   2.893   5.385   1.674  0.3004 -0.4562 -0.0626
17753TIP3    H174750   2.866   5.386   1.582 -0.2422  0.2187  0.0916
17753TIP3    H274751   2.980   5.345   1.673  0.0093 -1.1018 -0.7830
17754TIP3   OH274752   0.081   4.729  11.770 -0.1191 -0.0676  0.1114
17754TIP3    H174753   0.151   4.794  11.774 -1.3530  1.2279  1.7533
17754TIP3    H274754   0.011   4.766  11.823 -2.1776 -1.1875 -1.6792
17755TIP3   OH274755   0.144   0.837   1.609 -0.3323  0.2996 -0.2733
17755TIP3    H174756   0.143   0.749   1.646 -1.8520 -0.2051 -1.4209
17755TIP3    H274757   0.191   0.828   1.526 -0.7495  0.5050 -0.5346
17756TIP3   OH274758   4.470   0.747   3.889 -0.3146 -0.1999  0.4237
17756TIP3    H174759   4.444   0.660   3.858  1.1000 -0.9491  1.2094
17756TIP3    H274760   4.429   0.756   3.974  2.1420 -1.5685  1.8660
17757TIP3   OH274761   5.837   3.949  13.070 -0.0872  0.7211  0.4358
17757TIP3    H174762   5.790   3.936  12.988  0.1155 -1.3346  0.5801
17757TIP3    H274763   5.843   4.044  13.080  0.3302  1.0397 -2.1641
17758TIP3   OH274764   1.969   3.725  10.939  0.3685 -0.2255  0.3135
17758TIP3    H174765   2.008   3.645  10.975  1.0749 -0.2865 -0.5431
17758TIP3    H274766   2.033   3.755  10.874 -0.2217  0.6481  0.1236
17759TIP3   OH274767   0.090   6.829   1.579 -0.0840 -0.1606  0.6008
17759TIP3    H174768   0.072   6.768   1.508 -2.1262 -2.9030  3.2030
17759TIP3    H274769   0.015   6.889   1.578 -0.4679 -0.6282  0.8262
17760TIP3   OH274770   1.722   2.131  11.927  1.0772  0.2958  0.1458
17760TIP3    H174771   1.807   2.114  11.967  0.3260 -1.7003  1.0205
17760TIP3    H274772   1.670   2.173  11.996  1.1223  0.8884 -0.1699
17761TIP3   OH274773   4.586   5.946   3.024  0.0704  0.4336  0.5508
17761TIP3    H174774   4.595   5.973   3.115  2.0571  2.9544 -0.2714
17761TIP3    H274775   4.656   5.883   3.010 -0.0757  0.2360  0.7179
17762TIP3   OH274776   2.502   3.360  10.108 -0.0070 -0.2156  0.1207
17762TIP3    H174777   2.455   3.379  10.027  0.5770  1.4961  0.1521
17762TIP3    H274778   2.487   3.436  10.163  1.1482 -0.5232  0.8998
17763TIP3   OH274779   4.362   6.297  10.981  0.8548  0.4457 -0.1443
17763TIP3    H174780   4.369   6.283  11.075  0.7627  0.8989 -0.0644
17763TIP3    H274781   4.398   6.385  10.967  2.2818 -0.1996 -0.7400
17764TIP3   OH274782   2.097   6.630  13.442 -1.0811 -0.4246  1.0474
17764TIP3    H174783   2.167   6.578  13.482  1.3627  0.3698 -1.8265
17764TIP3    H274784   2.097   6.712  13.491  0.8475 -0.0210  0.4752
17765TIP3   OH274785   1.067   6.246  14.374 -0.3721 -0.7358  0.5034
17765TIP3    H174786   1.141   6.237  14.433 -0.1217  0.0398  0.3145
17765TIP3    H274787   1.010   6.311  14.415 -0.9062 -1.2649  0.6056
17766TIP3   OH274788   2.762   6.851  10.825 -0.3604  0.0584 -0.2940
17766TIP3    H174789   2.690   6.810  10.871  0.5498 -0.8172  0.3852
17766TIP3    H274790   2.724   6.879  10.741 -1.7777  0.7717  0.5457
17767TIP3   OH274791   2.469   5.587   2.921 -0.0560 -0.2286  0.5872
17767TIP3    H174792   2.453   5.523   2.991 -0.5856 -1.3301 -0.4913
17767TIP3    H274793   2.564   5.594   2.917  0.0162 -1.0078  0.6855
17768TIP3   OH274794   1.216   0.682  16.873 -0.1961  0.7034 -0.3147
17768TIP3    H174795   1.142   0.647  16.922 -0.2616  0.3202 -0.6772
17768TIP3    H274796   1.288   0.621  16.891  0.6631  2.2227  1.7395
17769TIP3   OH274797   0.116   0.747  14.658 -0.2169 -0.3514 -0.9223
17769TIP3    H174798   0.193   0.722  14.607  1.5706  0.4873  1.1777
17769TIP3    H274799   0.101   0.673  14.717  0.9659  0.6431  0.7450
17770TIP3   OH274800   6.454   6.575   4.263 -0.3496  0.5656 -0.2898
17770TIP3    H174801   6.410   6.612   4.339  0.5007  0.8835  0.0651
17770TIP3    H274802   6.398   6.596   4.189 -1.7958 -0.7720  0.3775
17771TIP3   OH274803   3.025   1.436  13.578 -0.2716 -0.0005 -0.3252
17771TIP3    H174804   2.997   1.378  13.649  0.6047 -0.7646 -0.5794
17771TIP3    H274805   3.105   1.477  13.610 -0.9573  1.1960 -0.0958
17772TIP3   OH274806   0.311   6.850  16.631  0.0598  0.9235  0.1377
17772TIP3    H174807   0.342   6.937  16.656  0.3379  1.0109 -0.5085
17772TIP3    H274808   0.390   6.798  16.623  0.0535  1.1245 -1.4281
17773TIP3   OH274809   1.071   5.462  10.641 -0.3091  0.4014 -0.0503
17773TIP3    H174810   1.070   5.466  10.546 -1.5667  2.9376 -0.0264
17773TIP3    H274811   0.993   5.412  10.664 -3.3164  4.3457 -0.4722
17774TIP3   OH274812   4.947   4.177   0.527 -0.7731  0.0172 -0.6494
17774TIP3    H174813   4.987   4.168   0.440  0.6398 -1.3504  0.1057
17774TIP3    H274814   5.017   4.210   0.583 -1.6037  0.6480  0.0516
17775TIP3   OH274815   1.492   1.092   1.520 -0.0407 -0.7345 -0.4052
17775TIP3    H174816   1.456   1.039   1.591 -0.7150 -0.8430 -0.8113
17775TIP3    H274817   1.541   1.161   1.564 -0.8418 -0.5244  0.1931
17776TIP3   OH274818   6.892   3.990  12.942  0.1990  0.9692 -0.3429
17776TIP3    H174819   6.849   3.971  13.025 -0.3006 -0.7034 -0.9417
17776TIP3    H274820   6.938   3.909  12.919  1.0560  1.6891 -1.2748
17777TIP3   OH274821   1.584   1.807   4.962  0.0857 -0.7488 -0.4561
17777TIP3    H174822   1.651   1.839   4.901  0.0912 -0.6668 -0.4061
17777TIP3    H274823   1.513   1.872   4.956  1.0401  0.5340  1.3749
17778TIP3   OH274824   0.230   5.963  16.666 -0.4428 -0.1608  0.4693
17778TIP3    H174825   0.255   5.955  16.573  0.5590 -1.1149  0.7957
17778TIP3    H274826   0.180   5.883  16.684 -1.9832  0.7515  0.3737
17779TIP3   OH274827   6.450   6.574  14.596  0.3994 -0.0604 -0.3980
17779TIP3    H174828   6.417   6.634  14.663 -0.0752 -1.5155  0.7346
17779TIP3    H274829   6.513   6.519  14.642  1.1779 -0.1481 -1.5243
17780TIP3   OH274830   0.096   0.748  12.229  0.8538  0.3005 -1.0015
17780TIP3    H174831   0.101   0.668  12.177  0.8576 -0.4917  0.1802
17780TIP3    H274832   0.055   0.812  12.170  0.4023 -0.7017 -1.8139
17781TIP3   OH274833   1.604   6.196   3.678 -0.2991  0.9214  0.0701
17781TIP3    H174834   1.557   6.112   3.672 -1.3134  1.4684  0.1234
17781TIP3    H274835   1.652   6.191   3.761 -0.0865  0.2626 -0.0869
17782TIP3   OH274836   3.925   4.664  15.157  0.2415  0.1110 -1.0126
17782TIP3    H174837   3.895   4.634  15.072  0.6819 -1.2727 -0.7098
17782TIP3    H274838   3.845   4.683  15.206 -0.0351  0.0059 -1.4189
17783TIP3   OH274839   4.255   4.426   3.793 -0.8146 -0.2249  0.3514
17783TIP3    H174840   4.293   4.357   3.847 -0.1099  0.6128  0.9753
17783TIP3    H274841   4.162   4.425   3.813 -1.2980 -2.6835 -1.6081
17784TIP3   OH274842   2.945   4.222   0.406  0.1969 -0.2626  0.3111
17784TIP3    H174843   2.956   4.170   0.485  2.3903 -0.7651 -0.2466
17784TIP3    H274844   2.965   4.161   0.335  1.2164  0.9124 -0.4409
17785TIP3   OH274845   5.729   3.892  11.901 -0.6180 -0.0118 -0.0771
17785TIP3    H174846   5.799   3.944  11.941 -2.1179  1.2116  1.0546
17785TIP3    H274847   5.745   3.803  11.933  1.3286 -0.1004 -1.1436
17786TIP3   OH274848   2.855   5.007  10.937  0.5595 -0.6564  0.0243
17786TIP3    H174849   2.845   4.970  11.025 -0.3661 -1.2858 -0.3352
17786TIP3    H274850   2.948   5.031  10.932  0.6840 -0.8403  1.0746
17787TIP3   OH274851   4.335   2.820  13.522  0.4864 -0.1351 -0.4593
17787TIP3    H174852   4.348   2.734  13.561 -1.4632 -1.1558 -1.8609
17787TIP3    H274853   4.288   2.870  13.589  0.1755 -0.7183 -0.2407
17788TIP3   OH274854   1.472   0.132  15.719  0.2720  0.0748 -0.2513
17788TIP3    H174855   1.490   0.089  15.803 -1.2577  1.4564  0.8640
17788TIP3    H274856   1.530   0.208  15.719 -0.3073  0.5205 -0.0543
17789TIP3   OH274857   1.081   6.172  16.087 -0.1940  0.0168  0.0464
17789TIP3    H174858   1.131   6.123  16.152 -0.3576 -1.3915 -0.8457
17789TIP3    H274859   1.143   6.236  16.052  0.8520 -1.3398 -0.6547
17790TIP3   OH274860   0.795   5.301   0.831  0.2098 -0.4912 -0.5996
17790TIP3    H174861   0.846   5.372   0.870 -0.0683 -0.8371  0.4217
17790TIP3    H274862   0.724   5.285   0.893 -1.0715 -0.1313 -1.9148
17791TIP3   OH274863   0.935   3.550  15.406 -0.3295  0.5709  0.2669
17791TIP3    H174864   0.967   3.625  15.457 -0.0157  0.5683  0.0795
17791TIP3    H274865   0.876   3.589  15.342  1.6445  0.9977 -1.4058
17792TIP3   OH274866   4.590   3.754   1.745  0.3038  0.1325 -0.0445
17792TIP3    H174867   4.630   3.733   1.660  0.6449  1.5811 -0.2786
17792TIP3    H274868   4.652   3.814   1.786 -0.3546  0.2633  0.7816
17793TIP3   OH274869   2.588   5.266   9.513 -0.0267 -0.5549 -0.0791
17793TIP3    H174870   2.600   5.172   9.499  0.5272 -0.5883  0.5511
17793TIP3    H274871   2.521   5.291   9.450 -0.5715 -1.4732  0.1075
17794TIP3   OH274872   1.105   0.221   5.564  0.4997 -0.6141 -0.2415
17794TIP3    H174873   1.031   0.179   5.519  0.1826 -2.0155  1.4835
17794TIP3    H274874   1.172   0.153   5.568  1.2300  0.0964 -0.2566
17795TIP3   OH274875   4.073   0.129   4.439 -0.0551  0.3760 -0.0596
17795TIP3    H174876   4.092   0.037   4.420 -2.0016 -0.7047  2.5418
17795TIP3    H274877   4.038   0.164   4.357  0.6966 -1.2046 -1.0984
17796TIP3   OH274878   2.042   2.756   2.420 -0.3859 -0.4907  0.2395
17796TIP3    H174879   2.102   2.695   2.461 -0.2959 -2.1184 -2.1606
17796TIP3    H274880   2.027   2.823   2.487  1.4432 -1.8000  2.0734
17797TIP3   OH274881   3.096   5.543  12.029  0.3895  0.0173 -0.1766
17797TIP3    H174882   3.157   5.538  12.103 -1.5659 -0.9742  1.4690
17797TIP3    H274883   3.075   5.636  12.022  0.1291  0.0639  0.9584
17798TIP3   OH274884   6.493   4.842   0.332  0.1376  0.6313  0.3350
17798TIP3    H174885   6.499   4.896   0.410  1.0793 -0.1640  0.8351
17798TIP3    H274886   6.499   4.904   0.259 -0.6701  1.3718  0.8753
17799TIP3   OH274887   0.030   4.096  15.706  0.4096 -0.0185  0.3325
17799TIP3    H174888   0.052   4.165  15.644 -0.5059 -0.5535 -0.6181
17799TIP3    H274889  -0.034   4.136  15.765  1.0593  0.3980  0.7749
17800TIP3   OH274890   3.381   6.478   0.738  0.3626  0.3096  0.1142
17800TIP3    H174891   3.446   6.480   0.669  0.3327 -0.4044  0.0601
17800TIP3    H274892   3.316   6.544   0.712  0.5994  0.3863 -0.2868
17801TIP3   OH274893   6.099   6.233   5.568 -0.3720 -0.3939  0.7222
17801TIP3    H174894   6.057   6.317   5.549  0.8716 -0.1308 -1.0955
17801TIP3    H274895   6.027   6.170   5.570 -1.1206  0.4120  0.0862
17802TIP3   OH274896   5.687   4.322  16.664  0.3279  0.0465 -0.8769
17802TIP3    H174897   5.744   4.379  16.612  0.8334  0.4770  0.1206
17802TIP3    H274898   5.612   4.376  16.685 -1.2432 -0.9515 -3.4186
17803TIP3   OH274899   5.408   0.879  10.285  0.3383  0.4789 -0.4386
17803TIP3    H174900   5.354   0.853  10.359 -0.1218  1.1632 -0.5225
17803TIP3    H274901   5.374   0.965  10.258  1.8405  1.2286 -0.1111
17804TIP3   OH274902   3.487   3.837   1.383 -0.3206 -0.2649 -0.3009
17804TIP3    H174903   3.526   3.872   1.463 -1.1247  0.6554 -0.2999
17804TIP3    H274904   3.517   3.897   1.314 -0.1271 -0.7042 -0.6058
17805TIP3   OH274905   6.063   2.132  14.870 -0.0938 -0.3171  0.3914
17805TIP3    H174906   6.058   2.060  14.932  0.3292  0.2887  1.1466
17805TIP3    H274907   6.115   2.199  14.915  1.9040 -0.5977 -1.3665
17806TIP3   OH274908   2.776   4.700   2.630  0.3479 -0.0711 -0.1399
17806TIP3    H174909   2.731   4.708   2.546  1.0642  1.3781 -0.4275
17806TIP3    H274910   2.867   4.721   2.610  0.5797  0.0178  0.9541
17807TIP3   OH274911   1.508   5.006  11.637 -0.1863  0.2269  0.0275
17807TIP3    H174912   1.480   5.088  11.596 -1.4608 -0.0404  0.2930
17807TIP3    H274913   1.555   4.959  11.569 -0.6974  0.5755 -0.5749
17808TIP3   OH274914   2.014   6.708   1.287 -0.0376 -0.1174  0.0198
17808TIP3    H174915   2.060   6.789   1.267 -0.0083 -0.2488 -0.4583
17808TIP3    H274916   2.056   6.675   1.366  0.8685 -0.3769 -0.5660
17809TIP3   OH274917   2.864   2.218   1.061 -0.4046 -0.6415 -0.3233
17809TIP3    H174918   2.928   2.210   0.990 -0.7605 -0.1018 -0.7120
17809TIP3    H274919   2.826   2.305   1.049  0.3914 -0.0461  1.2601
17810TIP3   OH274920   0.762   2.508   0.777  0.1209  0.7128  0.4161
17810TIP3    H174921   0.690   2.549   0.729 -0.4249 -0.7674 -0.1036
17810TIP3    H274922   0.838   2.562   0.757 -0.4787  1.2121 -0.6039
17811TIP3   OH274923   4.221   3.355  14.781 -0.3485  0.3337 -0.0844
17811TIP3    H174924   4.241   3.303  14.859  0.3227  0.4733 -0.1536
17811TIP3    H274925   4.301   3.349  14.728  0.4749  2.9351  0.7089
17812TIP3   OH274926   1.678   6.698  16.064 -0.1064  0.2842  0.2690
17812TIP3    H174927   1.756   6.658  16.102 -0.3934 -2.2711 -1.5794
17812TIP3    H274928   1.606   6.662  16.116 -0.2737 -0.7402 -0.6161
17813TIP3   OH274929   0.402   1.766  12.467  0.3384 -0.1120  0.0084
17813TIP3    H174930   0.392   1.832  12.399  1.3309  0.7020  0.6224
17813TIP3    H274931   0.484   1.788  12.511  1.7826 -2.9264 -1.0143
17814TIP3   OH274932   0.874   6.899  11.004 -0.0444  0.1724  0.0747
17814TIP3    H174933   0.779   6.891  11.007 -0.2804  0.9770 -2.9224
17814TIP3    H274934   0.905   6.810  10.987 -0.0855 -0.3232  2.2380
17815TIP3   OH274935   0.860   5.502  15.168  0.2567 -0.0370  0.1424
17815TIP3    H174936   0.954   5.496  15.148  0.4597  0.8064  0.7821
17815TIP3    H274937   0.820   5.530  15.086  0.7129  0.6605  0.1498
17816TIP3   OH274938   5.704   0.076  16.587 -0.9354  0.0564  0.0606
17816TIP3    H174939   5.608   0.075  16.588 -1.1434  3.3840 -1.4466
17816TIP3    H274940   5.728   0.126  16.665 -0.4256 -0.3108  0.1469
17817TIP3   OH274941   2.571   0.637   4.015 -0.6911  0.2643  0.0341
17817TIP3    H174942   2.501   0.609   3.955 -0.1630 -0.8506 -0.0834
17817TIP3    H274943   2.553   0.590   4.096 -0.5580  0.6376  0.2818
17818TIP3   OH274944   1.827   1.941   2.558  0.1309 -0.2907 -0.3843
17818TIP3    H174945   1.911   1.931   2.514 -0.0056 -2.6266 -0.2458
17818TIP3    H274946   1.783   1.856   2.545 -1.1350 -0.0175  1.7218
17819TIP3   OH274947   1.568   5.527   2.468  0.3622  0.2945 -0.7001
17819TIP3    H174948   1.636   5.577   2.513 -0.6292  1.4470 -0.4305
17819TIP3    H274949   1.486   5.557   2.508 -0.3231 -0.8769 -1.1918
17820TIP3   OH274950   2.536   2.657   4.973  0.0212  0.2559  0.0606
17820TIP3    H174951   2.595   2.640   5.046 -0.0795 -1.2437 -0.1686
17820TIP3    H274952   2.559   2.591   4.907 -0.3303  1.1551 -1.0055
17821TIP3   OH274953   5.322   4.797   4.294 -0.2061 -0.7455  0.0637
17821TIP3    H174954   5.279   4.763   4.215  1.0550 -1.0356 -0.5223
17821TIP3    H274955   5.287   4.886   4.304 -1.1281 -1.0641 -0.2339
17822TIP3   OH274956   3.991   6.583  14.332 -0.5691  0.2187  0.0948
17822TIP3    H174957   4.076   6.544  14.314 -0.7218  0.2069 -0.6076
17822TIP3    H274958   4.011   6.660  14.386 -0.2580 -0.7700  1.4648
17823TIP3   OH274959   5.714   0.477   0.260 -0.4084 -0.2136 -0.2737
17823TIP3    H174960   5.733   0.558   0.308 -0.7464  0.2404 -0.8964
17823TIP3    H274961   5.714   0.503   0.168 -2.0610 -0.5839 -0.4096
17824TIP3   OH274962   4.204   3.564   4.336 -0.2944 -0.0129  0.4456
17824TIP3    H174963   4.211   3.659   4.325 -0.3272  0.1323  1.5682
17824TIP3    H274964   4.200   3.530   4.247  0.7508  0.9545 -0.0018
17825TIP3   OH274965   2.711   3.875   2.255 -0.2110 -0.1064  0.2127
17825TIP3    H174966   2.733   3.919   2.338 -1.0944  0.6248  0.0814
17825TIP3    H274967   2.772   3.912   2.191 -1.0922  1.1345  0.0562
17826TIP3   OH274968   6.552   2.249   4.273  0.0057  0.3969 -0.1028
17826TIP3    H174969   6.541   2.155   4.264  1.7239  0.1245  0.2899
17826TIP3    H274970   6.567   2.280   4.183  0.1374  0.1897 -0.1530
17827TIP3   OH274971   5.905   1.002   4.447 -0.4985  0.1580  0.1409
17827TIP3    H174972   5.977   1.029   4.503  0.1799  1.7439 -1.4177
17827TIP3    H274973   5.841   0.964   4.507  1.4594 -1.0319  1.6121
17828TIP3   OH274974   2.096   2.047  11.523  0.1514 -0.0849 -0.1678
17828TIP3    H174975   2.087   2.047  11.428 -1.4885 -1.3644 -0.0658
17828TIP3    H274976   2.035   2.114  11.554 -0.6559 -0.8863  0.0321
17829TIP3   OH274977   6.211   5.407  15.925  0.6332 -0.6924  0.3791
17829TIP3    H174978   6.270   5.439  15.857 -0.2994  0.9147  0.2662
17829TIP3    H274979   6.268   5.387  16.000  1.4103 -0.1629 -0.0647
17830TIP3   OH274980   0.236   5.608   2.186  0.6551  0.1449  0.1176
17830TIP3    H174981   0.237   5.703   2.193 -0.4009  0.2636 -1.0914
17830TIP3    H274982   0.272   5.589   2.099 -0.7503 -0.4491 -0.3701
17831TIP3   OH274983   5.922   0.372  13.508  0.0440  0.1536  0.5106
17831TIP3    H174984   5.948   0.376  13.600  1.2082 -1.1603  0.2658
17831TIP3    H274985   5.939   0.461  13.475  0.1874  0.4728  1.4104
17832TIP3   OH274986   0.701   5.620   4.126 -0.5627 -0.1975  0.2295
17832TIP3    H174987   0.777   5.643   4.074 -1.4168  0.8011 -0.6240
17832TIP3    H274988   0.737   5.581   4.206  0.8391  0.7453  0.0862
17833TIP3   OH274989   4.356   6.749   0.652  0.6401 -0.0066  0.2226
17833TIP3    H174990   4.368   6.808   0.727 -0.0861 -0.6294  0.8454
17833TIP3    H274991   4.443   6.742   0.613  1.2487 -0.4212  1.5826
17834TIP3   OH274992   0.450   1.474  14.682 -0.7473  0.1876  0.0155
17834TIP3    H174993   0.428   1.487  14.775  1.2570  0.1902  0.5220
17834TIP3    H274994   0.426   1.557  14.640  3.9931  2.8087  1.7031
17835TIP3   OH274995   2.867   4.598   5.270 -0.3561  0.8490 -0.2504
17835TIP3    H174996   2.788   4.552   5.241 -0.5942  0.4127  1.0285
17835TIP3    H274997   2.906   4.631   5.189  0.4717 -2.6026 -1.4489
17836TIP3   OH274998   5.760   4.048  16.722 -0.0452 -0.1455 -0.2998
17836TIP3    H174999   5.746   4.114  16.655  0.8393  0.1144 -0.2291
17836TIP3    H275000   5.675   4.040  16.766 -0.1363  1.0207 -0.2353
17837TIP3   OH275001   2.504   6.640  14.632  0.1063  0.7384  0.2411
17837TIP3    H175002   2.482   6.670  14.720  0.3222  1.0169  0.1992
17837TIP3    H275003   2.449   6.562  14.619 -1.3515  1.7713 -0.0940
17838TIP3   OH275004   6.574   5.412  12.340  0.5191 -0.2906  0.0891
17838TIP3    H175005   6.504   5.370  12.290  1.3740 -1.0552 -0.4952
17838TIP3    H275006   6.544   5.408  12.431 -0.2428 -0.5086 -0.1642
17839TIP3   OH275007   2.502   4.278   7.978 -0.0533 -0.5380  0.1047
17839TIP3    H175008   2.499   4.347   8.044  2.4273 -0.9713  0.7951
17839TIP3    H275009   2.478   4.198   8.025  0.4698 -0.6454  0.2044
17840TIP3   OH275010   0.974   3.807   3.561  0.0769 -0.2347 -0.2000
17840TIP3    H175011   1.028   3.818   3.639  0.9317 -0.5172 -0.7413
17840TIP3    H275012   0.963   3.713   3.551 -1.1045 -0.1638  0.2892
17841TIP3   OH275013   3.145   1.973  12.790  0.1072  0.1684 -0.4082
17841TIP3    H175014   3.239   1.976  12.807 -0.2388 -0.0476  1.9314
17841TIP3    H275015   3.135   1.912  12.717  1.6294 -1.7236  0.8732
17842TIP3   OH275016   1.534   3.598   6.055 -0.0021 -0.2441 -0.2076
17842TIP3    H175017   1.522   3.668   5.991 -0.2828 -1.4516 -1.5460
17842TIP3    H275018   1.498   3.520   6.012  2.2132 -1.6757  0.3232
17843TIP3   OH275019   4.844   6.453   1.633  0.3226 -0.2692 -0.3190
17843TIP3    H175020   4.932   6.442   1.667  0.3189  1.7628  0.4240
17843TIP3    H275021   4.850   6.525   1.570 -0.9264  0.4133  0.2962
17844TIP3   OH275022   6.501   4.499   3.632 -0.2750  0.3178 -0.1989
17844TIP3    H175023   6.502   4.568   3.698 -0.2442  0.4479 -0.3374
17844TIP3    H275024   6.571   4.439   3.660 -0.6510  0.0628  0.2162
17845TIP3   OH275025   6.677   2.576  16.000 -0.8164  0.0160 -0.0186
17845TIP3    H175026   6.752   2.558  16.057 -0.7272  1.6958  0.4524
17845TIP3    H275027   6.606   2.600  16.060 -0.8878  1.2264 -0.5524
17846TIP3   OH275028   3.951   6.343  16.413 -0.3135 -0.1778  0.2847
17846TIP3    H175029   3.921   6.282  16.346 -0.2245  0.6670 -0.5388
17846TIP3    H275030   3.926   6.430  16.381  1.4764  0.4208  0.3567
17847TIP3   OH275031   1.035   1.979   0.619  0.1940 -0.3336  0.5604
17847TIP3    H175032   1.127   2.004   0.628 -0.2224  0.8499  1.8872
17847TIP3    H275033   1.024   1.906   0.681  0.6866 -1.9035 -1.1097
17848TIP3   OH275034   1.351   4.615  14.708 -0.3247  0.1850 -0.2907
17848TIP3    H175035   1.411   4.547  14.740  0.6324  1.0813 -0.1442
17848TIP3    H275036   1.265   4.587  14.739  0.0442 -1.0018 -0.3025
17849TIP3   OH275037   2.876   1.783  13.626 -0.1365 -0.2104  0.4158
17849TIP3    H175038   2.955   1.832  13.604 -0.4029 -0.6623 -1.7811
17849TIP3    H275039   2.896   1.742  13.710  1.3009  1.0314  0.7265
17850TIP3   OH275040   4.843   3.618  15.216  0.7611 -0.0868 -0.2897
17850TIP3    H175041   4.752   3.645  15.207  0.7725  0.1561  0.2464
17850TIP3    H275042   4.842   3.523  15.208  0.3952 -0.1262  0.1748
17851TIP3   OH275043   2.552   1.484  11.359 -0.1053 -0.3830  0.2041
17851TIP3    H175044   2.577   1.542  11.431  1.7812 -0.5564 -0.2494
17851TIP3    H275045   2.539   1.398  11.400 -0.7183 -0.1245  0.5604
17852TIP3   OH275046   4.131   4.640   4.837 -0.0387  0.1237 -0.0463
17852TIP3    H175047   4.186   4.646   4.759 -0.2191 -0.2044 -0.2002
17852TIP3    H275048   4.054   4.591   4.809 -0.5394  0.8250  0.1033
17853TIP3   OH275049   3.333   6.446   3.973  0.2056 -0.3065 -0.6961
17853TIP3    H175050   3.353   6.378   4.038  0.0430  1.8931  1.8141
17853TIP3    H275051   3.411   6.449   3.917  1.5513 -0.4812  1.0814
17854TIP3   OH275052   5.401   1.399  13.676  0.1778  0.2486  0.8005
17854TIP3    H175053   5.391   1.412  13.770 -0.9110  0.3752  0.6721
17854TIP3    H275054   5.423   1.306  13.667 -0.1274  0.1419  1.1504
17855TIP3   OH275055   1.441   5.721  10.044  0.4364  0.1381  0.2655
17855TIP3    H175056   1.525   5.680  10.025 -0.3616 -1.0051 -1.0314
17855TIP3    H275057   1.386   5.698   9.969 -1.3207 -0.0024  1.5276
17856TIP3   OH275058   3.473   3.026   3.690  0.5112 -0.7121 -0.4954
17856TIP3    H175059   3.565   3.042   3.667  0.3002 -0.1441 -0.9759
17856TIP3    H275060   3.474   3.010   3.784  0.8593  1.3446 -0.1185
17857TIP3   OH275061   5.870   4.867  14.085 -0.3021 -0.3322  0.3443
17857TIP3    H175062   5.806   4.848  14.153 -1.7803  1.5350 -0.4235
17857TIP3    H275063   5.892   4.959  14.097 -0.8260  0.1457 -1.8236
17858TIP3   OH275064   4.524   2.086   0.326  0.4917  0.5727  0.5281
17858TIP3    H175065   4.605   2.045   0.297 -0.6600 -1.0007 -0.6404
17858TIP3    H275066   4.531   2.087   0.422  1.4094 -0.5547  0.4932
17859TIP3   OH275067   0.222   6.119  11.772 -0.3295  0.3167  0.2811
17859TIP3    H175068   0.260   6.036  11.797  2.1148  1.1046 -0.5239
17859TIP3    H275069   0.155   6.136  11.838 -0.5431 -2.0035  0.7408
17860TIP3   OH275070   4.906   1.170   3.310  0.0581  0.1499 -0.2181
17860TIP3    H175071   4.894   1.265   3.319 -0.3123 -0.0022  1.1129
17860TIP3    H275072   4.818   1.135   3.307  0.0758 -0.3662  2.3910
17861TIP3   OH275073   5.461   6.753   3.833 -0.0666  0.0765 -0.2152
17861TIP3    H175074   5.548   6.722   3.858  0.5805  1.9213  0.0377
17861TIP3    H275075   5.477   6.841   3.798 -1.6298 -0.2447 -1.8573
17862TIP3   OH275076   0.479   5.127   1.068 -0.0532 -0.0694  0.1073
17862TIP3    H175077   0.419   5.111   1.141  0.0092  1.9239  0.6453
17862TIP3    H275078   0.499   5.039   1.034 -1.1384 -0.9519  1.6209
17863TIP3   OH275079   5.618   5.579   4.525 -0.0646  0.8343 -0.5872
17863TIP3    H175080   5.708   5.599   4.550 -0.1061  0.0941  0.2105
17863TIP3    H275081   5.571   5.661   4.537  0.3369  1.0081 -0.1761
17864TIP3   OH275082   4.343   5.747   4.575 -0.0390  0.3720  0.6581
17864TIP3    H175083   4.288   5.674   4.546 -0.9445  0.8327  1.1620
17864TIP3    H275084   4.390   5.774   4.497  0.0527 -0.5392  0.3907
17865TIP3   OH275085   4.462   6.133   0.398  0.0834  0.4803  0.2085
17865TIP3    H175086   4.438   6.044   0.426  1.0911  0.3068  0.5653
17865TIP3    H275087   4.451   6.131   0.303 -2.3077  0.7441  0.4314
17866TIP3   OH275088   3.574   1.721  16.420 -0.1767 -0.0542 -0.0022
17866TIP3    H175089   3.637   1.658  16.385  0.0872 -0.4185  1.0825
17866TIP3    H275090   3.518   1.742  16.346  0.3372 -0.8241 -0.6300
17867TIP3   OH275091   4.177   1.586  13.934  1.0061  0.2395  0.2799
17867TIP3    H175092   4.190   1.536  13.853 -0.0634  0.7239 -0.2096
17867TIP3    H275093   4.261   1.631  13.947  1.0442  0.5310 -0.8353
17868TIP3   OH275094   4.453   5.937  13.403 -0.4180 -0.3398 -0.2103
17868TIP3    H175095   4.528   5.883  13.378  0.7233  0.9104  0.3569
17868TIP3    H275096   4.460   5.944  13.498  0.0180  1.5239 -0.3411
17869TIP3   OH275097   6.016   2.018   2.976 -0.0955  0.0650 -0.5875
17869TIP3    H175098   5.961   2.074   3.031 -2.8261 -0.8840 -2.1521
17869TIP3    H275099   6.061   2.078   2.917 -0.2693  0.8177  0.0383
17870TIP3   OH275100   0.222   3.845   4.518  0.2598 -0.1107 -0.3825
17870TIP3    H175101   0.297   3.786   4.509 -0.4435 -1.0884  0.0139
17870TIP3    H275102   0.151   3.789   4.547 -0.9219  0.5995 -1.8044
17871TIP3   OH275103   5.409   3.620   6.077  0.6622 -0.3274 -0.2976
17871TIP3    H175104   5.344   3.667   6.025  0.7371  0.6523  0.4518
17871TIP3    H275105   5.359   3.579   6.147  0.7966  0.1744  0.1034
17872TIP3   OH275106   5.392   4.245   0.890  0.0991 -0.0555  0.4358
17872TIP3    H175107   5.323   4.205   0.944  0.1862 -2.2118 -0.9172
17872TIP3    H275108   5.455   4.279   0.953 -1.9963  1.7432  1.7306
17873TIP3   OH275109   3.080   3.789  14.015  0.6337 -0.0687 -0.1159
17873TIP3    H175110   3.030   3.870  14.026  0.3719  0.0777 -1.9198
17873TIP3    H275111   3.092   3.755  14.103 -2.4287  0.0276  0.4446
17874TIP3   OH275112   6.751   0.657  10.174  0.6112 -0.2676  0.6654
17874TIP3    H175113   6.662   0.672  10.204 -0.2636 -2.1715 -0.8077
17874TIP3    H275114   6.743   0.638  10.081  2.6495  0.2221  0.3316
17875TIP3   OH275115   1.641   1.932  11.237 -0.1933 -0.1032  0.4703
17875TIP3    H175116   1.655   1.846  11.275  0.0278 -0.6608 -0.8103
17875TIP3    H275117   1.709   1.940  11.169 -2.0788 -0.2388 -1.5634
17876TIP3   OH275118   1.823   5.167   2.409  0.6081  0.3723 -0.0652
17876TIP3    H175119   1.799   5.155   2.317  2.0499 -1.7656 -0.2486
17876TIP3    H275120   1.870   5.250   2.411  2.1641 -0.4035 -1.6762
17877TIP3   OH275121   1.945   2.286  14.138  0.6764  0.1974  0.4020
17877TIP3    H175122   1.947   2.204  14.186  2.7874  0.1941  0.3607
17877TIP3    H275123   1.925   2.352  14.204 -1.1968 -0.2976  0.4082
17878TIP3   OH275124   0.556   3.672  14.510  0.3158  0.2616 -0.2238
17878TIP3    H175125   0.605   3.597  14.475  1.4998  1.7163 -1.8807
17878TIP3    H275126   0.611   3.706  14.581 -1.0202 -1.3463  1.6996
17879TIP3   OH275127   0.476   5.590   0.694 -0.2131 -0.0508  0.3932
17879TIP3    H175128   0.415   5.585   0.621 -1.6296 -2.2982  1.6104
17879TIP3    H275129   0.460   5.675   0.734 -0.2654  0.6952 -1.1602
17880TIP3   OH275130   6.122   3.480  12.713  0.1459  0.4017  0.5174
17880TIP3    H175131   6.034   3.491  12.749  0.2467 -0.5930  1.1007
17880TIP3    H275132   6.179   3.475  12.790  0.5312 -0.3761  0.1928
17881TIP3   OH275133   0.933   1.703  14.541 -0.5637 -0.1776  0.6202
17881TIP3    H175134   1.000   1.736  14.481  1.2908  0.2168  2.8017
17881TIP3    H275135   0.958   1.612  14.558 -1.5884 -0.5623  0.1488
17882TIP3   OH275136   3.651   1.092  14.391 -0.0741 -0.2739 -0.4531
17882TIP3    H175137   3.639   1.186  14.406  3.2598  0.1958 -0.0270
17882TIP3    H275138   3.573   1.052  14.430 -1.4101  2.2539 -0.2953
17883TIP3   OH275139   1.075   3.690  11.032  0.1916  0.0447  0.5676
17883TIP3    H175140   1.022   3.634  11.088 -1.0181  0.5665 -0.0177
17883TIP3    H275141   1.052   3.779  11.059 -0.4688  0.3034 -0.8006
17884TIP3   OH275142   1.805   5.590  16.175  0.5511 -0.2298  0.1997
17884TIP3    H175143   1.770   5.659  16.231  3.1337  1.2390  0.1566
17884TIP3    H275144   1.778   5.615  16.086  0.2030 -0.1154  0.3363
17885TIP3   OH275145   2.205   3.059   1.908  0.1469 -0.3849  0.2191
17885TIP3    H175146   2.225   3.005   1.832 -2.4048  1.0354 -1.6098
17885TIP3    H275147   2.287   3.062   1.958  1.5987 -2.2529 -1.8869
17886TIP3   OH275148   5.401   0.777  13.698 -0.3316 -0.1245  0.2702
17886TIP3    H175149   5.349   0.711  13.653 -0.4961  0.1172  0.1040
17886TIP3    H275150   5.368   0.860  13.665 -0.3162  0.0514  0.6857
17887TIP3   OH275151   4.758   5.317  11.862  0.2879 -0.4327 -0.0894
17887TIP3    H175152   4.696   5.267  11.809  1.0431 -2.2047  0.6015
17887TIP3    H275153   4.760   5.404  11.822 -0.5011 -1.1842 -1.8581
17888TIP3   OH275154   2.260   2.925   5.478 -0.3293  0.1396 -0.2999
17888TIP3    H175155   2.243   2.894   5.567  1.9399 -1.1251 -0.2182
17888TIP3    H275156   2.218   3.011   5.474 -3.1786 -1.0936  0.9003
17889TIP3   OH275157   0.282   1.737   4.980 -0.4847 -0.2792 -0.1211
17889TIP3    H175158   0.188   1.729   4.995 -0.6308  0.7886 -0.3806
17889TIP3    H275159   0.302   1.828   5.002  0.7729 -0.8812  1.4563
17890TIP3   OH275160   0.341   2.670   3.322  0.1824  0.0448 -0.3647
17890TIP3    H175161   0.294   2.754   3.325  0.6308  0.2839  1.5049
17890TIP3    H275162   0.345   2.648   3.229 -1.6856  1.0976 -0.7494
17891TIP3   OH275163   5.924   1.866  15.834  0.0032 -0.8335  0.3680
17891TIP3    H175164   5.850   1.842  15.889 -2.3301 -2.3537 -3.0345
17891TIP3    H275165   5.935   1.791  15.775  1.1081  1.2885 -2.3325
17892TIP3   OH275166   6.638   3.849  10.073 -0.6349  0.2354 -0.0025
17892TIP3    H175167   6.691   3.770  10.065  0.8986  1.1141  0.9231
17892TIP3    H275168   6.673   3.894  10.150 -1.9025  1.4888 -0.1117
17893TIP3   OH275169   2.765   4.493   1.773  0.2885  0.5811 -0.1452
17893TIP3    H175170   2.794   4.566   1.719  0.9281  0.4093 -0.0452
17893TIP3    H275171   2.806   4.509   1.858 -0.1667  0.4928  0.0973
17894TIP3   OH275172   0.162   0.732  10.575  0.5037  0.6409 -0.1872
17894TIP3    H175173   0.125   0.672  10.639  0.3986  2.5167  1.5894
17894TIP3    H275174   0.232   0.682  10.532 -0.1994 -1.0231  0.5419
17895TIP3   OH275175   4.534   0.337  13.417  0.1325 -0.2885  0.1516
17895TIP3    H175176   4.551   0.382  13.335  3.0616  0.4422  1.0510
17895TIP3    H275177   4.589   0.259  13.413  1.5320  0.5487  2.0026
17896TIP3   OH275178   0.403   2.355   5.679 -0.4210  0.4793  0.0773
17896TIP3    H175179   0.433   2.443   5.699 -1.6057  0.5168  1.9345
17896TIP3    H275180   0.482   2.301   5.682 -0.0623  1.0238  1.9911
17897TIP3   OH275181   6.374   6.152  14.830 -0.2543  0.6166  0.0422
17897TIP3    H175182   6.438   6.223  14.832 -1.2805  1.5432  1.3937
17897TIP3    H275183   6.290   6.196  14.815 -0.5569 -0.6315 -2.3581
17898TIP3   OH275184   4.239   2.977   1.196  0.4363 -0.0544  0.3879
17898TIP3    H175185   4.261   2.964   1.103  1.7574  2.3483  0.2821
17898TIP3    H275186   4.211   2.891   1.226  1.4273 -1.2519 -1.8607
17899TIP3   OH275187   0.799   6.889  10.449 -0.3898  0.2027  0.3135
17899TIP3    H175188   0.767   6.819  10.392  2.8262  0.1732 -1.6646
17899TIP3    H275189   0.807   6.965  10.391 -2.0725  1.8029  2.0155
17900TIP3   OH275190   5.085   0.859  11.476  0.0635 -0.0628  0.3121
17900TIP3    H175191   5.101   0.953  11.474 -1.0996  0.1600  0.8890
17900TIP3    H275192   5.065   0.840  11.568  2.7356 -1.3297  0.7420
17901TIP3   OH275193   3.977   4.874   4.428 -0.0803 -0.2680 -0.0227
17901TIP3    H175194   4.016   4.823   4.357  1.4968 -2.1414  2.0455
17901TIP3    H275195   4.003   4.964   4.409 -0.6272 -0.5200 -2.3357
17902TIP3   OH275196   2.801   4.790  13.659  0.8470 -0.3242  0.2861
17902TIP3    H175197   2.743   4.867  13.657  0.0886 -0.8746 -1.0891
17902TIP3    H275198   2.870   4.813  13.720  0.0524  1.0244  0.7283
17903TIP3   OH275199   6.488   2.653  11.006 -0.2887  0.3232  0.1450
17903TIP3    H175200   6.394   2.653  10.992 -0.2670 -0.7909 -0.1046
17903TIP3    H275201   6.500   2.626  11.097 -0.2133  0.7992  0.2803
17904TIP3   OH275202   3.267   5.662   2.697 -0.3447  0.5036 -0.2366
17904TIP3    H175203   3.274   5.569   2.678 -0.1188  0.2873  0.8214
17904TIP3    H275204   3.273   5.668   2.793  0.3109  1.6510 -0.3201
17905TIP3   OH275205   4.053   2.647   5.627 -0.6804 -0.0969  0.2849
17905TIP3    H175206   3.971   2.662   5.580 -1.7523 -2.1802  1.3576
17905TIP3    H275207   4.071   2.554   5.615  2.2507  0.5199 -0.9567
17906TIP3   OH275208   2.844   3.734  11.673  0.2248  0.3507 -0.0676
17906TIP3    H175209   2.830   3.709  11.582 -2.2860 -1.4028  0.7088
17906TIP3    H275210   2.889   3.660  11.713  0.0902  0.5290  0.4339
17907TIP3   OH275211   1.881   3.742  14.041  0.1253  0.1388 -0.1011
17907TIP3    H175212   1.883   3.788  14.125  0.2637  1.4740 -0.8066
17907TIP3    H275213   1.923   3.802  13.980  1.7462 -1.5890 -0.7741
17908TIP3   OH275214   0.854   3.061   4.391 -0.1191 -0.5368  0.0747
17908TIP3    H175215   0.911   3.136   4.375 -0.0422 -0.5981  0.0548
17908TIP3    H275216   0.889   2.992   4.334 -1.3505 -0.0248 -1.3809
17909TIP3   OH275217   1.510   0.329  16.553  0.3786 -0.0772 -0.0858
17909TIP3    H175218   1.561   0.410  16.544 -1.4584  1.2138  0.5933
17909TIP3    H275219   1.493   0.302  16.463  2.7512 -0.9242 -0.3507
17910TIP3   OH275220   1.258   1.472   2.111  0.5358  0.2743  0.2865
17910TIP3    H175221   1.185   1.532   2.095  1.4945  1.3160 -0.3214
17910TIP3    H275222   1.334   1.515   2.071  1.1059 -1.7575 -0.9788
17911TIP3   OH275223   3.527   5.612  14.245 -0.4792 -0.3411 -0.1737
17911TIP3    H175224   3.573   5.529  14.231 -0.4352  0.0074 -2.5495
17911TIP3    H275225   3.552   5.666  14.170  0.5796  2.3830  1.9841
17912TIP3   OH275226   2.044   6.824   3.360  0.4558 -0.2177  0.4885
17912TIP3    H175227   2.135   6.844   3.381 -0.2404  2.1383  1.7187
17912TIP3    H275228   2.026   6.874   3.280  0.0239  0.0605  0.7522
17913TIP3   OH275229   3.612   2.693  11.270  0.3353  0.4024  0.3864
17913TIP3    H175230   3.661   2.775  11.265 -0.0030  0.8017  2.5340
17913TIP3    H275231   3.521   2.719  11.260  0.3249  0.0737 -0.4345
17914TIP3   OH275232   3.618   5.892   4.944 -0.4313  0.0610  0.1952
17914TIP3    H175233   3.544   5.886   5.003  0.8658  1.0714  2.0174
17914TIP3    H275234   3.663   5.972   4.969 -0.7804  1.5733 -3.3925
17915TIP3   OH275235   0.572   0.643  14.054  0.4590 -0.1363 -0.0685
17915TIP3    H175236   0.573   0.621  14.148  0.9875 -0.0600 -0.0574
17915TIP3    H275237   0.491   0.603  14.022  1.9057 -3.1841 -0.3034
17916TIP3   OH275238   2.718   5.167   0.947  0.1945  0.2285 -0.2796
17916TIP3    H175239   2.714   5.091   1.005  2.1543 -0.0855 -0.4969
17916TIP3    H275240   2.778   5.141   0.877 -0.6555  1.2837 -1.4348
17917TIP3   OH275241   2.573   0.071   9.878 -0.0911  0.4793 -0.2281
17917TIP3    H175242   2.603   0.003   9.939 -0.6516  0.8831  0.5166
17917TIP3    H275243   2.493   0.035   9.840  1.4569 -0.7763 -2.5268
17918TIP3   OH275244   0.600   3.341  14.103 -0.4785  0.2085 -0.2729
17918TIP3    H175245   0.672   3.346  14.041  0.6589  0.5743  1.0414
17918TIP3    H275246   0.634   3.291  14.177 -1.6200  0.2637  0.3203
17919TIP3   OH275247   2.058   1.995   1.303  0.8063 -0.1968 -0.3915
17919TIP3    H175248   2.011   2.003   1.221  1.1506  0.3146 -0.5405
17919TIP3    H275249   2.016   2.058   1.362  0.9539 -0.1254 -0.3622
17920TIP3   OH275250   1.228   3.298   1.704  0.7196 -0.7294  0.1590
17920TIP3    H175251   1.298   3.363   1.702  0.3557 -0.3338  0.1533
17920TIP3    H275252   1.262   3.228   1.760  0.8114 -0.1800  0.8035
17921TIP3   OH275253   4.153   0.624  12.261 -0.0237 -0.6018 -0.0277
17921TIP3    H175254   4.161   0.529  12.268 -2.3059 -0.7878  0.7172
17921TIP3    H275255   4.114   0.638  12.174 -0.2053 -0.3960  0.0850
17922TIP3   OH275256   0.416   5.988  15.795  0.1930 -0.0571 -0.2626
17922TIP3    H175257   0.475   6.026  15.731  1.6481 -2.3204 -0.3784
17922TIP3    H275258   0.445   5.897  15.804 -2.8650 -1.1097  0.1996
17923TIP3   OH275259   0.412   3.345   0.101 -0.4270  0.0397 -0.0354
17923TIP3    H175260   0.452   3.330   0.187 -2.8588 -0.9854  1.0125
17923TIP3    H275261   0.332   3.293   0.103 -1.3159  1.1837 -2.3848
17924TIP3   OH275262   1.032   3.982   0.349  0.0503  0.2166  0.1829
17924TIP3    H175263   1.002   3.895   0.324  0.3286  0.2471 -0.2715
17924TIP3    H275264   0.968   4.013   0.413  1.1856 -1.2679  2.1626
17925TIP3   OH275265   1.021   3.543   0.696 -0.1740 -0.0798  0.4305
17925TIP3    H175266   1.074   3.573   0.622 -0.1095 -0.0243  0.4992
17925TIP3    H275267   1.003   3.622   0.747 -1.8566  0.1957 -0.5596
17926TIP3   OH275268   6.329   4.419  12.373 -0.2278  0.2450 -0.4099
17926TIP3    H175269   6.245   4.454  12.401  0.0581  2.9968 -2.5404
17926TIP3    H275270   6.316   4.396  12.281  0.5506 -2.3040  0.0526
17927TIP3   OH275271   1.249   2.875  15.202 -0.2699 -0.4005  0.0808
17927TIP3    H175272   1.333   2.831  15.189  0.0242  0.0930  0.2689
17927TIP3    H275273   1.184   2.808  15.183  0.1653 -0.7704 -0.1372
17928TIP3   OH275274   4.291   4.377   0.718 -0.0476 -0.3761 -0.4119
17928TIP3    H175275   4.359   4.444   0.712  0.0510 -0.4446 -0.1053
17928TIP3    H275276   4.209   4.425   0.710  0.0258 -0.2286 -0.2908
17929TIP3   OH275277   3.430   2.573   4.658 -0.0558  0.1374  0.0159
17929TIP3    H175278   3.494   2.541   4.595 -1.4200  0.0178 -1.3679
17929TIP3    H275279   3.427   2.668   4.644 -1.9816 -0.0993 -1.8131
17930TIP3   OH275280   0.445   0.318  13.527 -0.2286 -0.2619 -0.2951
17930TIP3    H175281   0.361   0.317  13.481  0.1254  0.9856 -0.9976
17930TIP3    H275282   0.451   0.231  13.567 -1.5266 -0.6142 -0.8200
17931TIP3   OH275283   2.910   1.585   1.125  0.0530 -0.3474 -0.1230
17931TIP3    H175284   2.977   1.570   1.192 -1.9252 -1.7059  1.7021
17931TIP3    H275285   2.871   1.669   1.148  0.0141 -0.3556 -0.1599
17932TIP3   OH275286   4.266   1.427  13.203  0.1596  0.2902  0.0274
17932TIP3    H175287   4.286   1.357  13.141  0.1650  0.3829 -0.0760
17932TIP3    H275288   4.346   1.437  13.254 -0.1307 -0.3892  0.6426
17933TIP3   OH275289   4.339   3.309  14.374  0.1263  0.4730 -0.5477
17933TIP3    H175290   4.301   3.393  14.348 -1.6402 -0.1290 -0.0646
17933TIP3    H275291   4.409   3.294  14.311 -1.1224  1.1599 -2.1886
17934TIP3   OH275292   5.815   3.580  10.565 -0.0042 -0.3725  0.0463
17934TIP3    H175293   5.748   3.646  10.582  0.5698 -0.1090  1.4713
17934TIP3    H275294   5.766   3.499  10.551 -0.6441 -0.4769  2.4557
17935TIP3   OH275295   4.275   5.222   5.669 -0.4812 -0.3754 -0.4486
17935TIP3    H175296   4.329   5.297   5.694  0.1133 -0.4179 -1.5762
17935TIP3    H275297   4.198   5.229   5.726 -0.3979  1.0264 -0.4646
17936TIP3   OH275298   5.425   2.845  16.319 -0.3093 -0.1328  0.6441
17936TIP3    H175299   5.337   2.814  16.299 -0.1801 -1.2566  1.6785
17936TIP3    H275300   5.469   2.846  16.234 -0.3495 -2.8694  0.4846
17937TIP3   OH275301   1.802   2.016  13.089 -0.1022  0.0609  0.5401
17937TIP3    H175302   1.895   1.996  13.093 -0.1510  0.0253  2.0956
17937TIP3    H275303   1.765   1.948  13.032  0.3548 -1.9129  2.4536
17938TIP3   OH275304   0.550   2.205   1.261  0.0219  0.8739 -0.5115
17938TIP3    H175305   0.478   2.265   1.279 -0.8190  0.2436 -1.5992
17938TIP3    H275306   0.549   2.196   1.165  1.8917  1.2525 -0.6055
17939TIP3   OH275307   5.100   6.582  16.851  0.4413 -1.1808  0.5376
17939TIP3    H175308   5.083   6.618  16.938  0.6945 -0.4945  0.3152
17939TIP3    H275309   5.160   6.646  16.810 -0.6110 -0.8647 -0.5654
17940TIP3   OH275310   1.927   0.176   3.448 -0.6829 -0.6067  0.1333
17940TIP3    H175311   1.965   0.240   3.389 -1.6481  2.4248  2.5306
17940TIP3    H275312   1.970   0.093   3.426  0.9825  0.9062 -2.8241
17941TIP3   OH275313   0.997   2.022  16.852  0.3658  0.2564 -0.1428
17941TIP3    H175314   0.997   1.995  16.944  0.5589 -0.2512 -0.2847
17941TIP3    H275315   1.081   1.991  16.818  0.1632  0.1630 -0.5697
17942TIP3   OH275316   1.710   1.430   3.044 -0.1196 -0.9097  0.0625
17942TIP3    H175317   1.642   1.431   2.976  0.3140 -0.1809 -0.3667
17942TIP3    H275318   1.778   1.488   3.011  0.2967 -0.8957  0.9245
17943TIP3   OH275319   2.822   5.123   4.998 -0.0801  0.6106  0.4372
17943TIP3    H175320   2.905   5.160   5.029  0.0155  0.0066  0.9384
17943TIP3    H275321   2.772   5.198   4.966  0.4713  1.0432  0.5787
17944TIP3   OH275322   6.638   1.185   5.547  0.4401  0.0124  0.4052
17944TIP3    H175323   6.728   1.185   5.514  0.2674  0.4340 -0.0726
17944TIP3    H275324   6.618   1.093   5.561  0.6345 -0.1449 -0.3431
17945TIP3   OH275325   1.095   1.082   1.496 -0.1320 -0.3534 -0.0463
17945TIP3    H175326   1.139   1.155   1.541 -1.4561  0.1690  0.4484
17945TIP3    H275327   1.026   1.124   1.444 -1.1383 -1.2616  0.5239
17946TIP3   OH275328   4.774   5.682  11.359 -0.3557  0.0358 -0.0023
17946TIP3    H175329   4.720   5.754  11.327  0.0766  0.5800  0.4810
17946TIP3    H275330   4.749   5.607  11.304 -1.5848  0.2772  0.1973
17947TIP3   OH275331   0.450   0.649  10.661 -0.2283 -0.2484  0.8700
17947TIP3    H175332   0.407   0.603  10.589  0.0520  0.1800  0.4200
17947TIP3    H275333   0.486   0.728  10.620  2.8399 -1.5605  0.7661
17948TIP3   OH275334   4.829   2.755   3.329 -0.1005 -0.0152 -0.0385
17948TIP3    H175335   4.897   2.771   3.264 -1.2989 -0.2066 -1.3804
17948TIP3    H275336   4.817   2.840   3.371  0.3023  0.2488 -0.4442
17949TIP3   OH275337   1.641   5.523   2.950 -0.3892 -0.2642 -0.2990
17949TIP3    H175338   1.650   5.450   2.889 -2.0949 -0.1652 -0.7337
17949TIP3    H275339   1.575   5.580   2.909 -0.3983  0.6144  0.8775
17950TIP3   OH275340   5.194   4.594   3.397  0.5267  0.0723 -0.4153
17950TIP3    H175341   5.201   4.688   3.377 -1.4003  0.6687  1.2803
17950TIP3    H275342   5.243   4.584   3.479 -2.7364  0.5942  1.7618
17951TIP3   OH275343   5.446   3.323   6.107  0.2052  0.3840 -0.3226
17951TIP3    H175344   5.441   3.416   6.127  0.2229 -0.0005  1.6433
17951TIP3    H275345   5.386   3.281   6.169  0.8436 -0.9841 -0.5822
17952TIP3   OH275346   1.576   6.271   0.592  0.1327  0.0668  0.3016
17952TIP3    H175347   1.573   6.246   0.500  0.2973  1.5058 -0.1197
17952TIP3    H275348   1.667   6.297   0.607 -0.0910  0.6847  0.6325
17953TIP3   OH275349   0.882   2.078   5.505 -0.8442 -0.0430 -0.1032
17953TIP3    H175350   0.867   2.171   5.491 -1.3898 -0.6318 -5.4683
17953TIP3    H275351   0.919   2.047   5.423  1.8427 -4.2218  2.3146
17954TIP3   OH275352   2.736   4.040  14.752  0.2993  0.0593 -0.1239
17954TIP3    H175353   2.643   4.016  14.746  0.2904  0.0024  0.2204
17954TIP3    H275354   2.739   4.131  14.722 -0.0329  0.4214  0.9124
17955TIP3   OH275355   6.326   0.938  12.759 -0.3674  0.3092  0.4984
17955TIP3    H175356   6.382   0.954  12.834  0.5379 -1.2975  0.2035
17955TIP3    H275357   6.386   0.935  12.684 -1.2031  1.4582 -0.2612
17956TIP3   OH275358   4.035   3.231   0.037 -0.2997 -0.2329 -0.7126
17956TIP3    H175359   3.956   3.234   0.091  0.9668 -1.8756  1.3661
17956TIP3    H275360   4.033   3.312  -0.013 -1.7001  1.3014  1.6503
17957TIP3   OH275361   4.528   1.710  15.579  0.1927 -0.3482 -0.2206
17957TIP3    H175362   4.563   1.622  15.567 -0.2028 -0.5806  0.3033
17957TIP3    H275363   4.446   1.697  15.626 -0.6657  0.1660 -1.5114
17958TIP3   OH275364   5.114   1.847   1.774 -0.8849  0.0352 -0.1882
17958TIP3    H175365   5.107   1.763   1.730 -0.2570 -0.0204 -0.1861
17958TIP3    H275366   5.034   1.894   1.748 -0.5740 -0.0270 -1.3130
17959TIP3   OH275367   3.283   6.584  16.827 -0.1208 -0.2967 -0.5122
17959TIP3    H175368   3.236   6.505  16.852  2.6243 -1.6870  0.6699
17959TIP3    H275369   3.333   6.559  16.749  1.2886  0.0089  0.2506
17960TIP3   OH275370   3.591   5.442   5.527 -0.0840  0.1183 -0.7303
17960TIP3    H175371   3.555   5.529   5.541 -0.0564  0.0913 -0.4807
17960TIP3    H275372   3.676   5.444   5.572 -0.3879 -0.2539 -0.1245
17961TIP3   OH275373   5.520   4.652  12.137  0.0349  0.1620 -0.8368
17961TIP3    H175374   5.555   4.661  12.226 -1.3285 -0.1383 -0.2583
17961TIP3    H275375   5.461   4.726  12.127 -1.6942 -1.1368 -0.5880
17962TIP3   OH275376   3.440   5.076   4.336  0.0808 -0.0131  0.2273
17962TIP3    H175377   3.425   4.996   4.386 -0.1568 -0.3769 -0.4231
17962TIP3    H275378   3.375   5.074   4.266 -0.6946  1.3266  0.8784
17963TIP3   OH275379   3.778   1.754   0.471 -0.0666  0.4731 -0.0888
17963TIP3    H175380   3.846   1.784   0.412 -0.0583  0.1300 -0.2512
17963TIP3    H275381   3.743   1.835   0.510  1.7346  0.5703  1.4570
17964TIP3   OH275382   4.776   0.884   2.025 -0.4096 -0.1342 -0.0848
17964TIP3    H175383   4.849   0.928   2.069  0.2528 -0.4809 -0.8234
17964TIP3    H275384   4.799   0.885   1.932 -2.5835  2.0921 -0.6963
17965TIP3   OH275385   3.742   2.367  11.408 -0.4728 -0.2296  0.4096
17965TIP3    H175386   3.782   2.380  11.322 -1.5984 -0.3999 -0.1597
17965TIP3    H275387   3.677   2.436  11.415 -0.8013 -0.5791  0.8729
17966TIP3   OH275388   5.507   2.126   4.851 -0.1236 -0.4353  0.3080
17966TIP3    H175389   5.564   2.139   4.775  0.9985 -0.7546  1.0714
17966TIP3    H275390   5.458   2.046   4.831 -0.5870  0.0298 -0.5036
17967TIP3   OH275391   6.030   3.062  13.426 -0.4501 -0.5561 -0.3236
17967TIP3    H175392   6.086   2.985  13.426  2.7297  1.5241  0.9740
17967TIP3    H275393   6.012   3.079  13.333  2.4511 -0.5229 -0.9790
17968TIP3   OH275394   0.563   2.648   0.649 -0.0096 -0.1576  0.2281
17968TIP3    H175395   0.486   2.593   0.636 -1.1563  1.4931 -0.2656
17968TIP3    H275396   0.608   2.647   0.564 -0.2506 -0.0021  0.0997
17969TIP3   OH275397   4.211   0.985   2.733 -0.1160  0.4686 -0.1530
17969TIP3    H175398   4.146   0.955   2.796 -0.1912 -0.7664 -0.7900
17969TIP3    H275399   4.287   0.929   2.748  0.5501  1.4012  0.0732
17970TIP3   OH275400   3.436   4.449   4.008 -0.5220 -0.7971  0.1626
17970TIP3    H175401   3.420   4.543   4.022  0.4251 -0.5201 -0.5316
17970TIP3    H275402   3.470   4.418   4.091  1.6978  0.0699 -0.3565
17971TIP3   OH275403   1.502   6.225  12.522 -0.2852  1.0638  0.6705
17971TIP3    H175404   1.486   6.316  12.497 -1.0439  1.5223  2.6329
17971TIP3    H275405   1.568   6.230  12.592  0.7492 -0.0332 -0.1698
17972TIP3   OH275406   2.468   5.258  10.313  0.0063  0.2583 -0.0044
17972TIP3    H175407   2.403   5.289  10.250 -1.7062  0.8996  1.9739
17972TIP3    H275408   2.544   5.315  10.299  0.3209 -0.6356 -2.4913
17973TIP3   OH275409   4.823   6.450   0.269 -0.5345 -0.3011  0.4941
17973TIP3    H175410   4.770   6.469   0.346 -1.0646  1.3109 -0.2322
17973TIP3    H275411   4.857   6.535   0.241  2.3167 -1.2353  0.8020
17974TIP3   OH275412   0.903   6.231   3.962  0.1762  0.8353  0.2986
17974TIP3    H175413   0.973   6.177   3.999 -0.7313 -0.1665  0.6126
17974TIP3    H275414   0.842   6.167   3.923 -0.7220  1.6645  0.3240
17975TIP3   OH275415   5.728   3.634  14.076 -0.2169  0.6248  0.2771
17975TIP3    H175416   5.709   3.684  14.156  3.0694  1.4704  0.6630
17975TIP3    H275417   5.776   3.696  14.021 -0.7897 -0.5382 -1.6003
17976TIP3   OH275418   4.915   0.853   4.613 -0.4016  0.5125 -0.4376
17976TIP3    H175419   4.847   0.860   4.546  2.0830  0.0982 -3.2049
17976TIP3    H275420   4.915   0.938   4.656 -1.6578  1.0428 -1.4092
17977TIP3   OH275421   0.281   4.088   1.703  0.1144 -0.3296 -0.0523
17977TIP3    H175422   0.244   4.019   1.758 -0.2073 -1.3144 -1.4774
17977TIP3    H275423   0.231   4.166   1.727 -0.3553 -0.8469  0.7013
17978TIP3   OH275424   3.381   3.185   2.110 -0.6260 -0.4914  0.3665
17978TIP3    H175425   3.414   3.123   2.174  1.7539  0.5484  0.2347
17978TIP3    H275426   3.399   3.271   2.147 -0.0833  0.1364 -1.2522
17979TIP3   OH275427   5.097   3.487  13.147  0.6680  0.5804  0.0726
17979TIP3    H175428   5.158   3.413  13.142 -1.8514 -1.8542  1.9824
17979TIP3    H275429   5.112   3.524  13.233  0.4916  0.9184 -0.0419
17980TIP3   OH275430   2.001   4.672  10.801  0.1597  0.2206  0.4341
17980TIP3    H175431   2.066   4.606  10.826 -0.6796 -0.9266 -0.3032
17980TIP3    H275432   1.940   4.675  10.875 -0.3250 -0.5367  0.0735
17981TIP3   OH275433   4.278   5.941   5.558  0.9974 -0.4207  0.0110
17981TIP3    H175434   4.368   5.960   5.532  0.7440  0.3938 -0.2890
17981TIP3    H275435   4.263   5.996   5.634  0.5006  0.0213 -0.4040
17982TIP3   OH275436   0.230   4.703   2.777 -0.3023 -0.1785 -0.0046
17982TIP3    H175437   0.145   4.747   2.774  0.4975  1.4233 -0.1381
17982TIP3    H275438   0.253   4.687   2.686 -0.7918 -1.3337  0.0560
17983TIP3   OH275439   1.226   0.720  12.950 -0.0490  0.0354  0.0086
17983TIP3    H175440   1.162   0.786  12.976 -0.3994 -0.1452 -0.3933
17983TIP3    H275441   1.176   0.656  12.900  0.5402  0.1428 -0.7251
17984TIP3   OH275442   6.171   5.239   3.648 -0.5213  0.5309 -0.3335
17984TIP3    H175443   6.082   5.235   3.614 -0.6668  1.4814 -0.0820
17984TIP3    H275444   6.185   5.331   3.668  0.1061  0.2276  0.7115
17985TIP3   OH275445   3.314   4.453   4.608 -0.1724 -0.6635  0.2734
17985TIP3    H175446   3.349   4.516   4.672 -0.8947 -0.4732  0.4897
17985TIP3    H275447   3.372   4.461   4.533 -0.3838  0.4474  0.2104
17986TIP3   OH275448   2.450   5.882   4.242 -0.4037 -0.0325  0.2039
17986TIP3    H175449   2.385   5.945   4.210 -0.3400  0.2734  0.6692
17986TIP3    H275450   2.467   5.825   4.167 -1.1581 -0.0741  0.0527
17987TIP3   OH275451   5.157   6.591   4.591 -0.1561  0.4038 -0.0388
17987TIP3    H175452   5.225   6.531   4.560 -0.1989  0.3359 -0.0013
17987TIP3    H275453   5.112   6.618   4.511 -0.8876 -0.5178  0.0448
17988TIP3   OH275454   5.947   0.215  13.280 -0.3619 -0.1238  0.0988
17988TIP3    H175455   5.912   0.261  13.356 -3.2288 -1.3266 -0.3327
17988TIP3    H275456   5.947   0.280  13.210 -2.2892 -0.1410  0.0251
17989TIP3   OH275457   2.977   4.488  15.475 -0.4897  0.2046  0.8696
17989TIP3    H175458   2.980   4.581  15.496 -0.4410  0.0566  1.5676
17989TIP3    H275459   2.970   4.445  15.560  1.7158 -0.5402  0.7586
17990TIP3   OH275460   4.238   5.001  15.420 -0.2425  0.4082 -0.4884
17990TIP3    H175461   4.164   5.010  15.480  0.7580 -1.6036  1.2029
17990TIP3    H275462   4.200   4.962  15.341 -1.5085  2.6691 -1.0638
17991TIP3   OH275463   6.108   3.335  13.688  0.1592  0.1393 -0.6656
17991TIP3    H175464   6.122   3.334  13.593  0.1470  1.3858 -0.7008
17991TIP3    H275465   6.186   3.295  13.724  0.6715  0.6534 -1.1672
17992TIP3   OH275466   6.521   0.919   4.042 -0.7649 -0.4542  0.2400
17992TIP3    H175467   6.574   0.840   4.030 -1.6261 -0.9676 -0.2639
17992TIP3    H275468   6.480   0.907   4.128 -0.8739 -0.5402  0.1758
17993TIP3   OH275469   6.545   1.044   2.843  0.2494  0.1184 -0.4923
17993TIP3    H175470   6.509   0.959   2.868  2.3730 -1.0954 -1.3109
17993TIP3    H275471   6.532   1.099   2.920 -0.3232 -1.2239  0.4050
17994TIP3   OH275472   0.418   4.621  13.455  0.2646  0.0310  0.1671
17994TIP3    H175473   0.383   4.662  13.535 -1.0456 -0.1296 -0.2941
17994TIP3    H275474   0.378   4.671  13.384 -0.9532 -1.6859 -0.4031
17995TIP3   OH275475   2.315   2.000   3.961 -0.4844  0.1532  0.1092
17995TIP3    H175476   2.380   1.931   3.970  1.2465  1.5215 -1.1694
17995TIP3    H275477   2.340   2.047   3.881 -1.0449  2.7850  1.3456
17996TIP3   OH275478   4.742   2.290   1.457  0.7043 -0.1826  0.5336
17996TIP3    H175479   4.706   2.215   1.410  2.5950 -1.9193  1.7093
17996TIP3    H275480   4.678   2.360   1.443  0.5251 -0.9225 -3.4634
17997TIP3   OH275481   1.803   6.258   2.849 -0.3467  0.3083  0.0646
17997TIP3    H175482   1.743   6.280   2.778  0.1739  0.5766 -0.2947
17997TIP3    H275483   1.784   6.166   2.869 -1.4888  0.6318  0.5581
17998TIP3   OH275484   3.419   3.844   4.183  0.5025  0.0755  0.0951
17998TIP3    H175485   3.384   3.822   4.097  1.4593 -1.5668  0.0824
17998TIP3    H275486   3.504   3.800   4.186  1.0217  1.1054  1.4251
17999TIP3   OH275487   2.058   2.978   3.239  0.3060 -0.3913 -0.6806
17999TIP3    H175488   2.051   2.901   3.183  0.1212 -1.2161  0.4231
17999TIP3    H275489   1.971   3.018   3.235 -0.1808 -1.2899  0.1292
18000TIP3   OH275490   6.817   6.865   4.799 -0.0614  0.2913  0.2868
18000TIP3    H175491   6.759   6.880   4.724 -1.0897  0.3404  1.0796
18000TIP3    H275492   6.800   6.774   4.825  0.7629  0.0659  0.0783
18001TIP3   OH275493   6.564   3.785   2.364  0.0006 -0.0256 -0.4962
18001TIP3    H175494   6.485   3.824   2.400  0.2221 -0.2801  0.2793
18001TIP3    H275495   6.598   3.852   2.304 -1.3136 -0.3012 -1.6132
18002TIP3   OH275496   2.934   6.342   1.502 -0.7885 -0.6240 -0.4537
18002TIP3    H175497   2.879   6.409   1.543  1.3816  0.8158  0.2987
18002TIP3    H275498   2.917   6.263   1.553  0.0467  0.5513  1.8027
18003TIP3   OH275499   5.102   1.885  15.700  0.4136  0.7210 -0.1356
18003TIP3    H175500   5.164   1.843  15.760  0.4121  0.8397 -0.0505
18003TIP3    H275501   5.075   1.965  15.746 -0.9325 -0.0602  0.4786
18004TIP3   OH275502   2.742   4.170   7.897  0.0491  0.0507  0.0251
18004TIP3    H175503   2.794   4.195   7.973 -0.5566  0.0971  0.4327
18004TIP3    H275504   2.658   4.216   7.909 -0.7208 -1.3688  0.2870
18005TIP3   OH275505   4.847   2.198   3.605  0.0965  0.1963 -0.2414
18005TIP3    H175506   4.840   2.280   3.557  1.4175  0.3440 -0.2281
18005TIP3    H275507   4.941   2.189   3.623  0.0312 -1.5064 -0.5923
18006TIP3   OH275508   1.358   3.201  13.527 -0.2701  0.2025 -0.1182
18006TIP3    H175509   1.331   3.259  13.456  2.2355  2.5862  0.6692
18006TIP3    H275510   1.448   3.228  13.547  0.5711 -3.1069  1.2818
18007TIP3   OH275511   3.521   2.261   4.789  0.6327  0.5085 -0.0259
18007TIP3    H175512   3.456   2.290   4.853  1.1404  0.5167  0.4965
18007TIP3    H275513   3.495   2.171   4.768  0.6172  0.4104  0.4027
18008TIP3   OH275514   4.988   1.605  13.814  0.6264 -0.1469 -0.0007
18008TIP3    H175515   5.051   1.664  13.855 -1.2215  1.8684  0.0756
18008TIP3    H275516   4.904   1.629  13.851 -0.2927 -2.4946 -0.3996
18009TIP3   OH275517   3.051   3.265   4.952 -0.1949 -0.0698  0.1340
18009TIP3    H175518   3.014   3.346   4.917 -0.1779 -0.0299  0.2081
18009TIP3    H275519   3.140   3.261   4.916  2.2773  3.1433  4.8731
18010TIP3   OH275520   4.591   0.017   3.691 -0.9809  0.5779 -0.1876
18010TIP3    H175521   4.576  -0.037   3.769  0.0902  1.3148  0.5531
18010TIP3    H275522   4.507   0.061   3.677 -2.0657 -1.5996 -1.1244
18011TIP3   OH275523   4.448   3.843   4.131  0.0141 -0.1987  0.0176
18011TIP3    H175524   4.368   3.860   4.181 -0.0765 -2.7934  0.9132
18011TIP3    H275525   4.425   3.771   4.072  1.8263 -1.4162  0.7164
18012TIP3   OH275526   5.318   4.614  12.453  0.0498 -0.4105  0.2398
18012TIP3    H175527   5.391   4.672  12.435  0.5199 -0.4700  1.8274
18012TIP3    H275528   5.265   4.661  12.518 -0.9006 -0.7024 -0.3088
18013TIP3   OH275529   6.520   5.330  15.747 -0.2947  0.4831  0.2369
18013TIP3    H175530   6.510   5.239  15.775  0.5927 -0.5680 -2.5721
18013TIP3    H275531   6.443   5.346  15.692 -1.4020  2.1241  2.0820
18014TIP3   OH275532   0.301   4.621  14.377  0.5498 -0.0005  0.1000
18014TIP3    H175533   0.276   4.629  14.285 -0.8828  0.7323  0.5215
18014TIP3    H275534   0.335   4.532  14.385  1.7229  0.2818 -1.3571
18015TIP3   OH275535   0.056   3.757   0.020  0.0111  0.5986 -0.6886
18015TIP3    H175536   0.102   3.766  -0.063  0.0102  0.7508 -0.6738
18015TIP3    H275537   0.114   3.800   0.084  0.5006 -0.4120 -0.4292
18016TIP3   OH275538   1.409   2.159   1.172  0.0552 -0.2043 -0.3621
18016TIP3    H175539   1.467   2.084   1.165  1.5983  0.9459 -0.5765
18016TIP3    H275540   1.451   2.226   1.118 -1.8385  0.4785 -1.0619
18017TIP3   OH275541   2.122   0.550   3.217 -0.5902 -0.1621  0.1713
18017TIP3    H175542   2.049   0.611   3.226  1.3091  2.2071  0.6142
18017TIP3    H275543   2.146   0.555   3.124 -0.5087 -0.3055  0.1854
18018TIP3   OH275544   3.590   1.577  14.129 -0.0677 -0.3487 -0.4003
18018TIP3    H175545   3.595   1.483  14.112 -2.1408 -0.7161  0.6036
18018TIP3    H275546   3.531   1.610  14.061 -2.2851 -0.4958  1.3300
18019TIP3   OH275547   6.690   1.662   2.301  0.6901  0.1289 -0.3055
18019TIP3    H175548   6.685   1.670   2.206 -0.9804 -0.4124 -0.2979
18019TIP3    H275549   6.599   1.670   2.330  1.2492  1.0346  1.3215
18020TIP3   OH275550   2.074   0.028   2.639 -0.0075  0.2472  0.0411
18020TIP3    H175551   2.035   0.099   2.589  0.0222 -0.6381 -1.2923
18020TIP3    H275552   2.168   0.044   2.635  0.0423 -0.2272 -0.8464
18021TIP3   OH275553   0.166   5.138  13.088  0.2074 -0.0089  0.0835
18021TIP3    H175554   0.100   5.073  13.066  0.1529 -0.5199  1.6879
18021TIP3    H275555   0.246   5.087  13.102  0.0199  0.1661  1.9671
18022TIP3   OH275556   4.286   2.880  12.214 -0.3799 -0.1026  0.3178
18022TIP3    H175557   4.371   2.882  12.170 -1.3310 -0.6910 -1.6477
18022TIP3    H275558   4.306   2.850  12.303  1.3528 -1.2904 -0.4118
18023TIP3   OH275559   2.259   1.544   5.315 -0.2320  0.5812 -0.0175
18023TIP3    H175560   2.303   1.627   5.297 -1.6734  1.2550 -0.5447
18023TIP3    H275561   2.260   1.497   5.231 -1.5157  1.1017 -0.3451
18024TIP3   OH275562   2.886   1.529  11.018 -0.0216 -0.3055  0.5233
18024TIP3    H175563   2.847   1.516  10.932 -1.0664  0.6580  0.8335
18024TIP3    H275564   2.829   1.592  11.062  1.4288  0.5292  1.3126
18025TIP3   OH275565   3.353   0.270   1.396 -0.5932 -0.6070 -0.0935
18025TIP3    H175566   3.352   0.273   1.300 -0.7291  0.8636 -0.0631
18025TIP3    H275567   3.279   0.324   1.422  0.3547  0.2791  0.8538
18026TIP3   OH275568   4.621   3.420  11.734 -0.5038  0.1090  0.6325
18026TIP3    H175569   4.646   3.478  11.806  0.3269  0.1348  0.3372
18026TIP3    H275570   4.682   3.442  11.663 -0.0298 -1.2445  0.5802
18027TIP3   OH275571   2.228   3.945   4.652 -0.3058  0.4883 -0.4682
18027TIP3    H175572   2.279   3.994   4.717 -0.0937  0.2307 -0.4361
18027TIP3    H275573   2.238   3.996   4.571  0.8444 -0.0676 -0.7110
18028TIP3   OH275574   5.049   4.611   3.128  0.2294  0.0666  0.7475
18028TIP3    H175575   5.036   4.554   3.204  0.0330 -0.6752  0.1572
18028TIP3    H275576   4.964   4.654   3.117 -0.4446 -1.5052 -0.4153
18029TIP3   OH275577   4.554   0.416   4.761 -0.0193 -0.3074  0.1546
18029TIP3    H175578   4.619   0.346   4.773  3.0478  1.8457 -2.2036
18029TIP3    H275579   4.547   0.457   4.847  3.2213  0.4426  0.1966
18030TIP3   OH275580   6.881   2.426   0.522 -0.0870 -0.0151 -0.1683
18030TIP3    H175581   6.960   2.448   0.571  0.6879  1.7232 -2.1023
18030TIP3    H275582   6.823   2.501   0.536 -0.7810 -0.5562 -0.0764
18031TIP3   OH275583   1.326   0.423  12.369 -0.5513  0.0975  0.1606
18031TIP3    H175584   1.230   0.425  12.367 -0.5582  1.1178  0.5937
18031TIP3    H275585   1.349   0.457  12.455  0.1861 -3.6472  1.6276
18032TIP3   OH275586   4.566   1.135   6.022  0.3988  0.7149  0.2522
18032TIP3    H175587   4.609   1.092   5.947  0.6435  0.1039  0.7384
18032TIP3    H275588   4.474   1.114   6.011  0.4110  0.7698  0.0284
18033TIP3   OH275589   0.044   0.643   2.869 -0.6943 -0.2078  0.5277
18033TIP3    H175590   0.004   0.644   2.956 -0.5382 -0.2658  0.6010
18033TIP3    H275591   0.130   0.684   2.882  0.9057 -3.4688  1.1832
18034TIP3   OH275592   1.823   1.743  13.820 -1.1349  0.0984  0.2181
18034TIP3    H175593   1.793   1.758  13.909  1.1246 -0.5942  1.1628
18034TIP3    H275594   1.918   1.749  13.825 -0.9487  0.2698 -2.2075
18035TIP3   OH275595   0.226   1.954   1.449 -0.4163  0.1333  0.4886
18035TIP3    H175596   0.145   1.915   1.481 -0.1508  1.2421  2.6653
18035TIP3    H275597   0.212   2.048   1.457  0.8025  0.3545  0.1672
18036TIP3   OH275598   6.193   1.142   5.368  0.4259 -0.0564  0.2723
18036TIP3    H175599   6.281   1.104   5.374  0.2705 -0.8848 -1.6922
18036TIP3    H275600   6.206   1.228   5.328  0.4857  0.5964  1.6687
18037TIP3   OH275601   4.841   4.597  14.110 -0.2566  0.3271 -0.4593
18037TIP3    H175602   4.891   4.628  14.035 -1.1064 -1.3413 -1.7674
18037TIP3    H275603   4.762   4.557  14.073 -0.5859 -0.7731  1.2911
18038TIP3   OH275604   2.068   3.814   0.852  0.5042 -0.5809  0.3321
18038TIP3    H175605   1.983   3.812   0.897  0.6176  1.2019  0.7165
18038TIP3    H275606   2.118   3.743   0.892 -0.0968 -0.3040  1.6295
18039TIP3   OH275607   1.955   5.268  10.841 -0.2025 -0.2902  0.0949
18039TIP3    H175608   2.028   5.287  10.782  0.6671  0.1111  1.2632
18039TIP3    H275609   1.950   5.173  10.843 -0.8843 -0.3166 -1.3615
18040TIP3   OH275610   6.217   2.580  14.495 -0.6326  0.1812 -0.3471
18040TIP3    H175611   6.268   2.628  14.431  2.7397  0.1033  2.0293
18040TIP3    H275612   6.161   2.646  14.536  0.8677  1.2653  0.0152
18041TIP3   OH275613   4.794   0.829   2.636  0.0989  0.1749 -0.2683
18041TIP3    H175614   4.799   0.875   2.720  0.3282  0.9880 -0.7132
18041TIP3    H275615   4.822   0.740   2.655 -0.1153  0.2820  0.5722
18042TIP3   OH275616   2.613   4.590  14.872  0.1635 -0.3108 -0.1588
18042TIP3    H175617   2.665   4.511  14.857  0.2060 -0.4796  0.7975
18042TIP3    H275618   2.662   4.659  14.827  1.2986 -0.4492  0.8001
18043TIP3   OH275619   6.394   5.698  16.091  0.4692 -0.4594 -0.0946
18043TIP3    H175620   6.411   5.767  16.027  0.8189  0.4605  0.9743
18043TIP3    H275621   6.299   5.695  16.099  0.4918  0.8283  0.8374
18044TIP3   OH275622   1.736   5.517  11.605 -0.1225 -0.0621  0.5480
18044TIP3    H175623   1.729   5.583  11.536 -0.3222 -1.3120 -0.6659
18044TIP3    H275624   1.766   5.566  11.682  0.9161  1.2288 -0.6272
18045TIP3   OH275625   2.146   6.878   2.163 -0.2234 -0.3708  0.2242
18045TIP3    H175626   2.165   6.970   2.180 -1.2783 -0.2699  0.9700
18045TIP3    H275627   2.050   6.874   2.156 -0.3032 -1.6132  1.5601
18046TIP3   OH275628   4.500   0.086  11.898 -0.4955 -0.1284  0.8163
18046TIP3    H175629   4.524   0.015  11.839 -0.7520 -0.5748  1.2513
18046TIP3    H275630   4.568   0.087  11.965  0.1027  0.7359  0.2261
18047TIP3   OH275631   0.785   4.871  14.517  0.3777  0.1376 -0.9156
18047TIP3    H175632   0.871   4.836  14.539  0.2900  1.1134  1.2497
18047TIP3    H275633   0.802   4.961  14.489  0.1413  0.0841 -1.2316
18048TIP3   OH275634   6.201   6.202   2.318  0.2765  0.5596 -0.2744
18048TIP3    H175635   6.281   6.160   2.349 -0.1975 -1.0428 -1.1055
18048TIP3    H275636   6.207   6.292   2.350  1.1656 -0.2170  1.9419
18049TIP3   OH275637   5.454   2.465   2.005 -0.3477  0.3054 -0.5841
18049TIP3    H175638   5.503   2.398   1.959  0.2933  0.6625 -0.4405
18049TIP3    H275639   5.481   2.547   1.964  0.4697  0.6555  0.6073
18050TIP3   OH275640   1.607   1.408   4.222 -0.0995 -0.6283  0.0704
18050TIP3    H175641   1.645   1.447   4.301  1.0702 -0.3008 -0.6228
18050TIP3    H275642   1.651   1.324   4.214  1.2288  0.1351 -1.2342
18051TIP3   OH275643   0.598   4.659  11.569 -0.0023  0.3205 -0.0995
18051TIP3    H175644   0.607   4.731  11.506  0.6110  1.0948  0.8380
18051TIP3    H275645   0.541   4.596  11.525  0.2370  0.9275 -1.3402
18052TIP3   OH275646   2.149   0.354   0.359 -0.3109  0.0205  0.1412
18052TIP3    H175647   2.151   0.433   0.306 -0.4690 -0.4938 -0.6456
18052TIP3    H275648   2.156   0.282   0.296  1.1094 -0.5749  0.9219
18053TIP3   OH275649   1.631   6.020  16.559 -0.4307  0.4934 -0.3346
18053TIP3    H175650   1.578   6.010  16.481  0.5134 -1.2535 -0.8163
18053TIP3    H275651   1.574   6.063  16.622 -1.5648  0.9347 -1.6242
18054TIP3   OH275652   2.717   5.127  15.748 -0.8104  0.2259  0.4799
18054TIP3    H175653   2.711   5.032  15.750 -0.0351  0.1470 -0.1905
18054TIP3    H275654   2.628   5.158  15.765 -1.2708 -0.6323 -0.2864
18055TIP3   OH275655   4.894   1.203  11.763 -0.1593  0.4055 -0.2789
18055TIP3    H175656   4.977   1.159  11.784  0.0570  2.1278  3.2647
18055TIP3    H275657   4.827   1.134  11.774  0.6067 -0.5084 -1.1675
18056TIP3   OH275658   2.211   4.811  12.727  0.4470 -0.6909  0.0312
18056TIP3    H175659   2.232   4.803  12.820 -0.3485 -2.6084  0.0864
18056TIP3    H275660   2.260   4.740  12.685  2.0109  1.0763 -1.2711
18057TIP3   OH275661   4.317   3.645   6.113  0.3672 -0.0034 -0.1637
18057TIP3    H175662   4.293   3.737   6.120  0.6097  0.0545 -0.0649
18057TIP3    H275663   4.288   3.605   6.195  1.5938  0.2991  0.4480
18058TIP3   OH275664   6.375   3.604   0.895 -0.2480  0.1140 -0.3460
18058TIP3    H175665   6.384   3.529   0.835 -0.6300 -0.2000 -0.0153
18058TIP3    H275666   6.463   3.614   0.933 -0.0828  0.1166 -0.7206
18059TIP3   OH275667   0.387   4.402  14.151 -0.2812 -0.3103  0.6885
18059TIP3    H175668   0.291   4.412  14.146 -0.1391  0.7724 -0.3382
18059TIP3    H275669   0.421   4.489  14.130  0.9497 -1.1764 -1.1451
18060TIP3   OH275670   0.721   5.099  13.789  1.3742  0.4744 -0.3979
18060TIP3    H175671   0.671   5.161  13.842  4.0078  0.9981  1.6936
18060TIP3    H275672   0.746   5.149  13.711 -0.5604  0.4460 -1.0867
18061TIP3   OH275673   4.158   3.839   3.234  0.4009  0.3434  0.4245
18061TIP3    H175674   4.095   3.783   3.188  0.3136  0.1539  0.7675
18061TIP3    H275675   4.183   3.905   3.170 -1.0488  1.1320  0.6141
18062TIP3   OH275676   5.864   5.596  10.998  0.1153 -0.1652  0.1311
18062TIP3    H175677   5.900   5.552  10.921  0.3645  0.4291 -0.0983
18062TIP3    H275678   5.809   5.530  11.040  0.9232 -0.8619  0.0995
18063TIP3   OH275679   4.130   4.813   5.319  0.2485  0.3313  0.0896
18063TIP3    H175680   4.085   4.894   5.294  0.2315 -0.0289 -1.1074
18063TIP3    H275681   4.092   4.746   5.261  1.0805 -0.3104  0.2725
18064TIP3   OH275682   3.526   1.605  15.588 -0.0959  0.7261 -0.3365
18064TIP3    H175683   3.500   1.614  15.679  0.7052  1.1825 -0.1492
18064TIP3    H275684   3.445   1.583  15.542 -0.1393 -1.9272  0.8284
18065TIP3   OH275685   3.407   6.142  15.045  0.2195  0.3156  0.3335
18065TIP3    H175686   3.333   6.196  15.072  0.2867  0.2017  0.7452
18065TIP3    H275687   3.414   6.157  14.950  0.1414  0.9060  0.4174
18066TIP3   OH275688   0.523   0.475   3.711  0.0592  0.8497  0.8110
18066TIP3    H175689   0.615   0.501   3.716  0.5656 -0.7804  0.3969
18066TIP3    H275690   0.501   0.484   3.618 -0.2289  1.2519  0.9102
18067TIP3   OH275691   2.523   5.408  14.973  0.1766 -0.6729 -0.1667
18067TIP3    H175692   2.546   5.398  15.065 -0.1856 -2.3638 -0.2281
18067TIP3    H275693   2.441   5.359  14.963 -1.4486  1.9588 -0.7813
18068TIP3   OH275694   4.317   4.051   2.022 -0.1095 -0.0928 -0.6729
18068TIP3    H175695   4.283   4.088   1.940  1.2696 -0.7301 -1.5830
18068TIP3    H275696   4.328   4.126   2.080 -0.4344  0.4782 -1.3311
18069TIP3   OH275697   2.698   3.885  11.113  0.1883 -0.7564  0.0616
18069TIP3    H175698   2.612   3.866  11.150  0.2256 -0.9391  0.0537
18069TIP3    H275699   2.757   3.889  11.188 -0.1175  1.0374  0.2459
18070TIP3   OH275700   3.636   6.604   3.090 -0.2366  0.2212  0.4863
18070TIP3    H175701   3.550   6.565   3.108 -0.5648  0.3105 -0.7575
18070TIP3    H275702   3.620   6.661   3.014  1.1869 -0.7658 -0.5947
18071TIP3   OH275703   1.135   0.215   4.998  0.5784 -0.1977 -0.8720
18071TIP3    H175704   1.217   0.204   5.047 -0.9669  0.5714  2.1044
18071TIP3    H275705   1.141   0.303   4.961  0.8970  0.0269 -0.2929
18072TIP3   OH275706   4.344   3.192   4.722 -0.7931 -0.1379  0.2117
18072TIP3    H175707   4.426   3.152   4.691 -0.2683  1.8382 -1.1406
18072TIP3    H275708   4.320   3.254   4.654 -1.1788  2.3468  2.4412
18073TIP3   OH275709   2.328   2.057  13.169  0.3388 -0.2033 -0.1594
18073TIP3    H175710   2.317   2.072  13.263  1.3792 -1.2793  0.1580
18073TIP3    H275711   2.346   1.963  13.162  0.4247 -0.1009 -1.4200
18074TIP3   OH275712   5.060   3.537   2.155 -0.1850  0.2588  0.1670
18074TIP3    H175713   5.039   3.546   2.248  0.7676 -2.2274  0.6974
18074TIP3    H275714   5.153   3.561   2.149  0.2319 -1.2595  0.2150
18075TIP3   OH275715   1.743   6.051   1.951  0.1833  0.0097 -0.4046
18075TIP3    H175716   1.838   6.044   1.942  0.0721 -1.1407 -0.9114
18075TIP3    H275717   1.729   6.070   2.043  0.9841  2.7507 -0.7605
18076TIP3   OH275718   2.921   3.825   0.240  0.0612  0.3969 -0.7045
18076TIP3    H175719   2.903   3.898   0.182 -1.0251 -1.3094 -2.6539
18076TIP3    H275720   2.848   3.825   0.302  0.3552  1.2589 -0.3513
18077TIP3   OH275721   5.270   0.381  16.813  0.3951  0.0247  0.2531
18077TIP3    H175722   5.253   0.474  16.795  0.5793  0.1879  0.8641
18077TIP3    H275723   5.183   0.341  16.818  0.3417 -0.1522 -1.4911
18078TIP3   OH275724   2.244   1.287  12.609 -0.0484  0.4036  0.2837
18078TIP3    H175725   2.200   1.367  12.636  0.2304 -0.2493  2.9470
18078TIP3    H275726   2.231   1.227  12.682  3.3474 -0.5675  0.2468
18079TIP3   OH275727   5.084   5.946   0.779 -0.1006  0.2429  0.2725
18079TIP3    H175728   5.132   6.001   0.842  0.8463  0.8957 -0.9821
18079TIP3    H275729   5.060   6.006   0.709  0.1148 -0.7471 -0.6739
18080TIP3   OH275730   3.881   6.378  16.686 -0.1559  0.2346  0.2054
18080TIP3    H175731   3.821   6.305  16.696  0.0113 -0.2066 -1.6739
18080TIP3    H275732   3.900   6.381  16.592  1.4195  1.4213  0.5181
18081TIP3   OH275733   4.222   3.384  12.707 -0.8502  0.0504  0.4199
18081TIP3    H175734   4.153   3.376  12.773 -1.7741 -0.5006 -0.5659
18081TIP3    H275735   4.187   3.447  12.644 -0.0349  0.4836  0.3988
18082TIP3   OH275736   5.775   4.974   0.744  0.0787 -0.3056 -0.1215
18082TIP3    H175737   5.737   4.900   0.790  1.4668 -1.5277 -0.8531
18082TIP3    H275738   5.805   5.033   0.813 -1.3070 -0.2400  0.4665
18083TIP3   OH275739   5.821   6.357   2.565  0.2258  0.2528  0.3932
18083TIP3    H175740   5.820   6.311   2.481  0.5934 -0.4174  0.7522
18083TIP3    H275741   5.825   6.288   2.631 -0.0098  0.7745  0.9661
18084TIP3   OH275742   6.091   0.709  12.281 -0.2572 -0.2796  0.2956
18084TIP3    H175743   6.175   0.741  12.248 -0.5576 -1.7072 -2.0148
18084TIP3    H275744   6.101   0.614  12.286 -0.8424 -0.2871  2.8011
18085TIP3   OH275745   2.688   5.393   1.136 -0.3114  0.0293  0.9463
18085TIP3    H175746   2.672   5.482   1.104 -1.7263  0.0932  1.7239
18085TIP3    H275747   2.664   5.336   1.063  0.4184  0.2748  0.5109
18086TIP3   OH275748   3.320   2.946   0.805 -0.4979  0.4496 -0.0549
18086TIP3    H175749   3.388   2.879   0.802 -1.3401 -0.4183 -0.1840
18086TIP3    H275750   3.358   3.015   0.860  0.5307  0.0485 -0.2274
18087TIP3   OH275751   1.188   6.709   1.569 -0.2454 -0.3345 -0.2178
18087TIP3    H175752   1.142   6.717   1.486 -0.2400  0.8136 -0.1252
18087TIP3    H275753   1.174   6.793   1.613  0.3729 -0.6506  0.6239
18088TIP3   OH275754   6.813   1.840  11.094  0.0704 -0.3244 -0.3070
18088TIP3    H175755   6.835   1.765  11.038 -0.6292 -0.2302 -0.7168
18088TIP3    H275756   6.764   1.802  11.167  0.4723 -0.3692 -0.0534
18089TIP3   OH275757   3.569   2.258  12.176 -0.1728 -0.8048 -0.3428
18089TIP3    H175758   3.589   2.189  12.240 -2.2090 -2.4822 -1.4160
18089TIP3    H275759   3.576   2.215  12.091  0.2305  0.8078 -1.1606
18090TIP3   OH275760   5.802   2.264  10.702  0.2524  0.5244  0.1135
18090TIP3    H175761   5.735   2.274  10.635 -0.5364 -2.6715  0.2289
18090TIP3    H275762   5.877   2.228  10.655  1.4829  2.8052  0.2208
18091TIP3   OH275763   3.577   3.936  12.160  0.4421  0.1764 -0.1525
18091TIP3    H175764   3.623   4.010  12.200 -0.1317  1.1889 -1.2746
18091TIP3    H275765   3.508   3.977  12.107  0.0359 -1.1765 -0.7157
18092TIP3   OH275766   4.591   1.115   0.284  0.1591  0.3632  0.4230
18092TIP3    H175767   4.573   1.196   0.332 -0.6650 -0.0617  0.8447
18092TIP3    H275768   4.524   1.053   0.314  0.1983 -0.1984 -0.5773
18093TIP3   OH275769   3.758   1.980  14.688 -0.4764  0.6357 -0.2366
18093TIP3    H175770   3.822   1.935  14.633 -0.2782 -1.9150  1.8774
18093TIP3    H275771   3.809   2.012  14.763 -1.3919  0.0027  0.6824
18094TIP3   OH275772   0.477   6.801  13.844  0.3397  0.4703 -0.5223
18094TIP3    H175773   0.476   6.893  13.818 -0.4567  1.1673  1.7598
18094TIP3    H275774   0.395   6.766  13.810 -0.7778  1.4078  1.1085
18095TIP3   OH275775   0.388   0.039   4.124 -0.2846  0.0920 -0.5453
18095TIP3    H175776   0.381  -0.050   4.157 -0.1552 -0.1292 -1.1089
18095TIP3    H275777   0.350   0.093   4.194 -1.3392 -0.4857 -0.6447
18096TIP3   OH275778   5.264   3.106  13.775 -0.2435  0.6132 -0.2399
18096TIP3    H175779   5.309   3.057  13.706  2.1379  0.8995  0.9874
18096TIP3    H275780   5.222   3.039  13.828  0.1827  0.1671 -0.4507
18097TIP3   OH275781   5.878   5.421   3.083  0.4551  0.7166  0.1282
18097TIP3    H175782   5.797   5.370   3.087  0.6038  0.5725  2.0285
18097TIP3    H275783   5.940   5.364   3.037 -0.8113  1.3278 -2.5322
18098TIP3   OH275784   4.106   5.440   0.807  0.1612  0.6301 -0.1539
18098TIP3    H175785   4.013   5.420   0.822  0.4880 -1.7342 -0.8131
18098TIP3    H275786   4.137   5.474   0.891 -0.3741 -2.6634  1.5762
18099TIP3   OH275787   0.295   0.775  11.846 -0.4775  0.4851  0.0524
18099TIP3    H175788   0.231   0.724  11.796  0.5139 -1.2976  0.5344
18099TIP3    H275789   0.359   0.803  11.781  1.2491 -2.5104  0.3187
18100TIP3   OH275790   5.451   5.296  11.090 -0.3178  0.4564 -0.0655
18100TIP3    H175791   5.492   5.298  11.004 -0.0457 -1.8820 -0.0564
18100TIP3    H275792   5.521   5.323  11.150  0.2784 -0.4073 -0.3548
18101TIP3   OH275793   0.622   6.654   6.147  0.0727 -0.4861  0.2091
18101TIP3    H175794   0.691   6.699   6.195  0.4896 -0.9070  0.0084
18101TIP3    H275795   0.557   6.631   6.214  0.2102 -0.2462  0.4258
18102TIP3   OH275796   4.234   6.117  14.555 -0.1787 -0.2571 -0.3326
18102TIP3    H175797   4.289   6.192  14.534  0.0832  0.2490  1.8568
18102TIP3    H275798   4.145   6.152  14.558 -0.1848 -0.2706 -0.3498
18103TIP3   OH275799   0.167   3.985  15.197 -0.7076  0.0170 -0.4659
18103TIP3    H175800   0.222   4.047  15.150  0.7639 -1.2749 -0.5277
18103TIP3    H275801   0.216   3.903  15.194 -1.1693 -0.4387  2.1936
18104TIP3   OH275802   3.410   3.595   0.028 -0.2670 -0.7663  0.0203
18104TIP3    H175803   3.474   3.530   0.056  0.1183 -0.5109 -0.2632
18104TIP3    H275804   3.461   3.672   0.006 -0.8078  0.0458  1.4522
18105TIP3   OH275805   3.898   3.475  16.338  0.2030 -0.6221  0.4043
18105TIP3    H175806   3.867   3.539  16.402 -2.4370 -1.2827 -0.1160
18105TIP3    H275807   3.979   3.513  16.303 -1.4993  2.7275 -0.2710
18106TIP3   OH275808   4.338   3.791  13.986  0.0287 -0.1773 -0.1644
18106TIP3    H175809   4.397   3.866  13.982 -1.4509  0.9992 -1.2882
18106TIP3    H275810   4.355   3.743  13.905  0.8023 -0.9591  0.4402
18107TIP3   OH275811   5.732   1.435  14.313  0.2197  0.4075  0.0050
18107TIP3    H175812   5.740   1.518  14.359 -1.1813 -0.5181  2.0470
18107TIP3    H275813   5.667   1.451  14.245  0.7371  1.2268 -0.3174
18108TIP3   OH275814   1.887   1.788   2.171  0.1370 -0.3825  0.1266
18108TIP3    H175815   1.821   1.791   2.103 -3.7482  0.4703  3.5326
18108TIP3    H275816   1.927   1.875   2.170 -1.3834  0.3503  0.1584
18109TIP3   OH275817   0.500   1.608   5.843  0.2547 -0.0558 -0.0388
18109TIP3    H175818   0.456   1.528   5.872 -2.3855  1.1755 -0.3298
18109TIP3    H275819   0.443   1.679   5.874  1.9272  1.6761 -0.7444
18110TIP3   OH275820   3.563   6.175   5.390 -0.7529  0.1868 -0.4746
18110TIP3    H175821   3.587   6.082   5.381 -0.6507  0.3180 -1.7161
18110TIP3    H275822   3.551   6.187   5.484  1.3192 -0.5905 -0.0325
18111TIP3   OH275823   3.292   0.881  13.052  0.3618 -0.1925  0.0731
18111TIP3    H175824   3.198   0.900  13.049  0.4363  0.2573  0.4698
18111TIP3    H275825   3.328   0.929  12.977  0.1152 -1.3473 -0.8077
18112TIP3   OH275826   5.024   3.706  15.710  0.0572 -0.1999 -0.3474
18112TIP3    H175827   5.088   3.684  15.643  0.5464 -2.0244  0.6291
18112TIP3    H275828   4.951   3.746  15.663  0.4211 -1.3452 -1.9713
18113TIP3   OH275829   5.624   0.707  14.349 -0.2171  0.2411 -0.7433
18113TIP3    H175830   5.573   0.627  14.363 -4.2087  2.2236 -2.1802
18113TIP3    H275831   5.644   0.739  14.437 -2.7018 -0.0549  0.0051
18114TIP3   OH275832   2.684   1.535  15.082  0.0831 -0.2059 -0.6574
18114TIP3    H175833   2.720   1.552  14.995 -1.4812  1.8594 -0.9976
18114TIP3    H275834   2.722   1.603  15.137 -0.7796 -0.0046 -0.2969
18115TIP3   OH275835   1.802   2.038  12.418 -0.1503  0.4070  0.0534
18115TIP3    H175836   1.842   2.020  12.503 -0.8349  0.7362  0.4614
18115TIP3    H275837   1.875   2.051  12.359  0.3466 -0.8360  0.3634
18116TIP3   OH275838   5.936   5.940   3.121  0.5476 -0.3289  0.0287
18116TIP3    H175839   6.020   5.933   3.168  1.9890 -0.6087 -2.4120
18116TIP3    H275840   5.900   5.851   3.125  0.6478 -0.3521  0.5733
18117TIP3   OH275841   0.940   6.026  12.877  0.1389 -0.2992 -0.4598
18117TIP3    H175842   1.027   5.993  12.852  0.5737 -0.6237  1.2946
18117TIP3    H275843   0.885   5.948  12.879  1.0018 -1.0175  3.0024
18118TIP3   OH275844   2.454   1.794  15.293 -0.0452 -0.3870  0.4551
18118TIP3    H175845   2.521   1.858  15.317 -1.9745  1.1588  2.1111
18118TIP3    H275846   2.441   1.806  15.199  0.2773  1.0317  0.5690
18119TIP3   OH275847   5.275   3.517   6.305 -0.4935 -0.0028  0.2723
18119TIP3    H175848   5.209   3.586   6.309 -0.3616  0.0639  2.1010
18119TIP3    H275849   5.249   3.456   6.374  2.4583  1.0981  2.5593
18120TIP3   OH275850   3.823   3.717  12.453 -0.0212 -0.7397 -0.2297
18120TIP3    H175851   3.731   3.728  12.431 -0.2787 -0.8614  0.7183
18120TIP3    H275852   3.840   3.624  12.440  0.0725 -0.6502 -0.7659
18121TIP3   OH275853   1.244   1.709   1.701  0.2277 -0.1988  0.0565
18121TIP3    H175854   1.167   1.738   1.748  0.9454  0.5970  0.7794
18121TIP3    H275855   1.221   1.717   1.608  0.0106  1.6544  0.2379
18122TIP3   OH275856   0.522   4.902  16.433  0.2691  0.3347  0.1473
18122TIP3    H175857   0.585   4.895  16.362  2.0385  1.7747  1.4708
18122TIP3    H275858   0.511   4.996  16.447 -2.3663  0.1450 -0.1305
18123TIP3   OH275859   2.678   2.044   0.360  0.0529 -0.5104  0.1036
18123TIP3    H175860   2.603   2.004   0.405 -0.7655  1.1982  0.3217
18123TIP3    H275861   2.690   2.128   0.403 -0.3029  0.8833 -2.3453
18124TIP3   OH275862   0.352   6.371   0.686 -0.3325  0.1245 -0.1893
18124TIP3    H175863   0.271   6.376   0.737 -0.6587 -0.5005 -0.6342
18124TIP3    H275864   0.338   6.299   0.625  0.6075 -0.0727 -0.1932
18125TIP3   OH275865   6.009   4.599   0.101 -0.0246 -0.1540 -0.1784
18125TIP3    H175866   5.994   4.574   0.010  2.7891 -0.1632 -0.7520
18125TIP3    H275867   6.015   4.517   0.148 -2.5549 -0.1356  0.3049
18126TIP3   OH275868   3.043   1.710  16.876 -0.0829  0.0610 -0.5746
18126TIP3    H175869   3.049   1.658  16.956 -0.5079  1.0727  0.1169
18126TIP3    H275870   3.133   1.710  16.841  0.1746 -0.1010  0.0758
18127TIP3   OH275871   0.919   6.591  11.203  0.2685 -0.5071  0.2780
18127TIP3    H175872   0.875   6.668  11.240 -0.6207 -0.1448 -1.4416
18127TIP3    H275873   0.906   6.599  11.109 -0.9130 -3.3804  0.0900
18128TIP3   OH275874   5.520   0.049   0.346  0.3521 -0.4539 -0.1120
18128TIP3    H175875   5.585   0.120   0.335  3.0068 -2.8950 -1.6665
18128TIP3    H275876   5.443   0.081   0.300 -0.0237  2.9264  2.4439
18129TIP3   OH275877   6.677   6.207  11.088 -0.2103  0.0739 -0.3182
18129TIP3    H175878   6.597   6.260  11.096  0.1300  0.4596  0.7457
18129TIP3    H275879   6.660   6.149  11.014 -1.6147 -0.0726  0.0906
18130TIP3   OH275880   5.040   3.946  13.145  0.2953  0.3084 -0.1950
18130TIP3    H175881   4.945   3.953  13.135 -0.1064 -0.7308  2.2480
18130TIP3    H275882   5.074   3.966  13.058 -2.2442 -1.3704 -1.7151
18131TIP3   OH275883   0.116   4.968  14.176  0.0940 -0.1261 -0.3179
18131TIP3    H175884   0.197   4.971  14.125 -0.5127  0.5948 -1.2732
18131TIP3    H275885   0.145   4.968  14.267  1.1747  1.7254 -0.6051
18132TIP3   OH275886   2.022   2.177  13.847 -0.1672 -0.6673 -0.0396
18132TIP3    H175887   1.964   2.107  13.817 -0.8024 -0.1849  0.0385
18132TIP3    H275888   2.044   2.153  13.937  0.1297 -1.0825 -0.2169
18133TIP3   OH275889   0.642   2.274  15.236  0.8644 -0.0104  0.5437
18133TIP3    H175890   0.638   2.361  15.275  0.3829 -0.6004  1.8776
18133TIP3    H275891   0.569   2.227  15.276  2.1389 -1.5344  1.1972
18134TIP3   OH275892   0.130   1.171   0.672  0.6483  0.4969 -0.2086
18134TIP3    H175893   0.118   1.087   0.629  0.4100  0.5235 -0.1956
18134TIP3    H275894   0.223   1.191   0.661  0.4780  0.7770 -1.1982
18135TIP3   OH275895   1.622   6.768   3.906 -0.3494 -0.1303 -0.0245
18135TIP3    H175896   1.631   6.783   3.812  1.7367 -1.7642 -0.1797
18135TIP3    H275897   1.541   6.718   3.915  0.0071 -0.9423 -1.1195
18136TIP3   OH275898   3.960   5.331  10.725  0.2663  0.1174 -0.2910
18136TIP3    H175899   3.960   5.426  10.733  0.6874 -0.0110  1.5439
18136TIP3    H275900   3.899   5.313  10.652 -1.0997  1.7035  0.4031
18137TIP3   OH275901   3.770   4.723  11.636 -0.4298  0.2020 -0.0807
18137TIP3    H175902   3.731   4.680  11.560  1.6051 -2.6648  0.3248
18137TIP3    H275903   3.818   4.797  11.601 -0.7068 -0.2278 -1.4184
18138TIP3   OH275904   4.254   2.767  16.185  0.0009  0.3322 -0.2977
18138TIP3    H175905   4.257   2.837  16.120 -2.1645  0.5442 -0.2608
18138TIP3    H275906   4.242   2.812  16.268  2.0263  0.0279  0.1919
18139TIP3   OH275907   4.200   6.046   5.131 -0.0404  0.4797 -0.2674
18139TIP3    H175908   4.231   5.980   5.194 -0.7311 -0.8030 -1.2228
18139TIP3    H275909   4.277   6.065   5.077  0.5187  1.4816  0.8434
18140TIP3   OH275910   4.213   3.425  12.316 -0.2183  0.1273  0.0229
18140TIP3    H175911   4.142   3.410  12.379  0.7488  0.5854  1.2580
18140TIP3    H275912   4.224   3.340  12.272 -4.3752  0.9856 -3.4097
18141TIP3   OH275913   2.894   2.285  13.099  0.5706 -0.3808  0.0258
18141TIP3    H175914   2.869   2.312  13.011  2.0442 -0.3730 -0.4260
18141TIP3    H275915   2.973   2.336  13.118 -0.8149  1.1155  2.1821
18142TIP3   OH275916   1.635   6.551  15.285  0.1678  0.1176  0.4578
18142TIP3    H175917   1.680   6.561  15.369  1.5367  1.7292 -0.4154
18142TIP3    H275918   1.705   6.538  15.221 -0.8784 -1.5800 -0.4059
18143TIP3   OH275919   6.072   1.440  13.500 -0.7083  0.4205 -0.1013
18143TIP3    H175920   6.065   1.350  13.467 -0.0624  0.4679 -0.3916
18143TIP3    H275921   5.984   1.476  13.493 -0.7677  0.1373 -0.9318
18144TIP3   OH275922   0.432   6.443   4.445 -0.2874  0.6840 -0.1463
18144TIP3    H175923   0.419   6.426   4.352  3.3813 -0.7821 -0.5270
18144TIP3    H275924   0.495   6.377   4.473  0.6560  2.6541  2.7863
18145TIP3   OH275925   2.028   3.446  12.261 -0.0502 -0.0446 -0.2376
18145TIP3    H175926   1.975   3.398  12.325 -0.1442 -1.7970 -1.5744
18145TIP3    H275927   2.116   3.410  12.271  0.3139  0.8748  0.0356
18146TIP3   OH275928   6.286   5.744  14.072  0.0208 -0.1156  0.3087
18146TIP3    H175929   6.341   5.745  13.993 -0.1779 -0.8003  0.1589
18146TIP3    H275930   6.348   5.753  14.144  0.2626 -0.1119  0.1043
18147TIP3   OH275931   6.370   1.451  11.956  0.8307 -0.2465 -0.1819
18147TIP3    H175932   6.378   1.413  12.044 -1.1841 -1.3093 -0.4024
18147TIP3    H275933   6.277   1.470  11.947  1.4093  2.8285 -0.9374
18148TIP3   OH275934   3.233   0.113  13.420  0.0303  0.4009  0.0711
18148TIP3    H175935   3.320   0.135  13.451 -0.2839  2.4261 -0.3412
18148TIP3    H275936   3.177   0.116  13.498  0.1601 -0.0555  0.1889
18149TIP3   OH275937   0.112   4.318  14.260  0.4503 -0.3724  1.1051
18149TIP3    H175938   0.100   4.409  14.234  1.1756 -0.5083  0.2505
18149TIP3    H275939   0.043   4.270  14.214  0.4963 -0.3463  1.0094
18150TIP3   OH275940   0.939   2.191   4.500 -0.2608  0.5504 -0.1267
18150TIP3    H175941   0.971   2.142   4.576 -0.0030 -2.2880 -1.9037
18150TIP3    H275942   0.887   2.127   4.451  0.4000  1.9375 -2.8205
18151TIP3   OH275943   2.635   1.231   1.543  0.0369 -0.5649 -0.4445
18151TIP3    H175944   2.622   1.305   1.483 -2.5720 -0.1036  0.5551
18151TIP3    H275945   2.690   1.170   1.494  1.4357  1.5635 -1.6847
18152TIP3   OH275946   3.484   1.541   0.937 -0.2266  0.1400 -0.1559
18152TIP3    H175947   3.558   1.602   0.933  0.9337 -1.0757  1.3805
18152TIP3    H275948   3.490   1.491   0.856  0.5830  0.1371 -0.1010
18153TIP3   OH275949   6.009   1.617  12.465  0.5829 -0.2489 -0.2345
18153TIP3    H175950   5.952   1.681  12.422  0.3163  0.0102  0.4857
18153TIP3    H275951   5.955   1.538  12.471 -0.0874  0.3005  1.3629
18154TIP3   OH275952   4.558   2.235  16.527 -0.2526  0.0069 -0.0299
18154TIP3    H175953   4.474   2.249  16.569 -0.0852  2.9666 -0.4605
18154TIP3    H275954   4.543   2.260  16.436  0.6082 -1.5390 -0.6369
18155TIP3   OH275955   0.716   2.018   5.851  0.4926  0.2047 -1.1142
18155TIP3    H175956   0.765   2.064   5.918  0.7181 -0.4016 -0.8601
18155TIP3    H275957   0.767   1.939   5.833 -0.6598 -0.7347 -0.4175
18156TIP3   OH275958   1.057   6.359  15.077  0.7629 -0.6353 -0.3751
18156TIP3    H175959   1.050   6.268  15.047  0.2204 -0.8742  0.4291
18156TIP3    H275960   1.123   6.398  15.020 -1.8197 -0.3941 -3.4644
18157TIP3   OH275961   4.727   0.784  12.415  0.0292 -0.3285  0.3227
18157TIP3    H175962   4.819   0.804  12.401 -0.0386  0.2438  0.6628
18157TIP3    H275963   4.715   0.698  12.376  0.8793 -0.7364  0.9171
18158TIP3   OH275964   5.026   6.456   2.044 -0.0752 -0.8840  0.0997
18158TIP3    H175965   4.935   6.462   2.074 -0.1447 -1.6043  0.0430
18158TIP3    H275966   5.068   6.533   2.083 -0.7786 -0.3626 -0.1403
18159TIP3   OH275967   0.588   3.604   4.666  0.0589  0.2265 -0.3570
18159TIP3    H175968   0.646   3.553   4.722  1.5761  0.9980 -1.1646
18159TIP3    H275969   0.546   3.666   4.725 -0.4243 -0.7432  0.3361
18160TIP3   OH275970   3.534   1.006  11.101 -0.3297  0.0864  0.1060
18160TIP3    H175971   3.455   1.057  11.083  0.2008  0.7089 -0.5147
18160TIP3    H275972   3.606   1.059  11.067  0.1680 -1.4527 -1.4012
18161TIP3   OH275973   3.412   6.314  12.829  0.2745  0.5594  0.0533
18161TIP3    H175974   3.460   6.312  12.912 -0.0236  2.8943  0.3636
18161TIP3    H275975   3.370   6.400  12.828  1.1855  1.0854 -3.0312
18162TIP3   OH275976   2.437   0.433   0.513 -0.2608  0.0476 -0.7125
18162TIP3    H175977   2.393   0.509   0.476  0.0675 -0.2420 -1.7293
18162TIP3    H275978   2.394   0.357   0.473 -1.2725 -0.3577  1.0648
18163TIP3   OH275979   1.706   6.864   0.140  0.5517 -0.0091  0.5743
18163TIP3    H175980   1.742   6.910   0.064 -2.5705  1.7179 -0.0139
18163TIP3    H275981   1.666   6.932   0.193 -2.1136 -1.7492  0.9704
18164TIP3   OH275982   1.482   3.395  16.099 -0.7395 -0.1650  0.5761
18164TIP3    H175983   1.446   3.483  16.089  0.2606  0.2244  0.1723
18164TIP3    H275984   1.411   3.336  16.076 -0.4024  0.5908 -2.9929
18165TIP3   OH275985   6.583   5.178   5.325  0.6060  0.2929  0.1206
18165TIP3    H175986   6.559   5.241   5.394  1.5041  1.0050 -0.1868
18165TIP3    H275987   6.506   5.174   5.269 -0.1106 -0.2361  1.1144
18166TIP3   OH275988   6.101   2.373   4.781 -0.1899 -0.0509  0.0864
18166TIP3    H175989   6.007   2.384   4.794 -0.2471  0.6123 -0.7984
18166TIP3    H275990   6.140   2.399   4.865 -0.7999 -0.6855  0.5810
18167TIP3   OH275991   0.778   2.009   4.362  0.1393  0.0935  0.3427
18167TIP3    H175992   0.728   2.004   4.443  1.3483  0.8790  1.1626
18167TIP3    H275993   0.722   2.061   4.303 -0.7422 -0.4759  0.6591
18168TIP3   OH275994   4.974   5.017  13.247  0.5730 -0.0286 -0.0185
18168TIP3    H175995   4.880   5.003  13.235  0.4235 -0.0280  1.0101
18168TIP3    H275996   4.980   5.058  13.333  1.6213 -1.4604  0.6352
18169TIP3   OH275997   1.224   4.917   3.618  0.1775  0.4163 -0.1289
18169TIP3    H175998   1.289   4.876   3.561  1.1696  0.6563  0.8009
18169TIP3    H275999   1.269   4.928   3.701 -1.1116  0.4540  0.5878
18170TIP3   OH276000   5.832   0.797  11.067  0.0259 -0.1563 -0.4602
18170TIP3    H176001   5.851   0.746  11.145 -0.6140  0.0022 -0.1907
18170TIP3    H276002   5.875   0.750  10.996 -1.7048 -1.8890 -0.4387
18171TIP3   OH276003   4.918   2.695   3.982  0.8286 -0.5314  0.4729
18171TIP3    H176004   4.946   2.671   4.070 -0.3871  1.1142  1.3634
18171TIP3    H276005   4.945   2.787   3.973 -0.2359 -0.2895 -0.3607
18172TIP3   OH276006   0.804   6.014   4.690  0.1988 -0.2734  0.3876
18172TIP3    H176007   0.772   6.100   4.660  0.0518 -0.0919  1.0451
18172TIP3    H276008   0.800   5.959   4.612 -0.9250 -0.0293  0.2457
18173TIP3   OH276009   1.356   4.226   3.933 -0.3271  0.6381 -0.1198
18173TIP3    H176010   1.430   4.285   3.951 -0.3499  1.0655 -1.3120
18173TIP3    H276011   1.348   4.173   4.012  1.7605  0.0333 -0.2541
18174TIP3   OH276012   5.830   3.528  12.516 -0.0364 -0.0683  0.1258
18174TIP3    H176013   5.855   3.510  12.607 -0.1780  0.7773  0.3343
18174TIP3    H276014   5.820   3.441  12.477  4.5032 -0.6422 -0.3438
18175TIP3   OH276015   2.906   4.672   3.576  0.2305  0.7093  0.0364
18175TIP3    H176016   2.862   4.615   3.512  1.4817 -2.0153  1.4463
18175TIP3    H276017   2.834   4.717   3.620 -0.7016  2.1754 -2.7301
18176TIP3   OH276018   5.089   0.356   5.104 -0.6645 -0.5468  0.1567
18176TIP3    H176019   5.040   0.286   5.146  1.1270 -1.4188  0.8786
18176TIP3    H276020   5.132   0.403   5.176 -1.1987  0.8178 -0.3721
18177TIP3   OH276021   6.281   6.434   1.815 -0.2105  0.2751 -0.0695
18177TIP3    H176022   6.272   6.346   1.850  1.8741  0.6571  1.6137
18177TIP3    H276023   6.258   6.425   1.722  1.7835 -2.5007 -0.4383
18178TIP3   OH276024   3.817   6.649   5.757 -0.1615  0.0481  0.3761
18178TIP3    H176025   3.813   6.560   5.792 -0.3223  0.1543  0.6280
18178TIP3    H276026   3.807   6.637   5.662 -0.8436 -0.1506  0.4635
18179TIP3   OH276027   0.821   6.381  15.542  0.0108 -0.5378  0.6919
18179TIP3    H176028   0.863   6.412  15.622 -0.9668  0.7145  0.7702
18179TIP3    H276029   0.855   6.293  15.529  0.7760 -0.4769  2.0610
18180TIP3   OH276030   6.639   2.989   1.436  0.1744  0.2955  0.1081
18180TIP3    H176031   6.550   2.953   1.445 -0.2445  0.3120 -2.8163
18180TIP3    H276032   6.681   2.931   1.372  1.6148  1.4073  0.0115
18181TIP3   OH276033   1.382   2.985  10.936 -0.2147  0.1838  0.8943
18181TIP3    H176034   1.342   2.916  10.883 -0.1661  1.3788 -0.8213
18181TIP3    H276035   1.471   2.992  10.902 -0.3331  1.3196  0.7685
18182TIP3   OH276036   6.257   5.413   0.886  0.1205  0.2235 -0.3371
18182TIP3    H176037   6.347   5.446   0.886  0.1986  0.0550  0.4557
18182TIP3    H276038   6.264   5.327   0.929 -0.6238  0.8658  1.1443
18183TIP3   OH276039   3.393   6.037  13.014  0.1362  0.3996 -0.0635
18183TIP3    H176040   3.488   6.036  13.008  0.0787 -2.0602 -2.5010
18183TIP3    H276041   3.363   6.053  12.925 -1.6771 -1.7972  0.0644
18184TIP3   OH276042   5.543   1.774   1.373  0.1139  0.0802  0.2346
18184TIP3    H176043   5.476   1.710   1.352 -0.9812  1.3767 -0.3490
18184TIP3    H276044   5.626   1.729   1.355 -0.5895 -1.4316  0.6515
18185TIP3   OH276045   0.075   0.672   4.668  0.8185 -0.4902  0.1269
18185TIP3    H176046   0.096   0.752   4.619  0.2581 -0.5319 -0.1897
18185TIP3    H276047   0.053   0.703   4.756 -1.6072 -0.0254 -0.5645
18186TIP3   OH276048   5.640   1.633   2.262 -0.1013 -0.2521 -0.0811
18186TIP3    H176049   5.670   1.569   2.327 -0.3030 -1.6406 -1.2876
18186TIP3    H276050   5.684   1.608   2.181  1.7622  2.6995 -0.1155
18187TIP3   OH276051   6.424   1.407   4.478 -0.1485  0.1319 -0.3325
18187TIP3    H176052   6.382   1.493   4.484 -1.5980 -0.3756 -2.0867
18187TIP3    H276053   6.478   1.413   4.399 -0.7272 -0.7341 -0.8081
18188TIP3   OH276054   2.299   4.901  14.452  0.1694 -0.1642 -0.0586
18188TIP3    H176055   2.207   4.928  14.449 -0.5334 -2.4154 -0.2324
18188TIP3    H276056   2.347   4.978  14.420 -1.8174  0.3439 -2.1114
18189TIP3   OH276057   3.013   2.751  13.909  0.2376  0.2796 -0.2198
18189TIP3    H176058   3.043   2.733  13.998  1.1566  1.1710 -0.3295
18189TIP3    H276059   2.978   2.668  13.878  1.6460 -0.5313  0.3031
18190TIP3   OH276060   5.280   4.721  11.439  0.4938  0.3683 -0.1876
18190TIP3    H176061   5.250   4.712  11.530  1.5058 -0.3991  0.0927
18190TIP3    H276062   5.224   4.789  11.402 -1.4997 -0.8789  0.3443
18191TIP3   OH276063   5.258   2.205   3.948 -0.3591  0.1792 -0.1207
18191TIP3    H176064   5.321   2.167   3.887 -0.6683  0.7379 -0.8111
18191TIP3    H276065   5.208   2.131   3.981  0.8156 -0.2990  0.6328
18192TIP3   OH276066   3.418   4.573  12.778  0.8782 -0.6641 -0.4641
18192TIP3    H176067   3.408   4.602  12.869 -0.7185 -0.5237 -0.6607
18192TIP3    H276068   3.433   4.479  12.784 -0.5114 -0.8741 -0.0928
18193TIP3   OH276069   5.739   4.670   1.904  0.3900 -0.2770  0.2978
18193TIP3    H176070   5.768   4.715   1.983  0.1159 -0.6743  0.6302
18193TIP3    H276071   5.729   4.579   1.930  0.5687 -0.4637 -0.2691
18194TIP3   OH276072   2.999   6.122   3.524  0.5446 -0.1876  0.2225
18194TIP3    H176073   2.960   6.117   3.612  1.0044  0.3318  0.4588
18194TIP3    H276074   2.979   6.037   3.485 -0.2985 -0.1568  0.5628
18195TIP3   OH276075   0.575   4.750   6.017  0.5494  0.1380  0.5537
18195TIP3    H176076   0.586   4.656   6.034  1.1669  0.2365  0.7299
18195TIP3    H276077   0.480   4.764   6.017  0.4589 -0.4669  0.6396
18196TIP3   OH276078   1.904   4.907  11.846  0.4005  0.4081  0.1923
18196TIP3    H176079   1.880   4.956  11.925  1.6079 -0.5069  1.1907
18196TIP3    H276080   1.824   4.864  11.819  0.2702 -0.5499  1.9114
18197TIP3   OH276081   0.117   5.670  13.481  0.2583  0.4424 -0.1862
18197TIP3    H176082   0.064   5.749  13.492 -0.5120 -0.3240  2.2150
18197TIP3    H276083   0.056   5.604  13.450 -0.1885 -0.3053  2.0863
18198TIP3   OH276084   0.103   5.227   3.801  0.4241  0.6037  0.3956
18198TIP3    H176085   0.157   5.167   3.749 -1.1929 -0.5965  0.0205
18198TIP3    H276086   0.024   5.239   3.749  0.2206  2.1958  1.0079
18199TIP3   OH276087   4.143   0.941   1.631 -0.5268 -0.2822 -0.0459
18199TIP3    H176088   4.052   0.958   1.605 -0.3670 -0.5048 -0.7562
18199TIP3    H276089   4.135   0.892   1.713 -1.0197  1.0395  0.7369
18200TIP3   OH276090   1.997   4.365   3.337  0.0099 -0.2449  0.0152
18200TIP3    H176091   2.017   4.440   3.393  0.6596  0.4515 -1.1240
18200TIP3    H276092   2.062   4.368   3.268 -0.2294 -1.6201 -0.2945
18201TIP3   OH276093   5.751   3.157   0.537  0.6081  0.1587 -0.2990
18201TIP3    H176094   5.759   3.111   0.453  0.3376 -0.2496 -0.1051
18201TIP3    H276095   5.696   3.232   0.517  0.4731  0.0159 -0.4712
18202TIP3   OH276096   4.873   1.435  11.192 -0.5013 -0.0178  0.3541
18202TIP3    H176097   4.799   1.415  11.249  0.2957  1.5567  2.0033
18202TIP3    H276098   4.835   1.436  11.104 -1.9388 -1.5735  0.8918
18203TIP3   OH276099   1.959   3.800   4.077 -0.0646  0.1183 -0.1234
18203TIP3    H176100   1.865   3.804   4.095 -0.2042 -0.3113 -0.7150
18203TIP3    H276101   1.989   3.891   4.082  0.1662  0.0112  3.3883
18204TIP3   OH276102   2.318   2.929  15.461 -0.0122  0.2793 -1.0301
18204TIP3    H176103   2.333   2.865  15.531  0.5765  0.9410 -0.5269
18204TIP3    H276104   2.226   2.954  15.471 -0.1642 -0.2604 -1.0417
18205TIP3   OH276105   2.412   4.624   3.275 -0.1133 -0.1288  0.2439
18205TIP3    H176106   2.484   4.586   3.224  0.8432  0.3015  1.2312
18205TIP3    H276107   2.454   4.659   3.353 -1.0007  2.5068 -0.3557
18206TIP3   OH276108   0.484   4.782  12.421 -0.7484  0.3591 -0.2742
18206TIP3    H176109   0.465   4.696  12.459  1.2705 -0.0454 -0.0342
18206TIP3    H276110   0.567   4.808  12.463 -2.3956  3.4968  1.4322
18207TIP3   OH276111   3.444   0.968  16.491 -0.7193 -0.5474  0.3022
18207TIP3    H176112   3.367   0.911  16.492 -0.1935 -1.2858  0.0547
18207TIP3    H276113   3.496   0.936  16.417 -1.0193  1.1027 -0.6757
18208TIP3   OH276114   0.650   2.964  15.300  0.1445  0.1537 -0.2011
18208TIP3    H176115   0.744   2.966  15.316  0.2866  1.0367 -1.0924
18208TIP3    H276116   0.632   3.042  15.249 -1.0636 -0.0605 -0.1420
18209TIP3   OH276117   1.135   2.475  16.091  0.1194  0.2174 -0.2341
18209TIP3    H176118   1.135   2.554  16.145  0.4940 -1.2938  2.1272
18209TIP3    H276119   1.224   2.440  16.099 -0.6564 -1.6739  0.7518
18210TIP3   OH276120   4.071   3.536   1.772  0.4509 -0.2940 -0.1084
18210TIP3    H176121   4.107   3.517   1.859  0.3443  1.4578  0.3565
18210TIP3    H276122   4.140   3.508   1.712  1.6820  0.8955  0.6794
18211TIP3   OH276123   2.328   4.174   1.585  0.1903  0.1374 -0.3324
18211TIP3    H176124   2.419   4.197   1.604 -0.8100  2.6438  2.3292
18211TIP3    H276125   2.301   4.123   1.661 -0.8187  0.0347 -0.7495
18212TIP3   OH276126   1.317   2.858   2.353 -0.2437  0.3128 -0.1426
18212TIP3    H176127   1.288   2.811   2.432 -0.0079 -0.5159 -0.5349
18212TIP3    H276128   1.301   2.950   2.373  1.0048  0.2509  1.3737
18213TIP3   OH276129   4.427   3.815  14.405  0.4289 -0.1365 -0.4691
18213TIP3    H176130   4.409   3.737  14.352 -1.1593  0.6567 -1.1811
18213TIP3    H276131   4.361   3.814  14.473  1.0748  0.0326  0.1704
18214TIP3   OH276132   6.551   3.712   4.109 -0.3777  0.2708 -0.0340
18214TIP3    H176133   6.494   3.635   4.103 -0.6700  0.3571  1.3473
18214TIP3    H276134   6.505   3.772   4.168  1.3057  0.1820  1.4486
18215TIP3   OH276135   3.989   2.190   1.951  0.1496 -0.0227 -0.0776
18215TIP3    H176136   3.950   2.204   1.865 -0.2921 -0.5668  0.0311
18215TIP3    H276137   3.917   2.200   2.012  0.3494 -0.2132  0.1902
18216TIP3   OH276138   0.166   2.232  16.824 -0.4661  0.0799 -0.1531
18216TIP3    H176139   0.246   2.252  16.776 -0.5894  0.4541 -0.2142
18216TIP3    H276140   0.130   2.155  16.781  0.0578 -0.3184  0.1209
18217TIP3   OH276141   4.739   2.862   4.778  0.5364 -0.2089  0.7379
18217TIP3    H176142   4.770   2.910   4.701  0.5698 -0.7610  0.4002
18217TIP3    H276143   4.766   2.916   4.853  0.9329  0.0942  0.3823
18218TIP3   OH276144   2.250   6.251   1.089 -0.5438 -0.2160  0.4644
18218TIP3    H176145   2.345   6.261   1.090 -0.5525 -0.1641  1.1069
18218TIP3    H276146   2.217   6.336   1.116 -0.7372 -0.5767  1.3961
18219TIP3   OH276147   6.345   0.649   0.948 -0.8925 -0.6614 -0.8021
18219TIP3    H176148   6.398   0.687   0.878 -1.2604 -1.9491 -1.8131
18219TIP3    H276149   6.387   0.678   1.029  0.1772 -0.0412 -1.5589
18220TIP3   OH276150   3.985   6.156   5.675 -0.2684  0.2932 -0.2461
18220TIP3    H176151   3.982   6.235   5.730  1.7007 -0.3256  0.8715
18220TIP3    H276152   3.930   6.093   5.720  0.5643  0.1006  0.5379
18221TIP3   OH276153   1.873   1.403  16.370  0.8216 -0.2861  0.0646
18221TIP3    H176154   1.838   1.348  16.440 -1.4289 -1.7259 -2.0074
18221TIP3    H276155   1.956   1.361  16.346 -0.4814 -2.4789 -0.9553
18222TIP3   OH276156   5.572   3.570  11.992 -0.3721 -0.5873  0.0518
18222TIP3    H176157   5.628   3.561  12.069 -1.0188  1.3686  0.8219
18222TIP3    H276158   5.497   3.622  12.023  0.3651  2.1449 -2.3202
18223TIP3   OH276159   2.089   6.255   0.272 -0.1413  0.2356  0.5176
18223TIP3    H176160   2.151   6.190   0.307 -1.3566  0.6085  3.6640
18223TIP3    H276161   2.032   6.204   0.214 -0.0478 -1.1895  1.6150
18224TIP3   OH276162   2.154   3.981   0.192  0.4179 -0.3793  0.0878
18224TIP3    H176163   2.215   3.929   0.141  1.0507  0.5641 -0.1471
18224TIP3    H276164   2.084   4.003   0.131  1.6436  1.5566 -0.7133
18225TIP3   OH276165   4.159   2.889  16.717  0.0607  0.4367 -0.4617
18225TIP3    H176166   4.250   2.875  16.690  0.3591  0.5830  0.4315
18225TIP3    H276167   4.155   2.853  16.806 -0.7391  0.5057 -0.4613
18226TIP3   OH276168   3.516   4.087   2.101 -0.1607  0.2694 -0.6943
18226TIP3    H176169   3.578   4.024   2.138 -0.3484 -0.4654 -1.5896
18226TIP3    H276170   3.444   4.089   2.164 -0.1563 -0.4228 -0.6587
18227TIP3   OH276171   3.601   1.457   2.453  0.0655  0.2949 -0.0793
18227TIP3    H176172   3.594   1.390   2.385  0.4143  0.2336 -0.0543
18227TIP3    H276173   3.654   1.527   2.414 -0.0063  0.4026  0.0141
18228TIP3   OH276174   2.169   1.650   0.175  0.0407  0.1468  0.1108
18228TIP3    H176175   2.159   1.654   0.080 -3.4524  1.3638  0.3611
18228TIP3    H276176   2.192   1.740   0.200  2.9564 -0.5931  0.3655
18229TIP3   OH276177   1.660   3.417   0.718  0.1582 -0.1306 -0.5828
18229TIP3    H176178   1.614   3.499   0.698  0.1064  0.0657  0.2837
18229TIP3    H276179   1.606   3.375   0.785  0.9248 -0.1771  0.0260
18230TIP3   OH276180   2.719   6.325   3.873 -0.0409  0.6067  0.2852
18230TIP3    H176181   2.647   6.387   3.882 -0.6616 -0.2574  1.6574
18230TIP3    H276182   2.682   6.253   3.821  0.2689  0.7895 -0.1922
18231TIP3   OH276183   3.264   3.310   6.576  0.1285  0.5761  0.7920
18231TIP3    H176184   3.272   3.357   6.659  2.1094  0.3136  0.8112
18231TIP3    H276185   3.330   3.240   6.582 -0.9333 -0.5768 -0.2874
18232TIP3   OH276186   6.701   6.086  14.274  0.8145 -0.1810 -0.0693
18232TIP3    H176187   6.729   6.167  14.317 -0.5880  0.1043  0.3410
18232TIP3    H276188   6.647   6.041  14.339 -1.4135  0.2929 -1.4896
18233TIP3   OH276189   6.093   6.648   1.644 -0.3790  0.7256  0.0410
18233TIP3    H176190   6.154   6.720   1.626 -0.2595  0.6425  0.1058
18233TIP3    H276191   6.098   6.636   1.739  0.7702 -0.3815 -0.1284
18234TIP3   OH276192   0.848   1.358  14.441 -0.1224 -0.3604 -0.8824
18234TIP3    H176193   0.899   1.402  14.373 -0.0128 -0.6077 -0.9609
18234TIP3    H276194   0.763   1.403  14.440  0.5984  1.1004  0.3173
18235TIP3   OH276195   3.726   0.548   4.979 -0.0969 -0.4308  0.1562
18235TIP3    H176196   3.797   0.513   4.925  0.0034  1.1332 -0.7871
18235TIP3    H276197   3.689   0.619   4.926 -1.5692 -0.4135  1.1591
18236TIP3   OH276198   4.847   5.040   3.734 -0.1365 -0.0365 -0.3522
18236TIP3    H176199   4.794   5.116   3.760 -0.9859 -0.6970 -0.1098
18236TIP3    H276200   4.937   5.067   3.752 -0.3669  1.1338 -0.8251
18237TIP3   OH276201   0.043   2.542   1.545  0.1659  0.1278 -0.2166
18237TIP3    H176202  -0.035   2.533   1.599  0.7317 -2.8252  0.3171
18237TIP3    H276203   0.015   2.514   1.457  0.4830 -0.5329 -0.1170
18238TIP3   OH276204   3.517   1.619  16.648  0.0394 -0.1259  0.1195
18238TIP3    H176205   3.526   1.526  16.625  1.5347  0.1869 -0.7099
18238TIP3    H276206   3.516   1.665  16.564 -0.1312  0.6538  0.5371
18239TIP3   OH276207   5.985   2.018   2.693  0.1975  0.0159  0.3329
18239TIP3    H176208   6.025   2.020   2.606 -0.0082  0.2248  0.2432
18239TIP3    H276209   6.000   1.929   2.725 -1.8894 -0.8449 -0.9094
18240TIP3   OH276210   1.978   4.206  13.174 -0.2029 -0.4469  0.6034
18240TIP3    H176211   2.037   4.158  13.116 -2.9582  0.3261 -3.2047
18240TIP3    H276212   2.036   4.265  13.223  2.3480 -0.7537 -1.7722
18241TIP3   OH276213   5.070   4.020   1.937  0.0662 -0.3039  0.6706
18241TIP3    H176214   5.094   4.034   2.028 -2.2658 -2.1196  1.6649
18241TIP3    H276215   4.988   4.067   1.926  0.9288  0.9367 -0.9156
18242TIP3   OH276216   0.019   6.428   1.993  0.1004  0.5266 -0.0996
18242TIP3    H176217  -0.028   6.511   1.992 -0.3795  0.2586  0.0210
18242TIP3    H276218  -0.049   6.361   1.986  0.1567  0.0074  3.0949
18243TIP3   OH276219   1.880   5.348  14.274  0.7612  0.1470 -0.5271
18243TIP3    H176220   1.920   5.325  14.358 -1.8883  1.2721  1.1589
18243TIP3    H276221   1.829   5.272  14.249  0.6095  0.2461 -0.5188
18244TIP3   OH276222   0.992   0.358   2.591  0.4459 -0.8707  0.1075
18244TIP3    H176223   0.987   0.326   2.681  0.2543 -1.3350 -0.0623
18244TIP3    H276224   0.952   0.288   2.539  0.9600 -0.8003 -0.3849
18245TIP3   OH276225   2.673   4.284  11.219 -0.1751 -0.1096  0.1702
18245TIP3    H176226   2.756   4.328  11.205 -0.6584  1.3348  1.4964
18245TIP3    H276227   2.620   4.308  11.143  0.7654 -1.4630 -0.9324
18246TIP3   OH276228   1.265   2.375   6.045 -0.6873  0.3569  0.3763
18246TIP3    H176229   1.222   2.365   6.130 -1.7408  0.5726 -0.1052
18246TIP3    H276230   1.298   2.287   6.025  0.1988  0.4621  1.3168
18247TIP3   OH276231   2.724   4.838  14.781 -0.5870 -0.6316  0.1571
18247TIP3    H176232   2.722   4.881  14.867 -1.8732  1.6802 -0.9191
18247TIP3    H276233   2.810   4.859  14.745 -1.0824  0.8597 -0.2216
18248TIP3   OH276234   2.040   5.117  13.680 -0.2633 -0.4156  0.1998
18248TIP3    H176235   1.998   5.147  13.599 -0.9713 -0.2727  0.6185
18248TIP3    H276236   1.989   5.156  13.750  1.6412  1.2990  0.7427
18249TIP3   OH276237   2.004   0.732  13.182  0.0101 -0.2179 -0.5138
18249TIP3    H176238   1.930   0.713  13.124 -0.7235 -1.1050  0.6662
18249TIP3    H276239   2.062   0.657  13.173 -1.1254 -1.4128  1.4128
18250TIP3   OH276240   4.908   4.377  14.998  0.0666  0.0448 -0.0500
18250TIP3    H176241   4.980   4.410  15.052  0.5246  1.2127 -1.3266
18250TIP3    H276242   4.890   4.448  14.936  0.3206 -1.6440 -2.1624
18251TIP3   OH276243   1.230   1.913   2.914 -0.4247  0.0497 -0.2389
18251TIP3    H176244   1.302   1.904   2.977 -0.5589 -2.3149 -0.3392
18251TIP3    H276245   1.196   2.002   2.929  1.3744  0.5760  1.0186
18252TIP3   OH276246   0.309   6.515  11.063  0.4052  0.1928 -0.6090
18252TIP3    H176247   0.273   6.450  11.124  0.0528  1.7221  0.9121
18252TIP3    H276248   0.257   6.505  10.983 -0.6065 -0.4365  0.1013
18253TIP3   OH276249   0.668   0.240   1.091 -0.0710  0.5952  0.2351
18253TIP3    H176250   0.627   0.299   1.029 -1.0276 -0.1648  0.1142
18253TIP3    H276251   0.670   0.289   1.173  2.1715  2.0124 -0.5679
18254TIP3   OH276252   1.404   4.752  14.079 -0.2003 -0.1094 -1.0628
18254TIP3    H176253   1.475   4.737  14.017 -1.6241 -1.7838 -2.4053
18254TIP3    H276254   1.349   4.818  14.038 -1.4662 -1.6454 -1.9664
18255TIP3   OH276255   3.425   5.896  12.141 -0.3561  0.2734  0.0965
18255TIP3    H176256   3.398   5.898  12.232  1.6845  1.5137  0.7526
18255TIP3    H276257   3.356   5.942  12.093 -0.7726  0.8446  1.2322
18256TIP3   OH276258   6.129   3.204   3.946 -0.4217 -0.3313  0.4264
18256TIP3    H176259   6.114   3.128   3.889 -1.5292 -0.2515  0.5993
18256TIP3    H276260   6.048   3.215   3.994  0.2010  0.1534  1.3936
18257TIP3   OH276261   0.342   3.741  16.471 -0.8297  0.2903 -0.5708
18257TIP3    H176262   0.422   3.692  16.486 -1.7293 -1.1842 -0.4568
18257TIP3    H276263   0.364   3.801  16.400  0.2261 -0.4559 -0.8959
18258TIP3   OH276264   0.900   1.538   2.254 -0.5680  0.1918  0.2780
18258TIP3    H176265   0.917   1.591   2.332  0.6158  0.4290 -0.1265
18258TIP3    H276266   0.910   1.598   2.181 -1.0459 -0.1760 -0.1010
18259TIP3   OH276267   2.549   0.319   3.520  0.3833  0.7975 -0.3164
18259TIP3    H176268   2.485   0.375   3.476 -0.8057  2.4907  3.2263
18259TIP3    H276269   2.497   0.248   3.557  1.5437 -1.3554 -2.5835
18260TIP3   OH276270   3.885   0.988   6.250 -0.3015 -0.4780 -0.4009
18260TIP3    H176271   3.845   0.903   6.231  0.7512 -0.9244 -0.7035
18260TIP3    H276272   3.974   0.981   6.216 -0.4069  1.0090 -1.0579
18261TIP3   OH276273   0.258   4.512   3.628  0.9437  0.1300 -0.6147
18261TIP3    H176274   0.280   4.517   3.534  0.3716  0.7764 -0.7238
18261TIP3    H276275   0.288   4.596   3.663 -0.0241  0.4338 -0.4858
18262TIP3   OH276276   2.858   5.100  16.066 -0.4276  0.4180  0.3616
18262TIP3    H176277   2.896   5.141  15.988 -0.7705 -0.6445 -0.4007
18262TIP3    H276278   2.843   5.009  16.040  0.2948 -0.2072  1.9818
18263TIP3   OH276279   4.489   2.555  16.706  0.2201 -0.0714 -0.3253
18263TIP3    H176280   4.575   2.551  16.748 -0.8271  0.2816  1.9729
18263TIP3    H276281   4.436   2.609  16.764 -1.7266 -0.6947 -1.4270
18264TIP3   OH276282   5.904   2.362   1.808  0.6291  0.8721  0.3878
18264TIP3    H176283   5.870   2.354   1.897 -0.2783  0.8213  0.0564
18264TIP3    H276284   5.997   2.343   1.815  0.3918 -0.0684  1.1796
18265TIP3   OH276285   0.053   5.654   4.102  0.4190  0.1921  0.6996
18265TIP3    H176286   0.018   5.564   4.101  3.2267 -1.0264  1.5977
18265TIP3    H276287   0.032   5.686   4.189  0.5379 -0.0890  0.8343
18266TIP3   OH276288   5.246   1.800  15.916  0.8133 -0.1885 -0.0085
18266TIP3    H176289   5.309   1.829  15.982  0.1231 -1.6689  1.3569
18266TIP3    H276290   5.161   1.809  15.958  0.2093  0.3219 -1.2785
18267TIP3   OH276291   0.569   6.211  11.941  0.4427  0.3556  0.6612
18267TIP3    H176292   0.555   6.263  12.020 -1.3374 -1.9473  1.9942
18267TIP3    H276293   0.484   6.212  11.896  0.4135 -1.1830  0.6347
18268TIP3   OH276294   4.872   6.886  10.232  0.4846  0.2316  0.1236
18268TIP3    H176295   4.842   6.890  10.141  1.6145 -1.1669 -0.3549
18268TIP3    H276296   4.937   6.816  10.232 -1.4505 -1.7719  2.5475
18269TIP3   OH276297   1.333   4.454  11.560  0.1565 -0.0760 -0.6281
18269TIP3    H176298   1.404   4.395  11.585  0.1357  0.7784  1.6573
18269TIP3    H276299   1.369   4.542  11.571 -0.6384  0.3684 -1.4249
18270TIP3   OH276300   6.244   5.584   4.209  0.6920  0.2994  0.4561
18270TIP3    H176301   6.287   5.652   4.260  0.8992  0.1352  0.5061
18270TIP3    H276302   6.201   5.630   4.137  0.7657  0.4881  0.5347
18271TIP3   OH276303   0.651   1.529  13.923  0.3449  0.2715 -0.7047
18271TIP3    H176304   0.648   1.551  14.016  0.5163  0.5258 -0.7588
18271TIP3    H276305   0.683   1.608  13.881  1.5047 -0.2560 -0.8395
18272TIP3   OH276306   2.557   4.520   5.162  0.3180  0.1257 -0.6111
18272TIP3    H176307   2.470   4.480   5.162  0.2472  0.2431  0.6840
18272TIP3    H276308   2.617   4.449   5.140  0.3267 -1.1026  2.7536
18273TIP3   OH276309   6.395   1.451  16.012  0.6673  0.5072  0.0327
18273TIP3    H176310   6.379   1.472  15.920  0.2268 -0.9534 -0.2554
18273TIP3    H276311   6.480   1.406  16.012  1.3163  1.6969  0.5449
18274TIP3   OH276312   4.110   2.870   2.246 -0.3529 -0.3520 -0.2567
18274TIP3    H176313   4.136   2.935   2.311 -0.7212  0.1218 -0.5693
18274TIP3    H276314   4.113   2.917   2.163  0.1998 -0.9741 -0.5951
18275TIP3   OH276315   6.130   5.688  14.702 -0.1053  0.1650  0.2227
18275TIP3    H176316   6.144   5.652  14.615 -1.2398  1.9692 -0.7651
18275TIP3    H276317   6.192   5.641  14.758 -0.8053 -2.5420 -1.1173
18276TIP3   OH276318   4.313   0.708   0.137  0.1916  0.2361  0.3078
18276TIP3    H176319   4.398   0.736   0.102  0.2732  0.9026  1.0070
18276TIP3    H276320   4.251   0.727   0.067  0.8080 -1.8268 -0.8989
18277TIP3   OH276321   2.877   0.462  15.964 -0.3334  0.0958  0.1449
18277TIP3    H176322   2.914   0.546  15.936  1.5479 -0.5599  0.5535
18277TIP3    H276323   2.876   0.409  15.885 -2.6056  0.8013 -0.3852
18278TIP3   OH276324   5.662   6.012   3.197 -0.1853 -0.6989  0.3778
18278TIP3    H176325   5.756   6.002   3.184 -0.2206 -0.2420 -0.2953
18278TIP3    H276326   5.642   6.101   3.166 -0.4572  0.1549  2.8422
18279TIP3   OH276327   0.621   0.113  16.886 -0.3578 -0.2396  0.5012
18279TIP3    H176328   0.573   0.136  16.806 -0.5642 -2.1182  0.0301
18279TIP3    H276329   0.566   0.046  16.928  0.2492 -0.0167  1.6836
18280TIP3   OH276330   3.054   5.241   4.683 -0.1496  0.0924  0.1724
18280TIP3    H176331   3.006   5.169   4.725  0.9464 -0.6457  0.2068
18280TIP3    H276332   2.992   5.277   4.619 -0.5100 -1.3097 -0.3124
18281TIP3   OH276333   1.354   6.158   1.268 -0.3573  0.3055  0.5227
18281TIP3    H176334   1.290   6.109   1.218 -0.0580  0.3059  0.1357
18281TIP3    H276335   1.367   6.239   1.218 -1.0193  0.8981  1.2680
18282TIP3   OH276336   3.430   0.987  12.358 -0.1110  0.1683  0.0710
18282TIP3    H176337   3.519   1.022  12.350 -0.4145  0.6805 -1.3108
18282TIP3    H276338   3.375   1.053  12.317 -1.6248  1.6369  4.0024
18283TIP3   OH276339   5.066   5.022  15.171  0.4055  0.5577  0.0468
18283TIP3    H176340   4.984   4.975  15.188  1.2179 -0.6375  0.8928
18283TIP3    H276341   5.084   5.005  15.078 -0.3296  0.8728 -0.1569
18284TIP3   OH276342   2.222   3.915   1.340  0.5161 -0.0144 -0.1164
18284TIP3    H176343   2.143   3.965   1.357 -0.0882  0.7825 -4.3034
18284TIP3    H276344   2.278   3.973   1.288  3.2359 -1.1259  1.3110
18285TIP3   OH276345   0.456   5.764  11.267  0.7827 -0.0440  0.6106
18285TIP3    H176346   0.434   5.853  11.240  1.8644  0.0828  0.0991
18285TIP3    H276347   0.458   5.769  11.363 -0.8460  0.0517  0.6572
18286TIP3   OH276348   6.486   5.367   4.730 -0.1456 -0.1853  0.2170
18286TIP3    H176349   6.420   5.430   4.701 -1.5062 -1.0414  1.3219
18286TIP3    H276350   6.510   5.395   4.818 -0.0135 -0.6282  0.3262
18287TIP3   OH276351   0.911   4.372  12.206  0.0143  0.2241  0.1586
18287TIP3    H176352   0.832   4.321  12.191  1.3299 -3.0575  2.8537
18287TIP3    H276353   0.882   4.445  12.260 -1.1752 -1.5146  2.0417
18288TIP3   OH276354   4.471   4.078  11.470 -0.2338 -0.5775  0.8057
18288TIP3    H176355   4.551   4.122  11.497  1.3337 -1.3359 -2.1262
18288TIP3    H276356   4.423   4.143  11.419 -0.1033 -0.9296  0.2241
18289TIP3   OH276357   1.223   6.273  15.554  0.2336  1.0325  0.0031
18289TIP3    H176358   1.243   6.324  15.633  0.1435  0.9700  0.0659
18289TIP3    H276359   1.292   6.297  15.492  0.1427  1.2958  0.0025
18290TIP3   OH276360   5.704   1.283   1.235 -0.3635 -0.1270 -0.2059
18290TIP3    H176361   5.785   1.238   1.211 -0.5222 -0.2944 -0.4287
18290TIP3    H276362   5.730   1.344   1.303  0.0046  0.0247 -0.4809
18291TIP3   OH276363   0.124   2.155  12.664  0.6409  0.2014 -0.1180
18291TIP3    H176364   0.172   2.075  12.686 -1.5256 -1.1000  0.1097
18291TIP3    H276365   0.130   2.161  12.569 -0.7224 -1.3218 -0.3445
18292TIP3   OH276366   0.147   1.958  15.941 -0.1453 -0.2629  0.5037
18292TIP3    H176367   0.061   1.955  15.983 -0.5470  2.1059 -0.0344
18292TIP3    H276368   0.162   2.050  15.921  1.8250 -0.7988 -0.8920
18293TIP3   OH276369   5.425   4.454   4.391  0.6347 -0.1974 -0.1085
18293TIP3    H176370   5.418   4.508   4.312  1.0983 -1.2676 -0.8953
18293TIP3    H276371   5.428   4.518   4.463 -3.3807  0.7665 -0.5726
18294TIP3   OH276372   3.111   6.676  11.078  0.1377 -0.0785 -0.7882
18294TIP3    H176373   3.165   6.754  11.091 -1.8927  1.1977  0.6777
18294TIP3    H276374   3.034   6.691  11.133 -0.9547 -2.5388 -1.5012
18295TIP3   OH276375   5.567   3.176   4.903 -0.0432 -0.0318 -1.0217
18295TIP3    H176376   5.583   3.271   4.897  1.3581 -0.2861 -1.7321
18295TIP3    H276377   5.654   3.137   4.896 -0.4772 -1.3486  0.4203
18296TIP3   OH276378   6.661   6.378   3.911  0.2600  0.3926  0.2813
18296TIP3    H176379   6.695   6.402   3.825  0.9762 -0.3610  0.3415
18296TIP3    H276380   6.661   6.461   3.960  1.8057  0.4767  0.1994
18297TIP3   OH276381   0.777   4.814  12.791  0.3755  0.6872 -0.4608
18297TIP3    H176382   0.754   4.857  12.874 -0.4193  0.9355 -0.8047
18297TIP3    H276383   0.872   4.823  12.786  0.3122  1.6810 -0.1212
18298TIP3   OH276384   4.944   3.521   1.566 -0.2511  0.2939 -0.2008
18298TIP3    H176385   4.852   3.494   1.570 -0.1428 -0.1436 -0.6707
18298TIP3    H276386   4.974   3.515   1.657  0.0988 -2.3655 -0.4070
18299TIP3   OH276387   6.337   2.544  11.975  0.4878 -0.5460  0.0277
18299TIP3    H176388   6.402   2.613  11.980  0.0676 -0.0090 -1.3790
18299TIP3    H276389   6.326   2.514  12.065  1.7434  0.2099  0.4524
18300TIP3   OH276390   6.326   3.716  13.100 -0.7332  0.1841  0.1217
18300TIP3    H176391   6.259   3.766  13.053  0.4880  1.6476 -0.1558
18300TIP3    H276392   6.342   3.766  13.180  0.8733  0.5672 -0.3902
18301TIP3   OH276393   0.801   3.865  10.228 -0.0322 -0.6651  0.3529
18301TIP3    H176394   0.744   3.937  10.255 -0.4038  0.5150 -3.0286
18301TIP3    H276395   0.778   3.849  10.136  1.9866 -3.2519  0.1543
18302TIP3   OH276396   4.264   5.602  12.623 -0.1697  0.8284  0.0715
18302TIP3    H176397   4.315   5.551  12.686 -0.1391 -0.0738 -0.6646
18302TIP3    H276398   4.307   5.585  12.538 -0.6635  1.4121 -0.3010
18303TIP3   OH276399   1.187   3.456  14.574  0.0368 -0.7632 -0.0621
18303TIP3    H176400   1.244   3.493  14.642 -0.2633 -0.3469 -0.0350
18303TIP3    H276401   1.101   3.452  14.615  0.5174 -4.0564  0.9309
18304TIP3   OH276402   3.393   5.961  12.718  0.0303 -0.1394  0.0286
18304TIP3    H176403   3.315   5.927  12.673  0.0479 -1.3746  0.8607
18304TIP3    H276404   3.467   5.921  12.672  0.0955 -0.3805  0.3359
18305TIP3   OH276405   4.719   1.457  13.699  0.1458 -0.4215  0.0158
18305TIP3    H176406   4.631   1.482  13.724  0.7082  0.0155  1.6926
18305TIP3    H276407   4.707   1.378  13.646 -1.1967 -1.0527  1.1870
18306TIP3   OH276408   3.917   6.079   1.753 -0.1996  0.5728 -0.2474
18306TIP3    H176409   3.993   6.067   1.810 -0.5352 -0.6034 -0.0106
18306TIP3    H276410   3.842   6.080   1.814 -0.8734 -3.6134 -0.7120
18307TIP3   OH276411   5.129   4.677   4.713 -0.6195 -0.6341  0.2013
18307TIP3    H176412   5.148   4.606   4.774  0.3619 -1.4955 -1.0833
18307TIP3    H276413   5.214   4.716   4.693 -0.7344 -1.1931 -1.5760
18308TIP3   OH276414   1.202   2.805   0.153  0.0315  0.1697 -0.5415
18308TIP3    H176415   1.196   2.815   0.058  2.2408 -1.8899 -0.9990
18308TIP3    H276416   1.293   2.826   0.174 -0.4314  0.6228  1.1520
18309TIP3   OH276417   6.658   4.733  14.999  0.3632  0.1500 -0.2380
18309TIP3    H176418   6.708   4.749  14.920  0.9440  2.1298  0.4663
18309TIP3    H276419   6.603   4.811  15.009  0.4981  0.0800  1.4277
18310TIP3   OH276420   4.886   4.552   4.624  0.6096 -0.7476 -0.5985
18310TIP3    H176421   4.956   4.608   4.658  0.6082 -0.4457 -1.0730
18310TIP3    H276422   4.894   4.560   4.529 -1.3659  0.9950 -0.7028
18311TIP3   OH276423   1.729   4.978  14.933 -0.4519 -0.4948 -0.2512
18311TIP3    H176424   1.719   5.066  14.971  0.2564  0.1830 -1.5372
18311TIP3    H276425   1.808   4.943  14.974 -0.6989 -0.4968  0.2210
18312TIP3   OH276426   1.109   3.845   4.440 -0.7588 -0.8376 -0.8411
18312TIP3    H176427   1.118   3.818   4.348  1.2496 -1.0158 -0.6549
18312TIP3    H276428   1.050   3.781   4.478 -0.2245 -1.8415 -1.6292
18313TIP3   OH276429   0.758   4.096  15.588 -0.5965  0.4278  0.0790
18313TIP3    H176430   0.732   4.169  15.533 -0.1125  0.2405 -0.4072
18313TIP3    H276431   0.811   4.040  15.531 -4.1012 -2.3871 -0.8301
18314TIP3   OH276432   5.302   4.298  15.042 -0.4339  0.0999 -0.4083
18314TIP3    H176433   5.372   4.253  15.090 -1.0919  0.2238  0.7069
18314TIP3    H276434   5.309   4.264  14.953 -0.3997 -1.6457  0.2106
18315TIP3   OH276435   1.182   1.596   3.424  0.0012 -0.1768  0.6405
18315TIP3    H176436   1.170   1.564   3.335  0.2552 -0.5106  0.7273
18315TIP3    H276437   1.227   1.525   3.470 -1.4897 -0.6397  1.4485
18316TIP3   OH276438   5.793   6.799  15.213  0.0039  0.6591  0.3558
18316TIP3    H176439   5.746   6.873  15.173  0.1456  1.1644  1.1146
18316TIP3    H276440   5.871   6.789  15.159 -0.8167 -0.0217 -0.7654
18317TIP3   OH276441   6.257   5.413   0.257 -0.1360  0.0387 -0.3256
18317TIP3    H176442   6.196   5.344   0.282 -0.2652  0.2955  0.0962
18317TIP3    H276443   6.273   5.399   0.164  0.9576 -1.4250  0.0403
18318TIP3   OH276444   0.138   4.339   0.612  0.4111 -0.2641 -0.0310
18318TIP3    H176445   0.233   4.334   0.597  0.4160  0.7902 -0.4810
18318TIP3    H276446   0.115   4.428   0.584 -0.2610  0.4650  2.5792
18319TIP3   OH276447   3.608   3.135  13.207 -0.2380 -0.0133 -0.2417
18319TIP3    H176448   3.514   3.148  13.199 -0.1984  1.2969  0.8581
18319TIP3    H276449   3.631   3.182  13.288  1.2317 -0.9881 -0.0554
18320TIP3   OH276450   5.488   6.340  15.426  0.3040 -0.2067 -0.4453
18320TIP3    H176451   5.522   6.413  15.478  0.0174 -0.6081  0.3221
18320TIP3    H276452   5.513   6.361  15.336  1.6208  0.0356 -0.0390
18321TIP3   OH276453   4.257   5.554   4.393  0.5421  0.3571 -0.2018
18321TIP3    H176454   4.298   5.560   4.306 -0.3747 -0.6024 -0.7204
18321TIP3    H276455   4.166   5.532   4.375  0.4167 -0.1964  1.0239
18322TIP3   OH276456   2.395   6.769  14.289  0.1041  0.6172  0.1244
18322TIP3    H176457   2.454   6.839  14.318  0.4961  1.0964 -1.7042
18322TIP3    H276458   2.454   6.698  14.264 -0.1498  0.6465 -0.5700
18323TIP3   OH276459   3.141   2.501   1.180 -0.2134 -0.4937 -0.3129
18323TIP3    H176460   3.221   2.508   1.233 -1.0177 -1.0440  1.0196
18323TIP3    H276461   3.171   2.516   1.090  0.9323  2.2075  0.4213
18324TIP3   OH276462   5.776   3.971  11.092 -0.0457  0.6524 -0.0042
18324TIP3    H176463   5.759   3.978  11.186 -2.2975 -1.5080 -0.1605
18324TIP3    H276464   5.690   3.956  11.053  1.2004 -2.1325 -1.9898
18325TIP3   OH276465   1.619   1.905  11.513  0.6000  0.4607 -0.2885
18325TIP3    H176466   1.693   1.962  11.491  1.2071  0.0798  0.7020
18325TIP3    H276467   1.594   1.931  11.601  0.2916 -0.1933 -0.1767
18326TIP3   OH276468   0.742   3.310  11.324  0.3067 -0.4085  0.2030
18326TIP3    H176469   0.653   3.284  11.346 -0.8000  3.3241  0.8871
18326TIP3    H276470   0.780   3.337  11.408  0.6787  1.5521 -0.5331
18327TIP3   OH276471   0.695   1.269  11.356  0.0554 -0.1304  0.2127
18327TIP3    H176472   0.660   1.288  11.443  0.3659 -0.7793  0.4836
18327TIP3    H276473   0.640   1.321  11.297 -2.4988 -2.3234  0.4483
18328TIP3   OH276474   6.799   3.071  13.954  0.1951 -0.0059 -0.0133
18328TIP3    H176475   6.709   3.092  13.931  0.5244  1.2402 -0.2701
18328TIP3    H276476   6.850   3.100  13.878  0.8900  0.2210  0.5287
18329TIP3   OH276477   0.127   4.274  12.507  0.6083 -0.5508 -0.3486
18329TIP3    H176478   0.150   4.267  12.600  0.5457  1.7435 -0.1109
18329TIP3    H276479   0.210   4.292  12.463  0.1492  2.3296 -0.1793
18330TIP3   OH276480   2.668   0.770  14.756 -0.2022 -0.0401 -0.4929
18330TIP3    H176481   2.575   0.788  14.745 -0.1075  1.1298  0.4274
18330TIP3    H276482   2.675   0.675  14.756 -1.2796 -0.1283 -1.4525
18331TIP3   OH276483   0.625   2.401  15.900 -0.0842 -0.1486 -0.1397
18331TIP3    H176484   0.603   2.359  15.984 -0.9419 -0.9040 -0.7288
18331TIP3    H276485   0.557   2.467  15.888  1.1404  1.3342  0.6786
18332TIP3   OH276486   2.388   5.741   5.298 -0.5422 -0.0153 -0.7224
18332TIP3    H176487   2.439   5.663   5.321 -0.1944  0.3749 -0.1397
18332TIP3    H276488   2.325   5.750   5.370  1.3545  1.9225  0.8558
18333TIP3   OH276489   6.792   3.459  13.166 -0.0256  0.5960 -0.3832
18333TIP3    H176490   6.720   3.420  13.216  0.6990 -0.6810 -0.2738
18333TIP3    H276491   6.757   3.541  13.132 -0.8968  0.9476  1.2812
18334TIP3   OH276492   2.070   6.679   5.863  0.1743 -0.5519  0.0724
18334TIP3    H176493   2.033   6.602   5.819  0.0040 -0.6782  0.4307
18334TIP3    H276494   2.042   6.670   5.954 -1.5694  0.9807 -0.2534
18335TIP3   OH276495   0.335   3.301  16.300 -0.0610 -0.6295 -0.0732
18335TIP3    H176496   0.245   3.333  16.291 -0.4576 -1.0899  1.7310
18335TIP3    H276497   0.387   3.381  16.306 -0.7104 -0.2673  1.5445
18336TIP3   OH276498   2.079   3.288  12.806  0.0638 -0.0906 -0.1080
18336TIP3    H176499   2.173   3.271  12.802  0.1515  0.3246  0.1615
18336TIP3    H276500   2.044   3.218  12.861 -0.1451 -1.6753 -2.1126
18337TIP3   OH276501   2.451   5.223   2.087 -0.0291  0.0408  0.4466
18337TIP3    H176502   2.396   5.231   2.165  0.9248 -0.8759  1.2370
18337TIP3    H276503   2.431   5.136   2.052 -0.7437  0.5940 -0.5921
18338TIP3   OH276504   2.675   1.679  14.062  0.2825  0.4989 -0.1564
18338TIP3    H176505   2.694   1.626  14.140 -0.7921 -1.0343 -0.9055
18338TIP3    H276506   2.580   1.689  14.062  0.3194  0.9554 -0.9801
18339TIP3   OH276507   4.727   3.203   4.150 -0.9453 -0.2416  0.3633
18339TIP3    H176508   4.631   3.195   4.150 -0.9693  0.0532  0.3473
18339TIP3    H276509   4.750   3.213   4.242 -0.9289 -0.3356  0.3688
18340TIP3   OH276510   2.119   6.514   2.603 -0.0479  0.4697  0.1263
18340TIP3    H176511   2.209   6.540   2.619  1.0154 -1.6831 -1.7657
18340TIP3    H276512   2.115   6.498   2.509 -2.3657  0.3473  0.1864
18341TIP3   OH276513   5.254   1.491  16.358  0.3805  0.1600  0.1826
18341TIP3    H176514   5.248   1.579  16.321  1.4427 -0.1382 -0.7209
18341TIP3    H276515   5.164   1.471  16.384 -0.3624  0.5538 -1.8566
18342TIP3   OH276516   2.432   2.547   1.180 -0.7541 -0.0607 -0.1554
18342TIP3    H176517   2.369   2.606   1.220  1.2735  1.0925  1.5739
18342TIP3    H276518   2.455   2.589   1.097 -0.0881  1.0994  0.5893
18343TIP3   OH276519   4.452   1.400   2.622 -0.2054 -0.6737  0.5616
18343TIP3    H176520   4.375   1.345   2.635 -1.6295  1.4636  1.8845
18343TIP3    H276521   4.458   1.409   2.527 -1.5764 -0.9635  0.4146
18344TIP3   OH276522   6.019   5.332  14.929  0.2383  0.5998 -0.5202
18344TIP3    H176523   5.956   5.264  14.905 -0.3888  0.1135  2.1150
18344TIP3    H276524   6.000   5.404  14.870 -0.7807 -0.6068 -1.7433
18345TIP3   OH276525   5.913   0.507  12.148 -0.1128  0.4160 -0.1531
18345TIP3    H176526   5.971   0.540  12.079  1.1819 -2.0822 -0.3995
18345TIP3    H276527   5.971   0.489  12.221 -1.2789  1.7601  1.1553
18346TIP3   OH276528   4.379   4.742   1.932  0.4785  0.1647  0.0479
18346TIP3    H176529   4.458   4.794   1.916  1.8143 -2.2853 -2.0940
18346TIP3    H276530   4.386   4.717   2.024  2.6481 -0.5701 -0.2497
18347TIP3   OH276531   5.433   1.263  12.612 -0.3581  0.2499  0.1364
18347TIP3    H176532   5.441   1.243  12.518 -2.7711  0.9626 -0.2848
18347TIP3    H276533   5.522   1.286  12.638  0.1405  1.5291 -2.3474
18348TIP3   OH276534   4.520   2.689   2.907  0.1694 -0.4678  0.1754
18348TIP3    H176535   4.594   2.653   2.858 -0.7483  0.5301 -2.0583
18348TIP3    H276536   4.449   2.627   2.892  0.1164 -0.6637  1.1249
18349TIP3   OH276537   5.165   3.921   1.339  0.3745  0.0914 -0.3000
18349TIP3    H176538   5.154   3.939   1.432  0.5375  1.9391 -0.6121
18349TIP3    H276539   5.134   4.000   1.295  0.4510 -0.6829 -1.8260
18350TIP3   OH276540   3.050   0.050  15.776 -1.0588 -0.0886 -0.1569
18350TIP3    H176541   3.017  -0.019  15.834 -0.8387 -0.6953 -0.7400
18350TIP3    H276542   3.141   0.025  15.758 -0.7820  0.6841  0.1081
18351TIP3   OH276543   4.808   2.494  12.839  0.0574 -0.2793 -0.3137
18351TIP3    H176544   4.828   2.424  12.901  1.2936  1.3043  1.1639
18351TIP3    H276545   4.824   2.455  12.753  0.5251 -1.8593  0.4529
18352TIP3   OH276546   5.833   6.709  10.482  0.3684 -0.0746  0.4185
18352TIP3    H176547   5.846   6.703  10.577  0.2402  0.7021  0.4953
18352TIP3    H276548   5.810   6.621  10.455 -2.2338  0.1757  1.5183
18353TIP3   OH276549   1.027   5.836   0.265 -0.3118 -0.1857 -0.1518
18353TIP3    H176550   1.003   5.914   0.314  1.7594 -0.3749  1.2866
18353TIP3    H276551   0.999   5.854   0.175  1.1002  2.7065 -0.1096
18354TIP3   OH276552   5.135   0.043   1.789 -0.3909  0.0350 -0.4700
18354TIP3    H176553   5.122  -0.041   1.833  0.8225  0.4338  0.7474
18354TIP3    H276554   5.155   0.021   1.698  0.7926 -1.0750  0.0308
18355TIP3   OH276555   4.357   3.074  11.940 -0.3354 -0.3903 -0.3179
18355TIP3    H176556   4.427   3.009  11.946  1.0480  1.1663  1.9463
18355TIP3    H276557   4.373   3.119  11.857  2.1320  0.6733  0.6458
18356TIP3   OH276558   0.797   4.942  15.543 -0.4788  0.3181  0.5360
18356TIP3    H176559   0.704   4.920  15.541 -0.4900  0.3508  0.6648
18356TIP3    H276560   0.842   4.861  15.521 -0.4394 -0.3665  2.9078
18357TIP3   OH276561   1.468   0.337  12.164  0.3208 -0.5910 -0.2226
18357TIP3    H176562   1.402   0.357  12.230  0.1039  1.1965 -0.9025
18357TIP3    H276563   1.419   0.336  12.081  0.9311 -0.4653 -0.5933
18358TIP3   OH276564   3.441   1.614   4.350  0.2887 -0.4421  0.7821
18358TIP3    H176565   3.434   1.696   4.302 -0.8571 -0.3726  1.0508
18358TIP3    H276566   3.521   1.623   4.401  1.2783 -0.3186 -0.7023
18359TIP3   OH276567   4.916   5.038  13.653 -0.4357  0.1858 -0.0802
18359TIP3    H176568   4.830   5.045  13.694 -0.7538 -0.9200 -0.5252
18359TIP3    H276569   4.938   4.945  13.659  0.6406  0.4167 -0.1581
18360TIP3   OH276570   5.937   1.438   0.356  0.3849 -0.0216  0.0290
18360TIP3    H176571   5.970   1.513   0.305 -0.7517  1.4248  1.3179
18360TIP3    H276572   5.867   1.401   0.302  0.6350  0.1398 -0.4094
18361TIP3   OH276573   1.243   1.272  10.810  0.4761  0.1971  0.0625
18361TIP3    H176574   1.221   1.274  10.717  1.6976 -0.7643 -0.2857
18361TIP3    H276575   1.166   1.306  10.854 -0.6206 -0.5239 -1.2277
18362TIP3   OH276576   1.800   6.300   5.120 -0.2137 -0.4353 -0.5036
18362TIP3    H176577   1.889   6.297   5.155 -0.5738 -0.7700  0.4167
18362TIP3    H276578   1.761   6.377   5.162 -1.4274 -2.2068  1.8522
18363TIP3   OH276579   1.886   2.210  10.723  0.1326 -0.0302 -0.2962
18363TIP3    H176580   1.862   2.120  10.700 -0.9230  0.1478  0.0235
18363TIP3    H276581   1.976   2.204  10.755  0.4883 -0.7799 -1.3895
18364TIP3   OH276582   6.810   5.271   3.257 -0.2549 -0.1967  0.8387
18364TIP3    H176583   6.810   5.289   3.163 -3.2192 -0.1928  0.7355
18364TIP3    H276584   6.886   5.214   3.271  0.6002  0.2879 -1.4334
18365TIP3   OH276585   2.191   3.985  14.868  0.4453 -0.6027  0.1548
18365TIP3    H176586   2.168   3.987  14.775 -1.0856  0.4692  0.5012
18365TIP3    H276587   2.196   4.078  14.893  1.2134 -0.8763  1.0601
18366TIP3   OH276588   0.664   0.323   2.169  0.9917 -0.3803 -0.2409
18366TIP3    H176589   0.733   0.390   2.168  0.1862  0.5374 -3.0996
18366TIP3    H276590   0.712   0.240   2.161  1.8216  0.1795 -1.3477
18367TIP3   OH276591   3.339   2.719   1.532  0.2751  0.1866 -0.1594
18367TIP3    H176592   3.322   2.633   1.569 -2.2931  0.7085  0.0294
18367TIP3    H276593   3.336   2.779   1.607 -1.4263  0.8229 -0.6966
18368TIP3   OH276594   6.018   3.937   2.649 -0.0525 -0.4122  0.0106
18368TIP3    H176595   6.095   3.930   2.706 -0.1668  1.3584  0.4339
18368TIP3    H276596   5.945   3.905   2.702  0.0774 -0.1846  0.3254
18369TIP3   OH276597   3.787   5.245  10.528 -0.1833  0.1522 -0.3479
18369TIP3    H176598   3.717   5.308  10.507 -0.8984  0.7104  3.0967
18369TIP3    H276599   3.746   5.160  10.516 -0.7189  0.4266 -0.5411
18370TIP3   OH276600   6.840   5.247   1.904 -0.2458 -0.0981  0.1085
18370TIP3    H176601   6.914   5.293   1.945 -1.3694  0.8598  1.1460
18370TIP3    H276602   6.839   5.161   1.946 -0.9236  0.6076  1.5780
18371TIP3   OH276603   3.566   3.336  11.554  0.0642 -0.7823  0.0283
18371TIP3    H176604   3.632   3.266  11.549  3.0050  1.4556  2.9325
18371TIP3    H276605   3.553   3.349  11.648 -1.7038  1.4104 -0.4510
18372TIP3   OH276606   2.699   5.368  10.233 -0.7639  0.3340  0.3564
18372TIP3    H176607   2.711   5.284  10.188 -2.2223 -0.3235  1.0928
18372TIP3    H276608   2.720   5.434  10.168  0.5508 -0.5980 -0.2048
18373TIP3   OH276609   6.735   3.064  12.864  0.2082 -0.0184 -0.1974
18373TIP3    H176610   6.705   2.976  12.888  1.5807 -0.0982  1.4068
18373TIP3    H276611   6.660   3.120  12.883 -0.3053 -0.6987 -0.1531
18374TIP3   OH276612   2.484   5.560  10.367 -0.7292  0.5510  0.1558
18374TIP3    H176613   2.570   5.595  10.349 -0.4948  0.4694  1.0360
18374TIP3    H276614   2.446   5.541  10.281 -0.1965  1.3384 -0.2641
18375TIP3   OH276615   5.560   4.070   3.475 -0.1224 -0.7072 -0.2074
18375TIP3    H176616   5.480   4.091   3.427  0.0090  0.5317  0.0842
18375TIP3    H276617   5.562   3.974   3.476 -2.1214 -0.8039  0.6387
18376TIP3   OH276618   5.660   3.809  10.569 -0.0134  0.2496 -0.0684
18376TIP3    H176619   5.661   3.843  10.479 -1.7072  1.3435  0.2813
18376TIP3    H276620   5.685   3.885  10.623 -0.8376  0.1178  0.5084
18377TIP3   OH276621   6.217   3.037   6.053  0.3089 -0.0453  0.6279
18377TIP3    H176622   6.167   2.956   6.057  1.4673 -0.7405  1.9403
18377TIP3    H276623   6.201   3.080   6.137 -0.1717  1.0481  0.0112
18378TIP3   OH276624   0.886   6.538   5.429 -0.1944  0.3953 -0.7857
18378TIP3    H176625   0.894   6.463   5.488  1.5977  1.6814  0.7085
18378TIP3    H276626   0.796   6.569   5.443  0.8411  2.2303  3.4207
18379TIP3   OH276627   5.560   3.133  12.888 -0.2624  0.1639 -0.4684
18379TIP3    H176628   5.587   3.154  12.977 -1.1485  1.5572 -0.4849
18379TIP3    H276629   5.634   3.159  12.833  0.0395 -0.1000 -0.1825
18380TIP3   OH276630   5.879   2.739  10.989 -0.0011 -0.0960 -0.5520
18380TIP3    H176631   5.799   2.743  11.042  0.3828  0.9563 -0.0355
18380TIP3    H276632   5.881   2.649  10.957 -0.7456 -0.4904  0.4390
18381TIP3   OH276633   0.396   1.632  10.467 -0.3617 -0.2822 -0.0149
18381TIP3    H176634   0.361   1.582  10.541  0.0549  0.1305  0.4772
18381TIP3    H276635   0.400   1.570  10.395 -0.8200 -0.6829  0.2952
18382TIP3   OH276636   3.884   0.866   3.972  0.5460 -0.7813 -0.6676
18382TIP3    H176637   3.833   0.894   3.896  0.1568 -0.2491 -0.2132
18382TIP3    H276638   3.820   0.824   4.030  0.7814 -0.8827 -0.4782
18383TIP3   OH276639   4.666   5.439   5.413  0.5497  0.1404  0.2927
18383TIP3    H176640   4.633   5.358   5.454 -0.3991  1.0714  1.4244
18383TIP3    H276641   4.587   5.486   5.387  1.1124  0.0953 -1.6780
18384TIP3   OH276642   5.650   4.582   0.141  0.5311  0.2351  0.2852
18384TIP3    H176643   5.739   4.546   0.145 -0.0839 -1.4026 -0.1469
18384TIP3    H276644   5.602   4.534   0.209 -0.3652  0.1020 -0.4344
18385TIP3   OH276645   4.465   3.213  12.793 -0.2440 -0.1474  0.3976
18385TIP3    H176646   4.494   3.254  12.874 -1.0309 -0.7881  1.0262
18385TIP3    H276647   4.407   3.278  12.753 -0.5520 -0.1682  0.7974
18386TIP3   OH276648   4.120   4.390   3.519  0.0363 -0.3918 -0.1714
18386TIP3    H176649   4.178   4.407   3.594 -0.6804  1.8519 -0.0407
18386TIP3    H276650   4.050   4.335   3.555 -0.0139  0.2223  0.7169
18387TIP3   OH276651   0.537   0.880  15.616 -0.2978 -0.1231  0.8281
18387TIP3    H176652   0.621   0.919  15.593 -1.1697  2.8464  2.1346
18387TIP3    H276653   0.546   0.859  15.709 -0.9665  0.2793  0.9920
18388TIP3   OH276654   5.531   6.266  14.077 -0.4911 -0.3438 -0.4314
18388TIP3    H176655   5.497   6.182  14.109  0.3177 -0.3598  0.4230
18388TIP3    H276656   5.589   6.243  14.005 -1.9161 -0.3487 -1.6063
18389TIP3   OH276657   1.393   2.836  16.508  0.1476 -0.0113 -0.6123
18389TIP3    H176658   1.405   2.924  16.544 -0.3641  0.0918 -0.6748
18389TIP3    H276659   1.393   2.848  16.413 -0.3383 -0.0074 -0.6187
18390TIP3   OH276660   0.263   3.327   1.304  0.6912  0.1209  0.6599
18390TIP3    H176661   0.326   3.324   1.232 -0.1147  0.4584 -0.0802
18390TIP3    H276662   0.254   3.420   1.325  1.4475 -0.0269  1.6824
18391TIP3   OH276663   4.870   5.527   4.955 -0.4788 -0.0729 -0.8551
18391TIP3    H176664   4.823   5.539   5.038  1.1307  0.6111  0.0104
18391TIP3    H276665   4.831   5.449   4.916 -0.6193 -1.0004  1.0390
18392TIP3   OH276666   0.173   6.267  11.130  0.0329 -0.1949  0.0837
18392TIP3    H176667   0.119   6.340  11.160 -0.1331 -0.5730  0.7170
18392TIP3    H276668   0.126   6.189  11.158  0.0037 -0.5659 -0.9434
18393TIP3   OH276669   0.549   0.926  13.430 -0.3298 -0.5969  0.2338
18393TIP3    H176670   0.474   0.949  13.484 -0.5573 -0.1494 -0.2613
18393TIP3    H276671   0.562   1.003  13.374  1.0038 -0.3219  0.8746
18394TIP3   OH276672   0.168   6.801  15.824 -0.0742  0.5805  0.1480
18394TIP3    H176673   0.196   6.746  15.896  0.1722 -0.4673 -0.7153
18394TIP3    H276674   0.096   6.753  15.782  1.4480 -0.1259 -1.8290
18395TIP3   OH276675   3.621   3.113   4.990  0.5220  0.3519  0.1956
18395TIP3    H176676   3.695   3.166   4.959  1.6647 -0.8971  0.6814
18395TIP3    H276677   3.544   3.166   4.970  1.6105  2.3693  1.0085
18396TIP3   OH276678   0.594   5.461   2.738  0.3727 -0.2456 -0.4738
18396TIP3    H176679   0.669   5.402   2.741  1.3791  0.8828 -1.9227
18396TIP3    H276680   0.618   5.533   2.796 -0.7461 -1.0729  1.0935
18397TIP3   OH276681   5.862   1.652  13.697 -0.2594 -0.1300  0.1666
18397TIP3    H176682   5.810   1.686  13.624 -0.9101 -1.3968  0.0135
18397TIP3    H276683   5.813   1.577  13.728  0.0654  0.3255  1.8705
18398TIP3   OH276684   1.452   0.670  10.694  0.3468  0.5237  0.0864
18398TIP3    H176685   1.403   0.711  10.765 -0.2182 -2.1196  1.3267
18398TIP3    H276686   1.399   0.686  10.616 -0.0622  1.7145  0.5827
18399TIP3   OH276687   4.311   0.185   3.249 -0.0046 -0.5297 -0.5767
18399TIP3    H176688   4.364   0.250   3.297 -1.2264  1.4035 -1.7271
18399TIP3    H276689   4.317   0.106   3.303  1.2610  0.6135  1.0903
18400TIP3   OH276690   6.234   0.347  13.902  0.3490  0.1229 -0.3730
18400TIP3    H176691   6.145   0.329  13.872 -0.4703  0.9549  1.4254
18400TIP3    H276692   6.273   0.260  13.912 -0.9252 -0.3685  0.6687
18401TIP3   OH276693   4.888   4.571   3.960 -0.1801 -0.3243 -0.1195
18401TIP3    H176694   4.901   4.479   3.935  0.2442 -0.6013  1.0805
18401TIP3    H276695   4.834   4.568   4.039 -1.3925  0.5377 -0.8741
18402TIP3   OH276696   0.969   5.170   1.735 -0.1307 -0.7258 -1.1182
18402TIP3    H176697   0.984   5.222   1.814  0.1159 -0.9097 -1.0452
18402TIP3    H276698   0.948   5.235   1.667  1.7244 -0.3830 -1.4183
18403TIP3   OH276699   3.466   3.970  16.148  0.0230 -0.1177  0.1872
18403TIP3    H176700   3.473   3.876  16.164 -0.3703  0.3107  3.8151
18403TIP3    H276701   3.556   4.000  16.142  0.1898 -0.5792  0.3143
18404TIP3   OH276702   6.381   2.460   3.107  0.0534  0.2524  0.1405
18404TIP3    H176703   6.313   2.526   3.119  0.2521  1.0753 -2.5491
18404TIP3    H276704   6.457   2.496   3.155 -0.1961  1.4168 -0.2934
18405TIP3   OH276705   3.039   4.851   5.082  0.1237 -0.1363 -0.1803
18405TIP3    H176706   3.115   4.794   5.074  0.2539  0.1545 -1.3051
18405TIP3    H276707   3.050   4.895   5.166  1.0870 -0.2481 -0.2364
18406TIP3   OH276708   6.289   0.721   3.739  0.0850  0.0607 -0.1594
18406TIP3    H176709   6.212   0.775   3.758 -1.4786 -2.3447  0.7763
18406TIP3    H276710   6.311   0.742   3.649 -0.5266  2.1019  0.1011
18407TIP3   OH276711   2.871   2.727   5.924 -0.2916  0.5647 -0.8224
18407TIP3    H176712   2.920   2.702   6.002  0.6891 -1.8219 -2.0927
18407TIP3    H276713   2.808   2.792   5.955  1.0871  0.8782  1.6133
18408TIP3   OH276714   0.389   1.012   1.601  0.1297 -0.2749  0.6214
18408TIP3    H176715   0.372   1.106   1.609 -1.7868 -0.6399  1.3822
18408TIP3    H276716   0.385   0.994   1.507  0.0441  0.3188  0.5100
18409TIP3   OH276717   5.874   6.691   5.852  0.9668  0.4227 -0.1583
18409TIP3    H176718   5.907   6.693   5.942  0.4988 -1.5624  0.0951
18409TIP3    H276719   5.851   6.782   5.834 -0.7723  0.6219  2.4284
18410TIP3   OH276720   1.768   1.686  11.287 -0.1904  0.8979  0.2237
18410TIP3    H176721   1.718   1.604  11.288 -1.2072  1.4603 -1.1421
18410TIP3    H276722   1.857   1.659  11.309 -0.1590 -0.8717 -1.7048
18411TIP3   OH276723   4.706   1.055  12.334 -0.1161 -0.3376 -0.6205
18411TIP3    H176724   4.678   0.976  12.379 -1.6823 -0.3198 -1.4969
18411TIP3    H276725   4.639   1.070  12.267 -0.0408  1.9177 -0.2715
18412TIP3   OH276726   5.797   6.740  16.663  0.1817 -0.2279 -0.2469
18412TIP3    H176727   5.865   6.717  16.600  0.1037  1.1840 -0.8588
18412TIP3    H276728   5.752   6.815  16.625  0.0429  0.5787  1.4059
18413TIP3   OH276729   0.069   1.720   0.540 -0.0796 -0.5918 -0.0512
18413TIP3    H176730   0.036   1.810   0.550 -1.9973 -1.3425  0.9444
18413TIP3    H276731   0.003   1.677   0.486  1.4283 -1.1319 -1.5115
18414TIP3   OH276732   3.397   0.278   1.749 -0.6514  0.3068  0.1998
18414TIP3    H176733   3.459   0.255   1.680 -1.2855  1.6161 -0.8492
18414TIP3    H276734   3.320   0.223   1.730 -0.0233 -0.9671  1.2183
18415TIP3   OH276735   1.283   0.515  14.604  0.7062  0.6640  0.3472
18415TIP3    H176736   1.272   0.434  14.654 -1.1060  0.3599 -0.4770
18415TIP3    H276737   1.368   0.549  14.632  1.8073 -1.8283  0.2856
18416TIP3   OH276738   5.925   1.042  10.810  0.1196 -0.3524  0.2161
18416TIP3    H176739   5.963   0.956  10.829 -0.0948 -0.3497  0.6858
18416TIP3    H276740   5.919   1.046  10.715 -0.9328 -1.3322  0.2131
18417TIP3   OH276741   6.730   2.674  10.253 -0.0994  0.0347  0.2227
18417TIP3    H176742   6.681   2.593  10.239 -0.3759  0.2938 -0.3058
18417TIP3    H276743   6.781   2.657  10.332 -0.6344 -0.4286  0.4766
18418TIP3   OH276744   4.521   1.214   0.776 -0.0818  0.3466 -0.3018
18418TIP3    H176745   4.557   1.211   0.688 -0.1812  1.6463 -0.4173
18418TIP3    H276746   4.595   1.239   0.832  0.3186 -1.8459  0.2270
18419TIP3   OH276747   5.216   1.343  15.022  1.0828  0.4110 -0.6608
18419TIP3    H176748   5.159   1.409  15.061  1.2638  0.2706 -0.1457
18419TIP3    H276749   5.213   1.270  15.083  1.6032  0.2982 -0.7654
18420TIP3   OH276750   5.900   5.358   3.632 -1.3419  0.3144  0.5605
18420TIP3    H176751   5.926   5.339   3.722  0.8579  2.1733  0.3962
18420TIP3    H276752   5.808   5.381   3.638 -1.6834 -1.2404  2.0507
18421TIP3   OH276753   4.027   4.655  11.703  0.5941  0.0305 -0.1431
18421TIP3    H176754   3.938   4.626  11.688 -0.2609  2.1793  0.3046
18421TIP3    H276755   4.019   4.749  11.721  2.9384  0.2875 -0.0371
18422TIP3   OH276756   0.384   3.630   4.475 -0.0768  0.9247  0.1007
18422TIP3    H176757   0.469   3.626   4.517  0.5933  0.5269 -1.2194
18422TIP3    H276758   0.336   3.555   4.509  0.2724  0.8755  0.4863
18423TIP3   OH276759   4.635   6.640  13.453 -0.0399  0.6397 -0.2102
18423TIP3    H176760   4.655   6.600  13.368 -2.6459  0.2999 -0.7525
18423TIP3    H276761   4.557   6.594  13.483  0.5734  1.0431  2.2169
18424TIP3   OH276762   6.727   6.697   4.303 -0.4930  0.2627  0.9610
18424TIP3    H176763   6.711   6.790   4.322  0.0114 -0.0823  3.3279
18424TIP3    H276764   6.654   6.651   4.342 -0.4991 -0.3992  0.1943
18425TIP3   OH276765   5.542   5.126  14.089  0.2661 -0.2336 -0.0236
18425TIP3    H176766   5.461   5.141  14.138  0.0397 -0.6503 -0.2552
18425TIP3    H276767   5.596   5.072  14.147 -0.6733 -2.1453 -0.8383
18426TIP3   OH276768   1.857   5.844  12.540 -0.5229  0.1700  0.0342
18426TIP3    H176769   1.940   5.875  12.505  0.2261 -0.0716  1.5392
18426TIP3    H276770   1.878   5.762  12.584 -1.3477  0.5805  1.2560
18427TIP3   OH276771   5.717   1.553   1.431 -0.5223 -0.6604 -0.5888
18427TIP3    H176772   5.725   1.485   1.498  0.2169 -2.3652 -2.3127
18427TIP3    H276773   5.807   1.582   1.416 -0.2585 -2.4126 -2.8472
18428TIP3   OH276774   0.625   6.090  13.846 -0.9656 -0.5679  0.4320
18428TIP3    H176775   0.635   6.142  13.926  0.2144 -0.8779  0.5048
18428TIP3    H276776   0.708   6.101  13.800 -1.0912 -1.5467 -0.0584
18429TIP3   OH276777   1.010   2.220  12.208 -0.0340 -0.1282 -0.2156
18429TIP3    H176778   0.941   2.280  12.178 -0.2003  0.1071  0.6000
18429TIP3    H276779   0.992   2.138  12.164 -0.1118  0.2745 -0.9547
18430TIP3   OH276780   5.900   1.941   3.682  0.0401  0.2134  0.1906
18430TIP3    H176781   5.942   1.877   3.625 -0.2390  1.8229 -1.9502
18430TIP3    H276782   5.952   1.940   3.762  2.0815 -0.2728 -1.0764
18431TIP3   OH276783   0.582   1.045   3.046  0.9124 -0.2164 -0.0236
18431TIP3    H176784   0.515   1.107   3.015  0.4627 -0.7231 -0.0787
18431TIP3    H276785   0.604   1.076   3.133  0.2126 -0.3424  0.2082
18432TIP3   OH276786   1.259   5.773  13.117 -0.3309 -0.1668 -0.5315
18432TIP3    H176787   1.244   5.814  13.202  0.0024  1.0652 -1.0565
18432TIP3    H276788   1.353   5.756  13.114 -0.0705  1.2585 -1.2778
18433TIP3   OH276789   4.344   0.682  14.426  0.6466  0.9766 -0.0553
18433TIP3    H176790   4.425   0.693  14.475  0.9166  0.3996 -0.3618
18433TIP3    H276791   4.365   0.713  14.338 -0.5494  4.4659  0.7315
18434TIP3   OH276792   4.755   5.122  15.263  0.4500  0.4813 -0.0930
18434TIP3    H176793   4.725   5.120  15.172 -0.2116 -1.2558  0.1263
18434TIP3    H276794   4.775   5.031  15.283 -0.0023  0.7449  1.7021
18435TIP3   OH276795   3.204   3.739   0.744 -0.5376  0.2525  0.2830
18435TIP3    H176796   3.192   3.672   0.677  1.6396 -0.8526  0.8990
18435TIP3    H276797   3.124   3.735   0.796 -0.7048 -1.5195 -0.0298
18436TIP3   OH276798   4.463   0.859   2.717 -0.3877  0.6176  0.2621
18436TIP3    H176799   4.511   0.783   2.751 -1.3810  0.0792  0.5083
18436TIP3    H276800   4.492   0.931   2.773 -0.4859  0.1337  0.9655
18437TIP3   OH276801   2.320   4.189   1.298  0.3436 -0.1566  0.1475
18437TIP3    H176802   2.282   4.188   1.386  0.4183 -1.0698  0.1686
18437TIP3    H276803   2.256   4.239   1.246  0.8113  1.3267  0.9223
18438TIP3   OH276804   3.873   6.284  15.093  0.3381  0.2348 -0.3883
18438TIP3    H176805   3.816   6.358  15.073 -0.8661 -0.1888  1.2258
18438TIP3    H276806   3.855   6.220  15.024 -0.9913  0.2120 -0.0467
18439TIP3   OH276807   6.545   3.010  14.376  0.3257 -0.0903 -0.3089
18439TIP3    H176808   6.582   3.080  14.429 -0.2402 -0.0371  0.0315
18439TIP3    H276809   6.572   2.930  14.420  0.2511 -0.0587 -0.2044
18440TIP3   OH276810   5.036   6.298   0.108 -0.1287 -0.0078  0.4697
18440TIP3    H176811   4.958   6.343   0.142  1.2065  1.5075  1.6963
18440TIP3    H276812   5.010   6.206   0.102 -2.3436  0.5895 -0.2167
18441TIP3   OH276813   4.924   0.964  14.478  0.0871  0.0779  0.5717
18441TIP3    H176814   4.961   1.035  14.530  1.8610  0.2651 -0.8302
18441TIP3    H276815   4.901   1.006  14.395 -2.2303 -0.3054  0.9714
18442TIP3   OH276816   5.884   5.110  10.882  0.1389 -0.1334 -0.2288
18442TIP3    H176817   5.810   5.122  10.942 -0.9934  2.4479 -1.9546
18442TIP3    H276818   5.844   5.084  10.800  1.2304  0.5482 -1.0029
18443TIP3   OH276819   6.825   4.787  14.146  0.8550  0.0594  0.2275
18443TIP3    H176820   6.892   4.853  14.127 -0.2237  1.5586  1.4362
18443TIP3    H276821   6.797   4.806  14.235  0.5891 -2.1552  0.6713
18444TIP3   OH276822   3.457   2.979   4.792 -0.4747 -0.0894  0.1095
18444TIP3    H176823   3.507   3.049   4.749 -0.0821  0.9006  2.0895
18444TIP3    H276824   3.501   2.966   4.876 -1.7913 -1.2829  0.6479
18445TIP3   OH276825   5.756   0.902  15.284 -0.2260 -0.4928 -0.1000
18445TIP3    H176826   5.678   0.953  15.265 -0.8202 -0.7874  1.4036
18445TIP3    H276827   5.756   0.891  15.380  0.0827 -2.9374 -0.2959
18446TIP3   OH276828   3.654   5.123  13.945  0.2611 -0.3168 -0.3655
18446TIP3    H176829   3.739   5.089  13.974  1.1386  0.7139 -1.5964
18446TIP3    H276830   3.663   5.218  13.952 -1.5544 -0.1994  1.4512
18447TIP3   OH276831   6.858   0.115  13.614  0.5098  0.0437  0.6014
18447TIP3    H176832   6.814   0.123  13.698 -0.3359  2.1277  0.0227
18447TIP3    H276833   6.910   0.195  13.605  2.3878 -1.1577  0.0917
18448TIP3   OH276834   5.440   6.654  13.640 -0.0138  0.5165  0.3160
18448TIP3    H176835   5.515   6.712  13.629  1.1712 -1.4426 -3.6929
18448TIP3    H276836   5.389   6.664  13.560 -0.6706 -2.6195  0.1987
18449TIP3   OH276837   1.409   5.438  10.628 -0.1289 -0.4522 -0.1411
18449TIP3    H176838   1.475   5.417  10.563 -0.9334 -0.7779 -0.8745
18449TIP3    H276839   1.374   5.523  10.601  0.8259  0.3160  0.9458
18450TIP3   OH276840   3.809   3.933   1.194 -0.5382  0.7425  0.2410
18450TIP3    H176841   3.775   3.853   1.232  1.9855 -0.7498 -0.4101
18450TIP3    H276842   3.856   3.976   1.266 -2.1227  1.8360  0.6628
18451TIP3   OH276843   6.668   6.636   3.481  0.2974 -0.1841  0.9417
18451TIP3    H176844   6.600   6.656   3.545 -1.5316 -0.0903 -0.9299
18451TIP3    H276845   6.708   6.720   3.461 -1.8573  0.5115 -0.8980
18452TIP3   OH276846   5.567   4.799  16.796  0.1598 -0.2864  0.6467
18452TIP3    H176847   5.661   4.808  16.814  0.7523 -0.5330 -1.8918
18452TIP3    H276848   5.549   4.867  16.730 -0.7824 -1.9397 -0.9002
18453TIP3   OH276849   5.029   3.459   2.490  0.0708  0.3052  0.9271
18453TIP3    H176850   5.101   3.427   2.436 -0.1455  0.8489  0.3063
18453TIP3    H276851   5.070   3.524   2.548 -0.1947  2.0049 -0.6809
18454TIP3   OH276852   3.941   3.498   2.124  0.0238  0.1953 -0.1834
18454TIP3    H176853   4.027   3.513   2.085  0.5081  3.4447  1.7201
18454TIP3    H276854   3.957   3.432   2.192  0.2697 -1.4643 -1.7636
18455TIP3   OH276855   5.026   4.076  16.254 -0.4278  0.5393  0.2910
18455TIP3    H176856   4.933   4.054  16.258 -0.0451 -1.9169 -1.7097
18455TIP3    H276857   5.035   4.127  16.174  0.0866 -0.4169 -0.2878
18456TIP3   OH276858   2.730   2.601   5.336 -0.2977 -0.7108 -0.2081
18456TIP3    H176859   2.639   2.629   5.326  0.6148  2.2482 -1.6011
18456TIP3    H276860   2.751   2.556   5.255 -0.7403 -2.3117  0.5286
18457TIP3   OH276861   6.674   0.632   2.019 -0.2046  0.3338 -0.5247
18457TIP3    H176862   6.586   0.596   2.028 -0.1347 -0.4278 -2.5111
18457TIP3    H276863   6.673   0.676   1.934  1.3733  0.1783 -0.6458
18458TIP3   OH276864   1.054   3.699   2.237 -0.1045 -0.7149  0.3355
18458TIP3    H176865   1.006   3.618   2.218 -0.4159 -0.5933  0.5924
18458TIP3    H276866   0.987   3.760   2.267  0.2740 -0.7193  1.2497
18459TIP3   OH276867   6.448   6.232  12.163 -0.1902 -0.1342 -0.2369
18459TIP3    H176868   6.397   6.184  12.097 -0.7654  0.0484  0.0643
18459TIP3    H276869   6.482   6.164  12.221  0.0875 -0.2745 -0.5670
18460TIP3   OH276870   6.072   5.061  10.498  0.2566  0.3134  0.3887
18460TIP3    H176871   5.989   5.105  10.480  0.6015  0.3020 -1.4653
18460TIP3    H276872   6.071   4.984  10.441  0.8193 -0.6397  1.6158
18461TIP3   OH276873   3.268   1.767   0.454  0.0676 -0.8526 -0.5161
18461TIP3    H176874   3.324   1.721   0.392 -0.3747 -0.0918 -1.5009
18461TIP3    H276875   3.230   1.698   0.508 -0.0558 -1.5963 -1.5218
18462TIP3   OH276876   6.856   3.961   0.324  0.0555 -0.7192  0.2590
18462TIP3    H176877   6.776   3.923   0.360  0.2534 -1.8110 -0.4064
18462TIP3    H276878   6.883   4.026   0.390 -1.8170  0.3091  0.1059
18463TIP3   OH276879   1.303   3.645  13.410 -0.3235  0.0668 -0.3384
18463TIP3    H176880   1.381   3.648  13.354 -0.7631  0.3650 -0.9468
18463TIP3    H276881   1.232   3.678  13.354 -0.7493  0.5048  0.4435
18464TIP3   OH276882   6.546   4.914   1.648  0.5503  0.1066  0.6366
18464TIP3    H176883   6.558   4.860   1.726 -1.1177  1.0344  1.5889
18464TIP3    H276884   6.589   4.997   1.668  0.4035  0.2318  0.4417
18465TIP3   OH276885   2.651   4.759  12.473 -0.4206 -0.2056  0.1611
18465TIP3    H176886   2.716   4.734  12.408 -0.8515 -0.5829 -0.1300
18465TIP3    H276887   2.674   4.709  12.551  1.4629  1.9002  1.0757
18466TIP3   OH276888   1.837   5.597   4.476  0.2173  0.3128 -0.5124
18466TIP3    H176889   1.852   5.505   4.498 -2.1959  0.1912  0.8622
18466TIP3    H276890   1.882   5.645   4.545  1.8193  0.2456 -1.4470
18467TIP3   OH276891   6.618   5.545  15.872 -0.0410  0.2546  0.2097
18467TIP3    H176892   6.542   5.572  15.924  0.6897 -0.9554  2.0019
18467TIP3    H276893   6.597   5.456  15.843  1.1551 -0.5749  1.7711
18468TIP3   OH276894   3.529   6.108   4.648  0.2064  0.2024  0.2745
18468TIP3    H176895   3.448   6.146   4.613 -0.5056  0.1720  1.7806
18468TIP3    H276896   3.513   6.013   4.646 -0.4096  0.2369  1.8511
18469TIP3   OH276897   6.489   2.522  11.265 -0.0025  0.2268  0.3195
18469TIP3    H176898   6.397   2.498  11.276  0.3096 -0.5449  1.5191
18469TIP3    H276899   6.528   2.507  11.352  1.0347  1.5327  0.1131
18470TIP3   OH276900   0.483   6.096   1.453 -0.4163 -0.4391  0.1625
18470TIP3    H176901   0.569   6.132   1.432 -0.8184  0.0477 -0.7057
18470TIP3    H276902   0.488   6.075   1.546 -0.1935  1.9506  0.7520
18471TIP3   OH276903   3.706   2.125  13.562  0.2802 -0.5497  0.0970
18471TIP3    H176904   3.752   2.209  13.555  1.5937 -0.7806  3.8774
18471TIP3    H276905   3.719   2.084  13.476 -0.4914  3.0369 -1.9234
18472TIP3   OH276906   0.746   2.386   0.460  0.4109  0.0581  0.2135
18472TIP3    H176907   0.789   2.469   0.479 -0.2187  0.5761 -0.5440
18472TIP3    H276908   0.810   2.319   0.487  1.4284  0.7933 -0.2910
18473TIP3   OH276909   5.371   2.650  15.272 -0.0380  0.3165  0.1957
18473TIP3    H176910   5.465   2.644  15.257  0.0767 -0.2355  1.0711
18473TIP3    H276911   5.362   2.718  15.339 -0.0776 -1.0048  1.5798
18474TIP3   OH276912   6.717   6.268   4.652 -0.4367 -0.1533 -0.2387
18474TIP3    H176913   6.636   6.252   4.604  0.1707 -0.2246 -1.2773
18474TIP3    H276914   6.753   6.181   4.668  0.6308 -0.0726 -1.9432
18475TIP3   OH276915   5.293   6.015   1.174 -0.5613 -0.1053  0.0433
18475TIP3    H176916   5.331   5.927   1.177 -1.5512 -0.5514  0.0326
18475TIP3    H276917   5.202   6.003   1.203 -1.2975  0.5749 -1.8164
18476TIP3   OH276918   1.820   4.556   0.770  0.0347  0.5087  0.5385
18476TIP3    H176919   1.822   4.479   0.826 -0.9440 -0.5465 -0.8219
18476TIP3    H276920   1.875   4.620   0.816  1.7287 -1.3258  1.2063
18477TIP3   OH276921   2.219   0.694   3.816 -1.0096  0.3301 -0.1836
18477TIP3    H176922   2.276   0.617   3.808 -0.7261  0.5244 -0.0822
18477TIP3    H276923   2.169   0.696   3.734 -0.1031  0.7546 -0.7519
18478TIP3   OH276924   6.289   2.860  15.033 -0.1627 -0.2340 -0.0067
18478TIP3    H176925   6.370   2.908  15.049  0.6625 -1.2571 -1.0058
18478TIP3    H276926   6.313   2.790  14.973 -1.9206 -0.1755 -0.8624
18479TIP3   OH276927   5.754   1.795  10.134  0.3218 -0.1809 -0.0473
18479TIP3    H176928   5.697   1.730  10.092  0.0509 -0.4402  0.7118
18479TIP3    H276929   5.730   1.792  10.226  0.2950  1.0204 -0.0049
18480TIP3   OH276930   3.553   3.787  14.240  0.2275  0.4055  0.0014
18480TIP3    H176931   3.517   3.875  14.248  0.8457  0.8227 -1.4780
18480TIP3    H276932   3.635   3.790  14.291 -0.9632 -0.1043  2.0846
18481TIP3   OH276933   5.353   4.268   5.999  0.2775  0.1574  0.0711
18481TIP3    H176934   5.443   4.267   5.966 -0.2121  2.1536 -1.5448
18481TIP3    H276935   5.351   4.341   6.061  0.0408 -0.6882  1.0970
18482TIP3   OH276936   0.749   6.323  14.546  0.6636 -0.0065  0.3960
18482TIP3    H176937   0.776   6.233  14.527 -1.3173 -0.6602  0.4978
18482TIP3    H276938   0.740   6.325  14.642 -0.7958 -0.1914  0.2859
18483TIP3   OH276939   1.574   5.184  16.242 -0.5568  0.2171  0.5591
18483TIP3    H176940   1.658   5.218  16.273 -0.6533  0.0290  1.0442
18483TIP3    H276941   1.592   5.150  16.154 -0.4004  1.2758  0.1735
18484TIP3   OH276942   5.540   3.821   2.872 -0.1352 -0.4140 -0.3412
18484TIP3    H176943   5.614   3.838   2.931 -0.5350 -1.7393  0.5918
18484TIP3    H276944   5.544   3.892   2.808  0.7342  0.6914  0.8736
18485TIP3   OH276945   1.960   6.093   0.100 -0.2690 -0.6508 -0.5296
18485TIP3    H176946   1.869   6.120   0.091 -0.4618 -0.3173  1.8107
18485TIP3    H276947   1.996   6.100   0.011 -1.8063  1.8341 -1.0499
18486TIP3   OH276948   3.076   2.475   2.862  0.2504  0.1496 -0.2935
18486TIP3    H176949   3.097   2.501   2.952 -0.6951 -1.4247  0.4262
18486TIP3    H276950   2.981   2.468   2.861  0.1891  0.8808 -1.6594
18487TIP3   OH276951   3.950   3.990   2.073 -0.3044  0.1554  0.0115
18487TIP3    H176952   3.885   4.010   2.006 -1.4538 -1.2116  0.6703
18487TIP3    H276953   4.009   3.927   2.031 -0.7845 -0.3888  0.1443
18488TIP3   OH276954   2.427   2.487   0.325 -0.2757  0.3116 -0.0454
18488TIP3    H176955   2.356   2.477   0.262 -0.4754  1.2789  0.0114
18488TIP3    H276956   2.384   2.514   0.406  0.1948  1.5253 -0.1764
18489TIP3   OH276957   2.157   3.815  15.559 -0.2183 -0.1504 -0.0616
18489TIP3    H176958   2.132   3.798  15.649 -1.4121 -0.4117 -0.4271
18489TIP3    H276959   2.075   3.811  15.509  0.1686  1.5589 -0.9362
18490TIP3   OH276960   1.695   4.168   1.251 -0.5880 -0.3720  0.1530
18490TIP3    H176961   1.761   4.231   1.280 -0.1556 -0.2717 -0.9896
18490TIP3    H276962   1.618   4.187   1.304 -0.3555  0.9054  0.0585
18491TIP3   OH276963   4.027   2.175   6.455 -0.3421 -0.2967 -0.1763
18491TIP3    H176964   4.071   2.144   6.376 -3.0433 -2.3024 -1.0428
18491TIP3    H276965   3.934   2.173   6.433 -1.1634 -0.1460  2.8202
18492TIP3   OH276966   4.735   2.493   3.233  0.5814 -0.1677  0.0169
18492TIP3    H176967   4.749   2.587   3.231  1.1257 -0.2215  0.7995
18492TIP3    H276968   4.757   2.464   3.144  0.8597  0.3843 -0.1001
18493TIP3   OH276969   2.958   6.359   4.993 -0.0278 -0.2925  0.4670
18493TIP3    H176970   2.997   6.387   4.911  0.2878  0.1709  0.7724
18493TIP3    H276971   2.867   6.340   4.971 -0.8784  3.0115  0.6346
18494TIP3   OH276972   3.933   0.084  15.889 -0.3019  0.0898  0.5079
18494TIP3    H176973   3.941   0.154  15.824  0.0408 -1.2131 -0.9109
18494TIP3    H276974   3.943   0.003  15.839 -0.7517 -0.9973  2.0884
18495TIP3   OH276975   1.106   4.364   3.075  0.0501  0.0381 -0.0713
18495TIP3    H176976   1.100   4.269   3.076  0.2125  0.0298  0.1009
18495TIP3    H276977   1.112   4.387   2.982 -2.4264  0.0249 -0.3098
18496TIP3   OH276978   5.705   3.945   3.106 -0.7867  0.0785  0.5768
18496TIP3    H176979   5.774   3.990   3.058 -0.9543 -1.6792 -1.4568
18496TIP3    H276980   5.728   3.959   3.198  1.0802  1.3104 -0.0051
18497TIP3   OH276981   1.464   1.589  13.132 -0.1386  0.1323 -0.0921
18497TIP3    H176982   1.392   1.642  13.097  0.1408  0.7312  0.2315
18497TIP3    H276983   1.433   1.499  13.123  0.7783  0.0409 -3.8949
18498TIP3   OH276984   6.297   5.211  16.231  0.2277 -0.3978  0.3893
18498TIP3    H176985   6.217   5.246  16.270  0.1919 -0.6447  0.5438
18498TIP3    H276986   6.357   5.285  16.228 -0.2903  0.0004 -0.5100
18499TIP3   OH276987   1.845   0.291  12.277 -0.3126 -0.0533 -0.1802
18499TIP3    H176988   1.933   0.329  12.286 -0.9964  1.7194 -0.5993
18499TIP3    H276989   1.861   0.200  12.252  1.4061 -0.4966  2.1836
18500TIP3   OH276990   3.743   4.076  15.083 -0.1528 -0.2387  0.3983
18500TIP3    H176991   3.672   4.123  15.040 -0.9250 -0.9413  0.8534
18500TIP3    H276992   3.721   4.080  15.176  0.4428 -0.4095  0.5496
18501TIP3   OH276993   3.761   4.780  12.349 -0.6445 -0.3840 -0.0151
18501TIP3    H176994   3.689   4.736  12.303 -0.6385 -0.4076 -0.0024
18501TIP3    H276995   3.731   4.786  12.440 -0.6209 -0.4128 -0.0054
18502TIP3   OH276996   0.280   3.132   5.829 -0.2313 -0.4827 -0.0684
18502TIP3    H176997   0.374   3.133   5.811 -0.3057  0.1193 -0.4516
18502TIP3    H276998   0.274   3.114   5.923  0.2550 -0.8197 -0.0986
18503TIP3   OH276999   5.558   4.091   0.023  0.1501  0.1553 -0.2484
18503TIP3    H177000   5.604   4.054   0.098 -0.5418  1.6027  0.9336
18503TIP3    H277001   5.570   4.185   0.030  0.0541  0.3422 -1.9727
18504TIP3   OH277002   0.685   3.500   5.716 -0.8726 -0.4670  0.2568
18504TIP3    H177003   0.681   3.496   5.812 -1.9020  2.8174  0.4763
18504TIP3    H277004   0.765   3.549   5.697 -0.3917 -1.5613 -0.6281
18505TIP3   OH277005   4.542   0.482  15.071 -0.0068  0.7118  0.8125
18505TIP3    H177006   4.579   0.414  15.126  0.8314  1.4069  1.1268
18505TIP3    H277007   4.478   0.526  15.127 -0.2616  0.4421  0.7355
18506TIP3   OH277008   2.955   0.892  12.765 -0.0485 -0.3294 -0.8569
18506TIP3    H177009   3.033   0.839  12.751  0.4593  0.6896 -2.1378
18506TIP3    H277010   2.941   0.935  12.681 -1.2356  0.5032 -0.2524
18507TIP3   OH277011   4.362   3.498  12.079  0.0174  0.1195  0.8189
18507TIP3    H177012   4.376   3.412  12.040  3.0290 -0.4490  2.8209
18507TIP3    H277013   4.293   3.485  12.144 -1.7460  0.0373 -0.9622
18508TIP3   OH277014   0.252   4.582   2.492 -0.0172 -0.0951  0.4726
18508TIP3    H177015   0.314   4.514   2.465  2.2427  1.6286  1.0082
18508TIP3    H277016   0.223   4.621   2.410  0.4283 -0.2359  0.2427
18509TIP3   OH277017   3.669   2.946  15.063 -0.1105 -0.2303 -0.2413
18509TIP3    H177018   3.750   2.996  15.057 -1.1877  1.6319 -0.1912
18509TIP3    H277019   3.695   2.855  15.050  1.9765  0.3102 -0.1188
18510TIP3   OH277020   3.879   2.460  16.095 -0.3652  0.0473  0.0025
18510TIP3    H177021   3.943   2.480  16.163 -1.0254 -0.7347  0.8984
18510TIP3    H277022   3.800   2.508  16.122 -1.5044 -2.4146  1.3792
18511TIP3   OH277023   0.512   4.036  16.499 -0.4135  0.0473  0.3374
18511TIP3    H177024   0.530   3.961  16.555 -2.4950 -2.1192 -1.6401
18511TIP3    H277025   0.572   4.025  16.426 -0.5455  0.4320  0.1724
18512TIP3   OH277026   5.736   4.562  16.494  0.3162  0.2187 -0.1885
18512TIP3    H177027   5.648   4.601  16.494 -0.1071 -0.7083 -0.6947
18512TIP3    H277028   5.794   4.634  16.521 -0.5289  0.9925 -0.3828
18513TIP3   OH277029   5.552   2.138   2.918  0.2432 -0.4215 -0.1922
18513TIP3    H177030   5.539   2.045   2.898  1.9440 -1.4299  2.7206
18513TIP3    H277031   5.641   2.157   2.888 -0.2385  0.3930 -1.1256
18514TIP3   OH277032   4.593   3.495   3.722 -0.3324 -0.2014 -0.4892
18514TIP3    H177033   4.544   3.439   3.662  1.4712  0.2045 -2.4255
18514TIP3    H277034   4.651   3.435   3.769 -1.6209 -0.4933  0.8260
18515TIP3   OH277035   1.983   4.747   4.464 -0.3193  0.1727 -0.1014
18515TIP3    H177036   1.892   4.724   4.446  0.1079 -2.0138  0.1490
18515TIP3    H277037   1.979   4.832   4.506 -2.0815  0.9326 -1.6885
18516TIP3   OH277038   0.733   4.603  13.074 -0.3320  0.8233 -0.2592
18516TIP3    H177039   0.649   4.609  13.119 -1.4625 -1.1576 -1.9258
18516TIP3    H277040   0.749   4.690  13.039 -0.6678  1.7360  1.7437
18517TIP3   OH277041   3.311   6.740  13.618  0.4659 -0.8438  0.2731
18517TIP3    H177042   3.362   6.807  13.571  1.1410 -1.0019  0.7615
18517TIP3    H277043   3.351   6.737  13.705  1.1015 -2.5876 -0.0495
18518TIP3   OH277044   6.233   0.260  13.598 -0.2609  0.2428  0.0579
18518TIP3    H177045   6.248   0.353  13.614  0.3056  0.1289  0.2160
18518TIP3    H277046   6.313   0.231  13.554 -0.3402 -0.2214  0.2232
18519TIP3   OH277047   5.740   1.928   3.321 -0.0972  0.6068 -0.1324
18519TIP3    H177048   5.828   1.930   3.283 -0.6071  1.5269 -1.3533
18519TIP3    H277049   5.689   1.873   3.261 -0.0689 -1.0650  1.3129
18520TIP3   OH277050   0.377   5.251  16.133 -0.2893  0.1929 -0.0048
18520TIP3    H177051   0.449   5.310  16.153 -1.0403  2.1889 -2.6882
18520TIP3    H277052   0.300   5.293  16.172 -0.5717  0.0705 -0.4209
18521TIP3   OH277053   5.794   4.573   4.326 -0.4052  0.1453 -0.8414
18521TIP3    H177054   5.871   4.616   4.290 -1.2578  1.4472 -1.1773
18521TIP3    H277055   5.727   4.642   4.331 -1.1524 -0.6168  0.7001
18522TIP3   OH277056   6.639   6.890   5.271 -0.3510 -0.2189  0.1421
18522TIP3    H177057   6.667   6.799   5.267 -1.3486 -0.5997  1.2005
18522TIP3    H277058   6.689   6.934   5.202  0.9054 -1.3493  0.2936
18523TIP3   OH277059   2.802   3.337   2.345 -0.3324 -0.0454  0.4657
18523TIP3    H177060   2.849   3.327   2.428 -0.9794 -2.5982  0.6238
18523TIP3    H277061   2.750   3.257   2.338 -1.0543  0.5608 -1.9438
18524TIP3   OH277062   1.179   3.509  12.184  0.5141  0.0318 -0.5888
18524TIP3    H177063   1.159   3.466  12.101 -0.5370  0.6843 -0.6987
18524TIP3    H277064   1.264   3.475  12.209 -0.2418 -2.0446 -0.7101
18525TIP3   OH277065   0.753   6.524  15.996 -0.2002  0.5687  0.1339
18525TIP3    H177066   0.694   6.599  16.000 -0.1952  0.5934 -0.2455
18525TIP3    H277067   0.757   6.492  16.086  1.1779  2.0675  0.6447
18526TIP3   OH277068   5.962   6.043  12.251 -0.3519  0.5873 -0.4341
18526TIP3    H177069   5.886   5.995  12.282 -1.0265  1.2818 -0.9701
18526TIP3    H277070   5.954   6.129  12.292  1.1148  0.1260  0.9304
18527TIP3   OH277071   5.536   4.327  12.070 -0.4900  0.4490  0.0661
18527TIP3    H177072   5.487   4.246  12.084 -1.2541  0.7508 -0.7506
18527TIP3    H277073   5.478   4.382  12.018  0.9643  0.5723 -1.5216
18528TIP3   OH277074   1.943   2.031   0.081 -0.4552 -0.1873  0.6685
18528TIP3    H177075   1.876   2.100   0.082 -0.0072  0.2838 -0.3753
18528TIP3    H277076   1.898   1.955   0.044 -0.7683 -0.2740  1.2109
18529TIP3   OH277077   0.946   4.515  10.280  0.1164  0.5793  0.1946
18529TIP3    H177078   1.027   4.492  10.235  1.1137  0.6860  1.8372
18529TIP3    H277079   0.938   4.610  10.268  0.8698  0.7578  0.9432
18530TIP3   OH277080   6.593   5.749  12.029  0.2087  0.4685 -0.0682
18530TIP3    H177081   6.650   5.811  12.074 -0.6816  1.1592  0.1267
18530TIP3    H277082   6.508   5.760  12.071 -0.6271  1.0609 -1.8488
18531TIP3   OH277083   1.946   3.112  15.328 -0.2464 -0.6789 -0.3077
18531TIP3    H177084   1.989   3.176  15.271 -1.1166 -1.1125 -1.5022
18531TIP3    H277085   1.962   3.028  15.285 -0.0427 -1.1376  0.6552
18532TIP3   OH277086   2.742   3.470   3.585 -0.1532 -1.1434  0.3066
18532TIP3    H177087   2.715   3.489   3.675  0.3642 -0.3067  0.2951
18532TIP3    H277088   2.825   3.517   3.574 -0.6372 -0.5205 -0.8718
18533TIP3   OH277089   0.344   1.500   0.228 -0.1387  0.0406 -0.7822
18533TIP3    H177090   0.258   1.541   0.230 -0.1207  0.0932 -1.0260
18533TIP3    H277091   0.345   1.441   0.303 -0.4556 -0.0930 -0.8802
18534TIP3   OH277092   5.949   3.855  13.299 -0.0135 -0.1319 -0.1489
18534TIP3    H177093   5.989   3.931  13.340  0.3166 -0.0085 -0.6807
18534TIP3    H277094   5.910   3.889  13.218 -1.8683 -0.1004  0.7091
18535TIP3   OH277095   2.691   1.982   4.034 -0.6835 -0.2866 -0.0248
18535TIP3    H177096   2.782   1.999   4.010 -1.0161  1.8783  0.1097
18535TIP3    H277097   2.696   1.903   4.088  1.0463 -0.4898 -0.4148
18536TIP3   OH277098   3.870   2.386  14.985  0.2888  0.0924  0.0216
18536TIP3    H177099   3.871   2.458  15.049 -1.2712 -0.1923  0.4246
18536TIP3    H277100   3.795   2.405  14.930 -1.0914 -1.9627  1.0723
18537TIP3   OH277101   2.816   3.085  14.186  0.3200 -0.5219  0.0215
18537TIP3    H177102   2.837   3.063  14.277 -3.7349 -0.9964  1.0596
18537TIP3    H277103   2.829   3.180  14.181  0.3083 -0.4437  1.1872
18538TIP3   OH277104   0.762   0.121   6.047 -0.3546  0.0127  0.0198
18538TIP3    H177105   0.847   0.134   6.005 -0.2532  0.4937  0.3762
18538TIP3    H277106   0.781   0.116   6.140 -0.5297 -1.4701  0.0072
18539TIP3   OH277107   0.086   6.705   1.105  0.1327 -0.6894 -0.0403
18539TIP3    H177108   0.172   6.739   1.080 -1.0068  1.1265 -1.8137
18539TIP3    H277109   0.033   6.712   1.025 -2.2376  0.2345  1.4818
18540TIP3   OH277110   4.080   3.942  15.576 -0.5854  0.3351 -0.7096
18540TIP3    H177111   4.119   4.029  15.575  3.3487 -1.1528  0.9851
18540TIP3    H277112   4.048   3.928  15.486 -0.9636  3.2607 -1.1209
18541TIP3   OH277113   1.702   4.115   4.566  0.4240  0.5405 -0.2379
18541TIP3    H177114   1.765   4.055   4.524  0.5268  0.7718 -0.4134
18541TIP3    H277115   1.620   4.067   4.565  0.4929  0.4248 -0.4362
18542TIP3   OH277116   1.890   1.177  14.723  0.1731  0.3961 -0.3721
18542TIP3    H177117   1.902   1.083  14.718 -0.1377  0.0861  2.6715
18542TIP3    H277118   1.978   1.212  14.734  0.1200  0.1980  0.8045
18543TIP3   OH277119   1.424   4.411  15.661 -0.2251  0.3304  0.2324
18543TIP3    H177120   1.428   4.335  15.603  0.4162 -0.0628  0.7827
18543TIP3    H277121   1.346   4.395  15.715  1.0867 -1.0783  1.8516
18544TIP3   OH277122   4.557   5.705  10.439  0.5516  0.3617  0.0441
18544TIP3    H177123   4.569   5.705  10.534  0.4537 -0.1316  0.0597
18544TIP3    H277124   4.468   5.739  10.426  0.4004  0.0121  0.1546
18545TIP3   OH277125   2.633   5.624  16.526 -0.1799  0.3460 -0.4272
18545TIP3    H177126   2.538   5.629  16.515 -0.0081  1.4259 -1.5878
18545TIP3    H277127   2.666   5.708  16.494  1.1736  0.0018 -0.0122
18546TIP3   OH277128   4.995   4.509  14.312  0.2883 -0.2070 -0.4375
18546TIP3    H177129   4.923   4.521  14.251  0.4314 -1.3073 -0.8500
18546TIP3    H277130   5.006   4.414  14.317  0.0146 -0.1600  1.6253
18547TIP3   OH277131   6.445   2.777   0.731  0.1612 -0.2072  0.1902
18547TIP3    H177132   6.406   2.705   0.682 -0.3760  1.5567 -2.1288
18547TIP3    H277133   6.418   2.856   0.685 -0.4115  1.6599  3.3937
18548TIP3   OH277134   4.263   3.236   0.354  0.1356 -0.2778  0.7249
18548TIP3    H177135   4.306   3.159   0.392  1.1521 -0.3603 -0.5488
18548TIP3    H277136   4.333   3.301   0.347 -0.2783  0.0893 -0.0291
18549TIP3   OH277137   6.417   3.277  15.119  0.7156 -0.2505  0.3551
18549TIP3    H177138   6.330   3.306  15.150  0.7010 -0.2321  0.2972
18549TIP3    H277139   6.422   3.310  15.029  0.9644  0.1357  0.5066
18550TIP3   OH277140   4.490   5.744   5.377 -0.3401  0.1442  0.3046
18550TIP3    H177141   4.404   5.731   5.335 -1.0280 -0.9732  1.9503
18550TIP3    H277142   4.552   5.708   5.314 -1.1101  0.4277 -0.6643
18551TIP3   OH277143   3.268   2.622  15.683 -0.3252 -0.0706 -0.3055
18551TIP3    H177144   3.193   2.615  15.623 -0.1776  1.4897 -0.6993
18551TIP3    H277145   3.245   2.565  15.756 -1.7185  0.0550 -0.6192
18552TIP3   OH277146   2.741   1.723   4.164  0.2576  0.4870 -0.5039
18552TIP3    H177147   2.809   1.658   4.181  0.3820  0.5186 -0.8841
18552TIP3    H277148   2.660   1.673   4.158  0.5882  0.1290 -2.6317
18553TIP3   OH277149   2.888   6.279   2.743  0.7289  0.3299  0.1096
18553TIP3    H177150   2.841   6.351   2.700  1.2189  0.2875 -0.5079
18553TIP3    H277151   2.903   6.215   2.673  1.2211  0.0914  0.4286
18554TIP3   OH277152   0.543   1.862   0.358  0.5559 -0.8536 -0.4090
18554TIP3    H177153   0.629   1.895   0.385  0.2999 -0.8683  0.4210
18554TIP3    H277154   0.535   1.777   0.400  0.5436 -1.2947 -1.2830
18555TIP3   OH277155   0.350   1.872  12.919  0.0676 -0.3950 -0.1736
18555TIP3    H177156   0.372   1.861  13.012 -0.4751 -0.7892 -0.0862
18555TIP3    H277157   0.318   1.962  12.912  0.9133 -0.0877 -0.1433
18556TIP3   OH277158   6.021   0.870  13.740  0.0498 -0.0800 -0.0500
18556TIP3    H177159   6.071   0.950  13.729  0.8318 -0.5369  0.0866
18556TIP3    H277160   5.953   0.892  13.804  1.4753 -0.0386  1.5380
18557TIP3   OH277161   3.757   3.038  14.539  0.5436  0.0208  0.7194
18557TIP3    H177162   3.680   3.090  14.561  1.4572  1.5866  0.3578
18557TIP3    H277163   3.721   2.956  14.503 -1.0104  1.6582 -1.7648
18558TIP3   OH277164   4.337   2.439   4.577  0.2198 -0.0498 -0.1905
18558TIP3    H177165   4.314   2.488   4.498  0.0439 -0.8203 -0.6297
18558TIP3    H277166   4.265   2.455   4.638  0.0198 -0.0040 -0.4388
18559TIP3   OH277167   3.172   3.930   3.500  0.3224 -0.3385  0.4266
18559TIP3    H177168   3.142   4.012   3.538  1.0183 -0.5431  1.4617
18559TIP3    H277169   3.093   3.892   3.461  0.3506  1.6969 -1.8159
18560TIP3   OH277170   2.077   1.962   2.429 -0.9145  0.3061 -0.2587
18560TIP3    H177171   2.060   1.987   2.338  1.2620  0.7956 -0.5924
18560TIP3    H277172   2.171   1.948   2.433 -0.9768  0.1136  1.8886
18561TIP3   OH277173   0.392   5.514  13.057 -0.3346 -0.3755 -0.7710
18561TIP3    H177174   0.472   5.566  13.060 -1.3048  1.2965  3.1481
18561TIP3    H277175   0.420   5.428  13.029  2.3210  0.8154 -2.1236
18562TIP3   OH277176   1.202   2.647  15.538 -0.1769  0.0798 -0.0657
18562TIP3    H177177   1.164   2.722  15.583 -0.5837  0.9294 -1.7190
18562TIP3    H277178   1.145   2.634  15.462  0.1319 -1.6523 -0.0466
18563TIP3   OH277179   5.932   2.018   4.777  0.7852 -0.5594 -0.1003
18563TIP3    H177180   5.922   2.093   4.835 -1.1341 -0.4094 -0.5692
18563TIP3    H277181   5.926   1.941   4.834  0.4781 -0.3924  0.0903
18564TIP3   OH277182   1.581   5.336   2.723  0.0274 -0.1942 -0.0158
18564TIP3    H177183   1.498   5.385   2.723 -0.1824 -0.5091  1.1480
18564TIP3    H277184   1.582   5.290   2.639 -0.2645  0.9688 -0.6834
18565TIP3   OH277185   4.125   4.000   1.404 -0.3624  0.2295  0.2307
18565TIP3    H177186   4.145   3.946   1.480  0.6823 -0.0580 -0.2373
18565TIP3    H277187   4.073   4.072   1.439  1.1842  0.8129  1.4573
18566TIP3   OH277188   2.517   3.349  14.438 -0.6274 -0.3260 -0.2484
18566TIP3    H177189   2.439   3.404  14.440 -1.5843 -1.4966 -2.2719
18566TIP3    H277190   2.493   3.274  14.493 -0.3071  0.0398  0.4017
18567TIP3   OH277191   3.075   1.914  11.029  0.0666  0.0211  0.0033
18567TIP3    H177192   3.059   1.845  11.094  0.6342 -0.2945 -0.1865
18567TIP3    H277193   3.140   1.877  10.970 -2.3790 -0.7623 -2.3984
18568TIP3   OH277194   2.649   1.226  12.538  0.6339  0.4409 -0.1720
18568TIP3    H177195   2.691   1.254  12.457  1.8055  0.2230  0.3417
18568TIP3    H277196   2.565   1.190  12.510  0.7557  0.9303 -1.2176
18569TIP3   OH277197   2.920   0.787   4.085 -0.2605  0.2223 -0.4042
18569TIP3    H177198   2.859   0.820   4.019 -0.8239 -1.6334 -0.8635
18569TIP3    H277199   2.865   0.759   4.158  0.2234  0.4623  0.0684
18570TIP3   OH277200   5.827   0.107  16.338  0.1201 -0.0674 -0.2754
18570TIP3    H177201   5.799   0.096  16.429 -0.5872 -0.6369 -0.5527
18570TIP3    H277202   5.838   0.018  16.305 -1.6092  0.0635 -1.3261
18571TIP3   OH277203   4.252   1.420  15.523 -0.1981  0.3756 -0.0874
18571TIP3    H177204   4.158   1.418  15.542 -0.2582 -1.5037 -0.3435
18571TIP3    H277205   4.259   1.478  15.447 -1.2407  0.1120 -0.4160
18572TIP3   OH277206   5.466   1.509   3.140 -0.6306  0.0995 -0.5395
18572TIP3    H177207   5.502   1.448   3.075 -2.9231 -0.3158 -1.5119
18572TIP3    H277208   5.543   1.553   3.176  0.8967 -1.3908 -1.7946
18573TIP3   OH277209   4.555   4.340  13.410 -0.2035 -0.3661  0.1391
18573TIP3    H177210   4.615   4.276  13.449  0.5138 -0.5421 -1.2025
18573TIP3    H277211   4.468   4.304  13.427  0.1920 -1.9876 -0.9842
18574TIP3   OH277212   1.993   4.475  15.922  0.5839  0.0875 -0.0456
18574TIP3    H177213   2.067   4.526  15.954  0.9925 -0.9918  0.8011
18574TIP3    H277214   1.995   4.487  15.827  1.7171  0.2320 -0.0149
18575TIP3   OH277215   2.294   6.525  16.181 -0.1364  0.0978  0.3763
18575TIP3    H177216   2.276   6.486  16.095  0.3662  0.3546  0.1552
18575TIP3    H277217   2.211   6.516  16.229  0.0557 -1.5891  0.4627
18576TIP3   OH277218   6.591   2.386   0.834  0.5656  0.1694  0.1755
18576TIP3    H177219   6.556   2.316   0.890  1.4660 -0.2833  0.1992
18576TIP3    H277220   6.582   2.465   0.886 -4.7478  1.0726 -1.4783
18577TIP3   OH277221   4.322   3.114  16.874  0.2790  0.0116  0.7064
18577TIP3    H177222   4.247   3.056  16.888 -0.1579  0.2927 -0.4327
18577TIP3    H277223   4.286   3.192  16.833  0.9951  0.7522  1.4381
18578TIP3   OH277224   1.006   5.992   0.892 -0.3096 -0.8291  0.2549
18578TIP3    H177225   1.016   5.897   0.889 -1.3136 -0.9529  0.5651
18578TIP3    H277226   0.957   6.013   0.812  1.0039 -0.4092 -0.4785
18579TIP3   OH277227   3.815   2.941   5.102  0.2585  0.0038  0.5492
18579TIP3    H177228   3.749   2.995   5.059  0.1278  0.2096  1.0122
18579TIP3    H277229   3.849   2.995   5.173  1.4248  0.1728 -0.1078
18580TIP3   OH277230   1.578   5.951   9.984  0.1671  0.3792  0.4486
18580TIP3    H177231   1.658   5.918   9.944  0.2164  0.8588  0.1455
18580TIP3    H277232   1.529   5.872  10.008  0.5364  0.0855  0.2530
18581TIP3   OH277233   2.695   3.532   4.305  0.3840 -0.3564  0.3347
18581TIP3    H177234   2.733   3.505   4.389  0.6720  0.1234  0.3590
18581TIP3    H277235   2.707   3.627   4.302 -0.8065 -0.1857  0.3452
18582TIP3   OH277236   4.391   0.780  12.278  0.1622  0.4878  0.1416
18582TIP3    H177237   4.331   0.707  12.289  1.3196 -0.6016 -0.4965
18582TIP3    H277238   4.429   0.793  12.365 -1.4053  1.6077  0.7052
18583TIP3   OH277239   0.182   5.071   5.737  0.8418 -0.1585 -0.0804
18583TIP3    H177240   0.135   4.988   5.731  0.0809  0.2159  0.5359
18583TIP3    H277241   0.214   5.074   5.827 -0.3469  0.8318  0.3467
18584TIP3   OH277242   4.662   2.923  10.571  0.4786 -0.2923 -1.0985
18584TIP3    H177243   4.670   2.837  10.530  1.2904  0.2814 -2.2048
18584TIP3    H277244   4.739   2.971  10.542  0.6094  0.4677  0.3961
18585TIP3   OH277245   0.275   4.665   1.271  0.2672 -0.2854  0.2897
18585TIP3    H177246   0.306   4.686   1.182  0.2335 -2.1203 -0.1825
18585TIP3    H277247   0.186   4.632   1.258  0.0614 -0.0468  1.0815
18586TIP3   OH277248   0.943   5.005   3.128 -0.2387 -0.1376 -0.4198
18586TIP3    H177249   0.876   4.962   3.076 -1.0786  1.4448 -0.7217
18586TIP3    H277250   1.022   5.001   3.074 -0.2050 -1.5038 -0.3080
18587TIP3   OH277251   4.410   2.621  13.728  0.5676 -0.2095  0.4154
18587TIP3    H177252   4.453   2.697  13.767  1.0153  0.0396 -0.5316
18587TIP3    H277253   4.339   2.600  13.788 -1.6043  2.9251 -0.7701
18588TIP3   OH277254   2.436   1.065   2.602 -0.0609  0.1239  0.4925
18588TIP3    H177255   2.451   1.035   2.512  0.3065 -3.7709  1.6827
18588TIP3    H277256   2.341   1.066   2.612 -0.1062 -1.6133  0.6019
18589TIP3   OH277257   1.675   1.324   2.636 -0.6489 -0.2257 -0.1726
18589TIP3    H177258   1.648   1.236   2.610 -2.8352 -0.3396  2.0897
18589TIP3    H277259   1.614   1.382   2.591  0.7104  0.2247 -1.5608
18590TIP3   OH277260   1.639   3.097   5.662 -0.0977  0.2703  0.2009
18590TIP3    H177261   1.678   3.105   5.749  1.7710  1.7460 -0.6956
18590TIP3    H277262   1.689   3.026   5.620 -2.4667 -2.0138  0.9755
18591TIP3   OH277263   2.183   2.656  14.224  0.0110  1.0231 -0.0508
18591TIP3    H177264   2.125   2.693  14.290  0.5326  0.9734  0.4433
18591TIP3    H277265   2.239   2.595  14.273  2.2510  2.9659 -0.0123
18592TIP3   OH277266   4.947   2.244  14.910 -0.3849 -0.0717 -0.0820
18592TIP3    H177267   4.862   2.278  14.936 -0.3204 -0.5060  0.7365
18592TIP3    H277268   5.006   2.268  14.982 -0.3263 -1.8271  0.5176
18593TIP3   OH277269   4.342   4.714  13.237 -1.2960 -0.4615 -0.7366
18593TIP3    H177270   4.276   4.692  13.171  0.0015  1.7603 -2.9239
18593TIP3    H277271   4.344   4.810  13.238  0.7887 -0.4671  0.4050
18594TIP3   OH277272   3.297   5.917  15.224 -0.2990  0.7212 -0.7795
18594TIP3    H177273   3.311   5.956  15.137  1.7826  1.7039 -0.0479
18594TIP3    H277274   3.319   5.986  15.286 -2.1977  0.1819  0.5907
18595TIP3   OH277275   0.985   1.225   3.467  0.4547  0.0148  0.4768
18595TIP3    H177276   1.077   1.214   3.441  1.7372  2.7503  3.2526
18595TIP3    H277277   0.967   1.148   3.522  1.0162 -0.6243 -0.2074
18596TIP3   OH277278   0.901   0.227   1.873  0.4707 -0.2082  0.1956
18596TIP3    H177279   0.938   0.171   1.805  2.3041 -1.0241  1.7529
18596TIP3    H277280   0.822   0.181   1.902  1.4291 -1.5403  0.7887
18597TIP3   OH277281   3.788   0.970   1.149 -0.5955  0.0645 -0.1822
18597TIP3    H177282   3.803   1.048   1.202  1.0860 -0.2856 -0.1019
18597TIP3    H277283   3.793   0.897   1.210  1.5987 -0.3605 -0.7818
18598TIP3   OH277284   2.100   2.288   4.488 -1.0744  0.0220  0.2387
18598TIP3    H177285   2.157   2.217   4.517 -2.0252 -0.4746  0.9723
18598TIP3    H277286   2.080   2.267   4.397 -1.1974 -0.5679  0.3952
18599TIP3   OH277287   4.052   5.700  13.798  0.2726  0.4759  0.0964
18599TIP3    H177288   4.093   5.751  13.728  1.7880  1.2904  1.4751
18599TIP3    H277289   4.125   5.650  13.835 -0.7243 -0.8078  0.3615
18600TIP3   OH277290   0.374   4.657  16.459  0.3458 -0.1595  0.2508
18600TIP3    H177291   0.436   4.723  16.428 -0.5373  0.6701  0.2024
18600TIP3    H277292   0.304   4.658  16.393 -1.4832  1.5065  2.0898
18601TIP3   OH277293   6.323   6.091   3.641  0.4821 -0.3683  0.3820
18601TIP3    H177294   6.241   6.085   3.689  0.6626  2.1701  1.1950
18601TIP3    H277295   6.390   6.066   3.704  0.6265  1.8989  1.2284
18602TIP3   OH277296   4.946   1.388   0.715  0.1941 -1.1449 -0.3062
18602TIP3    H177297   4.894   1.373   0.794 -2.1994  0.9980 -1.3330
18602TIP3    H277298   4.904   1.334   0.648 -0.5770  0.3324 -1.0640
18603TIP3   OH277299   0.111   2.222   1.500  0.1856  0.3779 -0.4004
18603TIP3    H177300   0.019   2.217   1.525  0.2599  1.4093  0.1177
18603TIP3    H277301   0.113   2.285   1.428  0.1578 -1.5496 -2.1750
18604TIP3   OH277302   4.104   5.768   0.516  0.5062 -0.5892  0.2942
18604TIP3    H177303   4.089   5.778   0.422  1.2896  1.5942  0.3484
18604TIP3    H277304   4.050   5.692   0.541 -0.7368 -0.4265 -1.6596
18605TIP3   OH277305   0.807   1.172  14.118 -0.1829  0.4498 -0.1208
18605TIP3    H177306   0.790   1.183  14.025  0.4043  1.2384 -0.1466
18605TIP3    H277307   0.733   1.121  14.150 -0.1558 -0.2247 -1.1014
18606TIP3   OH277308   3.312   3.043  13.991 -0.2642 -0.0716  0.1400
18606TIP3    H177309   3.375   3.110  14.017  0.5355 -0.7335 -0.0628
18606TIP3    H277310   3.333   2.967  14.045 -0.7652 -0.3695 -0.0692
18607TIP3   OH277311   4.396   1.569  12.081  0.2829  0.2988 -0.1893
18607TIP3    H177312   4.393   1.569  11.986  1.6042 -2.0334 -0.3146
18607TIP3    H277313   4.320   1.516  12.107  1.1475 -0.9215 -0.0865
18608TIP3   OH277314   0.361   1.817  16.064 -0.0358  0.6757 -0.0090
18608TIP3    H177315   0.302   1.879  16.021 -2.6534 -1.2241  0.5309
18608TIP3    H277316   0.370   1.745  16.001 -0.8199 -0.4134  1.0662
18609TIP3   OH277317   6.457   1.619   1.057 -0.0433 -0.4627 -0.0282
18609TIP3    H177318   6.373   1.622   1.104 -0.2256  1.3199 -0.3961
18609TIP3    H277319   6.512   1.684   1.103  0.1243  0.5395 -1.5756
18610TIP3   OH277320   6.279   1.325   1.679 -0.0757  0.7471 -0.3844
18610TIP3    H177321   6.296   1.337   1.585 -0.7783  0.0386 -0.6145
18610TIP3    H277322   6.210   1.259   1.682  0.5680  0.1042  0.6633
18611TIP3   OH277323   5.636   5.823   4.670 -0.2336 -0.3623 -0.0033
18611TIP3    H177324   5.713   5.823   4.727 -0.6531 -0.2354  0.5626
18611TIP3    H277325   5.631   5.912   4.636 -1.0659  0.0866  1.2377
18612TIP3   OH277326   1.319   2.457   2.374 -0.8284  0.8088 -0.2036
18612TIP3    H177327   1.255   2.513   2.330 -3.0522 -0.4218  1.2623
18612TIP3    H277328   1.339   2.389   2.310 -1.9129  0.5646 -0.3117
18613TIP3   OH277329   2.635   4.041   1.418  0.2291  0.8424 -0.1091
18613TIP3    H177330   2.685   4.107   1.467  1.1411  0.8630 -1.0286
18613TIP3    H277331   2.632   4.075   1.329 -0.2464  0.1664 -0.3528
18614TIP3   OH277332   1.870   1.484   1.420  0.2502 -0.1084 -0.3953
18614TIP3    H177333   1.890   1.531   1.500  0.7245 -0.2284 -0.4437
18614TIP3    H277334   1.875   1.392   1.444  0.0510 -0.1429 -0.4800
18615TIP3   OH277335   2.180   2.636   3.623 -0.5750 -0.4576 -0.1084
18615TIP3    H177336   2.137   2.721   3.620  0.6104  0.1488 -0.6924
18615TIP3    H277337   2.154   2.593   3.541 -2.0445 -1.1213  0.6804
18616TIP3   OH277338   0.618   3.191   4.559 -0.2898 -0.3772  0.4858
18616TIP3    H177339   0.582   3.102   4.566 -0.8575 -0.1066  1.1391
18616TIP3    H277340   0.696   3.181   4.505 -1.1503 -1.0481 -0.6983
18617TIP3   OH277341   4.254   5.908  16.618 -0.1029 -0.0981  0.2703
18617TIP3    H177342   4.323   5.971  16.599  2.2931 -1.5815  3.1797
18617TIP3    H277343   4.228   5.873  16.533  1.9239  1.3427 -1.0149
18618TIP3   OH277344   0.747   0.550   3.254 -0.1326 -0.3223  0.3546
18618TIP3    H177345   0.813   0.517   3.315 -0.9683 -0.8007  1.0215
18618TIP3    H277346   0.763   0.502   3.173 -0.5931 -1.5410  0.9578
18619TIP3   OH277347   3.680   3.095   1.210 -0.7293  0.1973  0.7112
18619TIP3    H177348   3.742   3.129   1.275  0.9604 -0.1924 -0.6689
18619TIP3    H277349   3.731   3.038   1.154 -2.2639  0.1511 -0.7115
18620TIP3   OH277350   2.262   6.429  12.931  0.2855  0.2714 -0.0320
18620TIP3    H177351   2.353   6.403  12.920  1.2113  3.4166 -0.9940
18620TIP3    H277352   2.239   6.473  12.849 -2.2627 -0.7022  0.0486
18621TIP3   OH277353   6.382   5.279   1.630 -0.2181 -0.5583  0.1153
18621TIP3    H177354   6.360   5.233   1.711  2.2538 -0.4722  0.9419
18621TIP3    H277355   6.381   5.211   1.562 -1.2564 -0.8443  0.3967
18622TIP3   OH277356   6.874   0.566  15.454  0.3794 -0.8911 -0.2815
18622TIP3    H177357   6.931   0.491  15.475  0.5470 -1.6440 -3.0650
18622TIP3    H277358   6.923   0.616  15.389 -0.6970  0.4227 -0.1206
18623TIP3   OH277359   4.673   5.491  16.853 -0.6369  0.3173  0.5381
18623TIP3    H177360   4.755   5.495  16.805 -1.2538 -0.9560 -0.7050
18623TIP3    H277361   4.635   5.578  16.843  0.0626  0.5928  0.2136
18624TIP3   OH277362   6.627   3.884   0.457  0.0306  0.1291  0.2364
18624TIP3    H177363   6.589   3.854   0.374  1.8152 -0.2882 -0.4736
18624TIP3    H277364   6.576   3.962   0.479 -0.8429 -0.0639 -0.9609
18625TIP3   OH277365   4.839   6.644   2.185  1.0120  0.6913 -0.5360
18625TIP3    H177366   4.832   6.657   2.280  1.0051 -0.1557 -0.4145
18625TIP3    H277367   4.881   6.725   2.153  1.1179  0.9358  0.1996
18626TIP3   OH277368   5.191   1.590  14.425  0.1992  0.5731 -0.1036
18626TIP3    H177369   5.164   1.676  14.455 -0.5078  0.6794 -0.9948
18626TIP3    H277370   5.266   1.567  14.480 -0.5089  1.1194  1.1156
18627TIP3   OH277371   0.102   0.330   4.733 -1.3079 -0.1131 -0.2717
18627TIP3    H177372   0.121   0.373   4.649  0.0277  0.7508  0.4336
18627TIP3    H277373   0.149   0.246   4.728  1.5938  1.3004  0.7987
18628TIP3   OH277374   3.931   5.189   4.737 -0.1728 -0.3033  0.0578
18628TIP3    H177375   3.873   5.256   4.773  0.1277  0.1473 -0.3039
18628TIP3    H277376   3.900   5.177   4.647 -0.5754 -1.0433  0.2853
18629TIP3   OH277377   6.502   2.198  14.543 -0.2957 -0.1029  0.4621
18629TIP3    H177378   6.567   2.127  14.532  0.7327  0.8245  0.3499
18629TIP3    H277379   6.491   2.234  14.456 -1.9938 -1.0842  0.2309
18630TIP3   OH277380   5.034   5.168  14.101 -0.4664 -0.1351  0.2673
18630TIP3    H177381   5.000   5.202  14.184 -2.3017 -0.6593 -0.2345
18630TIP3    H277382   5.076   5.244  14.060 -1.2640  0.6302  0.8093
18631TIP3   OH277383   1.837   5.946   2.599  0.1157  0.0677 -0.8195
18631TIP3    H177384   1.900   5.967   2.668  0.7062  0.2211 -1.3942
18631TIP3    H277385   1.862   6.002   2.525  0.6825 -1.4289 -1.8184
18632TIP3   OH277386   1.132   5.460   1.857 -0.3910  0.0282 -0.6126
18632TIP3    H177387   1.146   5.548   1.891 -2.3121  1.4006 -3.0444
18632TIP3    H277388   1.042   5.439   1.883  0.1152 -1.3665  0.1177
18633TIP3   OH277389   0.796   2.259  16.260 -1.0014  0.2439 -0.4746
18633TIP3    H177390   0.892   2.258  16.251 -0.8007 -1.2311  1.2163
18633TIP3    H277391   0.764   2.213  16.182 -0.4280  1.6451 -1.5741
18634TIP3   OH277392   1.427   1.406   3.177  0.2001 -0.0180  0.7391
18634TIP3    H177393   1.459   1.436   3.092  2.6149 -0.4990  1.4024
18634TIP3    H277394   1.427   1.311   3.170 -0.7280 -0.0359  0.9041
18635TIP3   OH277395   5.363   2.972  13.545  0.0145  0.5902 -0.1033
18635TIP3    H177396   5.407   2.902  13.593  1.0358  2.3186  1.6290
18635TIP3    H277397   5.368   2.945  13.454 -0.0970 -1.8160  0.5232
18636TIP3   OH277398   1.436   0.655  12.113 -0.1401  0.4566 -0.1846
18636TIP3    H177399   1.401   0.638  12.025 -2.6526 -1.6739  1.0939
18636TIP3    H277400   1.473   0.571  12.141  0.6714  1.1171  0.7766
18637TIP3   OH277401   3.564   3.582  16.639 -0.2934  0.2567  0.7314
18637TIP3    H177402   3.621   3.560  16.565 -1.0895  0.1027  0.1417
18637TIP3    H277403   3.481   3.540  16.618 -1.0589  1.6459  0.8587
18638TIP3   OH277404   5.499   1.866  13.755  0.1613  0.6601  0.3878
18638TIP3    H177405   5.523   1.808  13.827 -1.1350  1.5544  1.5831
18638TIP3    H277406   5.556   1.839  13.683 -0.5375 -2.2987  0.7795
18639TIP3   OH277407   3.703   0.760  15.418 -0.4427  0.2678  0.6243
18639TIP3    H177408   3.741   0.777  15.504 -2.1298  0.5373  1.3495
18639TIP3    H277409   3.652   0.839  15.399  1.1816  0.9382 -1.3965
18640TIP3   OH277410   2.944   0.859   0.531  0.1876 -1.0004 -0.5814
18640TIP3    H177411   2.981   0.824   0.613  1.3578 -0.5041 -0.8749
18640TIP3    H277412   2.949   0.786   0.470 -2.5602 -2.0302  0.2702
18641TIP3   OH277413   2.281   5.559   2.210  0.2899 -0.1043  0.5703
18641TIP3    H177414   2.260   5.503   2.284  0.5300 -1.1429 -0.1268
18641TIP3    H277415   2.278   5.501   2.134  0.7208  0.7859 -0.1490
18642TIP3   OH277416   2.608   3.599  14.524 -0.0206  0.3171 -0.4538
18642TIP3    H177417   2.661   3.642  14.456 -1.6080  0.0185 -1.9668
18642TIP3    H277418   2.594   3.511  14.490 -1.1932  0.2979  0.0581
18643TIP3   OH277419   5.137   2.470   5.565  0.3928 -0.5927 -0.2885
18643TIP3    H177420   5.140   2.383   5.604 -0.2582 -1.5416 -2.2277
18643TIP3    H277421   5.218   2.478   5.514 -0.3105 -0.7749 -1.4753
18644TIP3   OH277422   1.886   4.015   0.670  0.5284  0.6556 -0.0924
18644TIP3    H177423   1.867   4.106   0.650  0.6349  0.8610  0.6952
18644TIP3    H277424   1.926   3.980   0.590 -1.5056  0.6794 -1.1907
18645TIP3   OH277425   1.020   4.027   0.869 -0.3450 -0.0628 -0.0912
18645TIP3    H177426   1.042   4.033   0.962 -1.5707  1.6141  0.1523
18645TIP3    H277427   1.092   4.073   0.824 -0.4505  0.3673  0.1722
18646TIP3   OH277428   4.360   1.311   4.464 -0.2123  0.3540 -0.1839
18646TIP3    H177429   4.363   1.345   4.553  0.2070 -0.0378 -0.0438
18646TIP3    H277430   4.434   1.251   4.459 -0.2008  0.4169 -0.8148
18647TIP3   OH277431   0.803   6.685   4.118  0.0927 -0.0652  0.4045
18647TIP3    H177432   0.758   6.735   4.049  0.0357  0.1656  0.6061
18647TIP3    H277433   0.839   6.609   4.073 -0.6547 -0.3460  0.2685
18648TIP3   OH277434   5.560   1.898   5.564  0.2655 -0.5819  0.3831
18648TIP3    H177435   5.514   1.857   5.492 -1.6369  0.2428  1.0699
18648TIP3    H277436   5.593   1.981   5.528  1.2864 -1.1878 -0.1156
18649TIP3   OH277437   2.257   2.545   4.159 -0.4685 -0.0444 -0.2259
18649TIP3    H177438   2.284   2.457   4.133 -0.5771 -0.0659 -0.2644
18649TIP3    H277439   2.338   2.596   4.160 -0.1530 -0.5175  1.2919
18650TIP3   OH277440   2.012   6.214  11.157 -0.1177  0.2841 -0.3688
18650TIP3    H177441   2.067   6.145  11.120 -0.4773 -0.4212  0.3785
18650TIP3    H277442   2.064   6.294  11.146  1.0326 -0.3481  0.2024
18651TIP3   OH277443   0.670   0.027   3.258  0.6030 -0.5002  0.2602
18651TIP3    H177444   0.681   0.103   3.315 -0.3539  0.9638 -1.3940
18651TIP3    H277445   0.747  -0.027   3.274  0.5002 -0.0273  2.6906
18652TIP3   OH277446   5.372   6.071   9.990 -0.8448 -0.1566  0.0837
18652TIP3    H177447   5.320   6.029   9.922  0.9618 -1.5862 -0.4911
18652TIP3    H277448   5.428   6.133   9.943  0.6865 -1.4256  0.1631
18653TIP3   OH277449   1.974   3.621  13.777  0.3265 -0.1265  0.3270
18653TIP3    H177450   1.893   3.645  13.732  0.6422  0.1394 -0.1015
18653TIP3    H277451   1.972   3.671  13.859  0.6966  0.9155 -0.2865
18654TIP3   OH277452   2.572   2.522  14.172  0.5071  0.2667 -0.0439
18654TIP3    H177453   2.535   2.458  14.111  0.0472  0.5136 -0.0221
18654TIP3    H277454   2.610   2.590  14.117 -2.5846  2.0828 -0.1124
18655TIP3   OH277455   2.167   1.032  14.497  0.4925  0.6367  0.3558
18655TIP3    H177456   2.197   0.978  14.424 -0.0080  0.3432  0.3627
18655TIP3    H277457   2.107   0.975  14.546 -2.1665  1.9756 -1.0943
18656TIP3   OH277458   3.705   6.695   2.726 -0.9879 -0.1607 -0.4519
18656TIP3    H177459   3.677   6.605   2.708 -1.4654 -0.2476  0.6414
18656TIP3    H277460   3.762   6.687   2.802  0.8520  0.2060 -1.7141
18657TIP3   OH277461   6.755   5.961  13.053 -0.1274 -0.0456 -0.0446
18657TIP3    H177462   6.747   5.941  13.146 -0.2401  0.5454  0.0796
18657TIP3    H277463   6.706   6.043  13.042 -0.0732 -0.0854 -0.6138
18658TIP3   OH277464   3.066   6.036  11.205  0.4934 -0.2533  0.5001
18658TIP3    H177465   3.130   5.998  11.145  0.1180  0.2686 -0.2511
18658TIP3    H277466   2.987   6.048  11.152  0.4360  1.0770  0.8373
18659TIP3   OH277467   3.991   1.869   5.353  0.8098  0.4227  0.1111
18659TIP3    H177468   3.910   1.855   5.402  1.6505 -1.5784  1.0270
18659TIP3    H277469   3.971   1.943   5.296 -2.1725 -0.8998 -0.7944
18660TIP3   OH277470   1.130   6.505   3.109 -0.4402 -0.0382  0.4433
18660TIP3    H177471   1.223   6.527   3.120 -0.4795 -0.2368  1.2278
18660TIP3    H277472   1.103   6.472   3.195 -2.3008  3.7812  1.5590
18661TIP3   OH277473   2.079   6.708   0.922  0.6373  0.7072  0.7011
18661TIP3    H177474   1.985   6.717   0.905  0.3583 -1.7155  0.5903
18661TIP3    H277475   2.120   6.718   0.836  0.0902 -1.8244  0.0648
18662TIP3   OH277476   4.124   0.161  10.866  0.1503  0.2306 -0.1389
18662TIP3    H177477   4.174   0.079  10.877 -1.7594 -0.7446  2.0915
18662TIP3    H277478   4.083   0.152  10.780  1.0993 -0.4806 -0.5454
18663TIP3   OH277479   0.061   1.242   4.601  0.0527  0.6401  0.3143
18663TIP3    H177480   0.152   1.273   4.603  0.4534 -0.3902 -1.0004
18663TIP3    H277481   0.009   1.322   4.597  0.9126  1.2336  0.5869
18664TIP3   OH277482   0.809   6.125  16.181  0.4781  0.1386  0.0890
18664TIP3    H177483   0.898   6.101  16.157 -0.1825 -0.9788 -1.4631
18664TIP3    H277484   0.757   6.047  16.162 -0.9035  0.9117  0.5082
18665TIP3   OH277485   2.344   6.067  11.515 -0.0473  0.1055  0.5777
18665TIP3    H177486   2.270   6.123  11.538  0.9314  0.8786  1.9462
18665TIP3    H277487   2.419   6.107  11.559  0.9645 -1.3796  0.2581
18666TIP3   OH277488   2.671   4.405   3.979 -0.2764 -0.4601 -0.0110
18666TIP3    H177489   2.589   4.361   3.955 -0.6831  0.2319  0.0839
18666TIP3    H277490   2.719   4.340   4.031 -1.3009 -0.4496  0.9756
18667TIP3   OH277491   6.766   6.364  13.206 -0.6699  0.1699 -0.3541
18667TIP3    H177492   6.766   6.339  13.298 -1.2543 -0.0640 -0.4199
18667TIP3    H277493   6.723   6.292  13.160  1.6863 -0.8664 -1.1378
18668TIP3   OH277494   3.279   2.745  16.185 -0.9852 -0.0494 -0.4424
18668TIP3    H177495   3.309   2.819  16.237 -0.5654 -0.3344 -0.2700
18668TIP3    H277496   3.194   2.721  16.222  0.1404 -1.4472  1.3789
18669TIP3   OH277497   6.726   1.342   9.978  0.1259  0.2817 -0.5189
18669TIP3    H177498   6.810   1.299   9.962  0.3212  0.4354  0.0841
18669TIP3    H277499   6.680   1.283  10.037  1.0010  1.5745  1.5582
18670TIP3   OH277500   1.894   1.528   1.961 -0.3475 -0.0067  0.2710
18670TIP3    H177501   1.826   1.592   1.942 -1.5716 -1.5398 -0.6870
18670TIP3    H277502   1.928   1.503   1.876 -0.6181 -1.3917  0.5537
18671TIP3   OH277503   2.546   5.356  15.323 -0.2327  0.0766  0.0593
18671TIP3    H177504   2.542   5.447  15.292 -0.1528  0.6520  1.6256
18671TIP3    H277505   2.635   5.347  15.358 -0.7039 -0.1268  1.2459
18672TIP3   OH277506   6.663   5.117  12.951  0.1042  0.2417 -0.7511
18672TIP3    H177507   6.720   5.193  12.941  0.7758  0.1272  1.5568
18672TIP3    H277508   6.709   5.046  12.907  1.9656  0.0939  1.2549
18673TIP3   OH277509   6.730   2.141  12.006 -0.1107  0.3642 -0.6157
18673TIP3    H177510   6.659   2.108  11.951 -2.2806  0.4454  1.9363
18673TIP3    H277511   6.784   2.064  12.024 -1.6323 -0.5355  0.3011
18674TIP3   OH277512   1.684   5.735   2.642 -0.2764  0.8585  0.1603
18674TIP3    H177513   1.732   5.813   2.615  0.8684 -0.0214 -0.5139
18674TIP3    H277514   1.605   5.767   2.684  0.9111  2.3856  1.3087
18675TIP3   OH277515   2.428   5.932  10.838  0.1324  0.0519 -0.0861
18675TIP3    H177516   2.389   5.854  10.878  1.8454  0.7958  3.4641
18675TIP3    H277517   2.498   5.897  10.783 -1.6360 -0.9911 -1.8217
18676TIP3   OH277518   2.508   6.466   3.082 -0.0811  0.6448  0.6353
18676TIP3    H177519   2.518   6.419   3.165  1.3670  3.6588  2.3403
18676TIP3    H277520   2.566   6.420   3.021 -0.5569 -1.1433  1.4640
18677TIP3   OH277521   2.168   6.150  12.997  0.3200 -0.0220 -0.0026
18677TIP3    H177522   2.230   6.112  13.060 -0.2509  0.1599  0.6819
18677TIP3    H277523   2.173   6.244  13.012 -0.6407 -0.0451  0.5731
18678TIP3   OH277524   2.955   1.515  11.490  0.1377 -0.2441  0.4066
18678TIP3    H177525   2.955   1.467  11.407 -2.0911 -1.0107  0.7789
18678TIP3    H277526   2.886   1.581  11.480  0.0984 -0.0952  1.5204
18679TIP3   OH277527   3.597   0.913  11.718 -0.1135 -0.4954 -0.1548
18679TIP3    H177528   3.630   0.881  11.634 -1.7837 -1.9265 -0.3322
18679TIP3    H277529   3.651   0.868  11.783 -0.6436 -1.6462 -0.4636
18680TIP3   OH277530   1.880   4.394  13.665 -0.1989 -0.1514  0.4724
18680TIP3    H177531   1.940   4.469  13.671 -2.7267  1.9522  1.6596
18680TIP3    H277532   1.866   4.366  13.755 -2.0260  0.3765  0.4003
18681TIP3   OH277533   3.196   4.033  12.530 -0.6799  0.8200 -0.0606
18681TIP3    H177534   3.267   4.018  12.591 -0.7559  0.7536  0.0101
18681TIP3    H277535   3.186   3.951  12.482 -0.5219  0.9186 -0.2645
18682TIP3   OH277536   4.545   2.008   1.326 -0.3021 -0.5581 -0.0098
18682TIP3    H177537   4.547   1.932   1.385 -3.3167 -2.1847 -1.7455
18682TIP3    H277538   4.609   1.986   1.257 -1.6026 -1.9241 -0.8408
18683TIP3   OH277539   3.629   5.323   6.418 -0.1989 -0.1433 -0.7255
18683TIP3    H177540   3.667   5.402   6.381  0.3071 -1.1293 -2.4370
18683TIP3    H277541   3.687   5.253   6.389 -2.3801 -1.5056 -2.0640
18684TIP3   OH277542   1.020   4.130  12.708 -0.1339 -0.0988 -0.3023
18684TIP3    H177543   0.937   4.081  12.707 -0.4732  0.3917  1.3803
18684TIP3    H277544   1.012   4.191  12.635 -0.4876 -1.2537 -1.2710
18685TIP3   OH277545   6.568   5.988  10.876 -0.1708 -0.3356 -0.1261
18685TIP3    H177546   6.595   5.927  10.807 -2.3549 -0.4911 -0.9162
18685TIP3    H277547   6.483   6.022  10.846  0.2059  1.8485  1.0964
18686TIP3   OH277548   2.297   4.732   5.580 -0.0332  0.2450  0.4466
18686TIP3    H177549   2.236   4.710   5.510 -2.0473  1.6864  1.6492
18686TIP3    H277550   2.375   4.680   5.561 -1.5320 -1.5210 -1.2865
18687TIP3   OH277551   5.983   6.151   0.267  0.3031  0.5086 -0.0679
18687TIP3    H177552   5.933   6.224   0.304  0.2430 -0.1108  1.1233
18687TIP3    H277553   5.917   6.084   0.250  0.5370  0.2366  0.1092
18688TIP3   OH277554   4.902   1.266  12.251 -0.3573  0.1935 -0.1820
18688TIP3    H177555   4.836   1.203  12.279 -1.8089 -0.0084 -3.6244
18688TIP3    H277556   4.961   1.216  12.195  0.9098  1.0564  0.3296
18689TIP3   OH277557   4.944   3.564   4.169 -0.8958 -0.6963  0.0747
18689TIP3    H177558   4.858   3.551   4.129 -1.3105  0.5405  0.5275
18689TIP3    H277559   4.931   3.635   4.231  1.0159  1.3156 -1.6777
18690TIP3   OH277560   0.921   3.256   5.174  0.8163 -0.7934  0.1738
18690TIP3    H177561   0.959   3.235   5.088  0.2701 -1.9148  0.1915
18690TIP3    H277562   0.835   3.215   5.173 -0.0827  0.9805  0.4688
18691TIP3   OH277563   0.055   5.780  14.951  0.0094  0.4826 -0.1850
18691TIP3    H177564   0.093   5.781  15.039 -0.8298 -1.0913  0.2340
18691TIP3    H277565   0.022   5.691  14.940  1.0941  0.2968 -2.5538
18692TIP3   OH277566   2.747   5.709  10.358 -0.5378  0.6550  0.2941
18692TIP3    H177567   2.828   5.714  10.308 -0.2651  0.8750  0.7462
18692TIP3    H277568   2.686   5.766  10.312 -0.1117  1.3155  0.5275
18693TIP3   OH277569   0.978   5.308  11.943 -0.2097 -0.1380  0.8877
18693TIP3    H177570   1.001   5.245  12.011  2.7505  0.4392  0.5395
18693TIP3    H277571   0.949   5.385  11.991  0.5909 -0.1868  1.4730
18694TIP3   OH277572   5.147   1.680   0.305  0.0161  0.2927  0.1982
18694TIP3    H177573   5.126   1.593   0.339  1.7177 -0.4070 -0.4329
18694TIP3    H277574   5.145   1.670   0.210 -2.5438  1.6929  0.0054
18695TIP3   OH277575   6.292   2.819  13.099 -0.2027  0.2382  0.5426
18695TIP3    H177576   6.284   2.852  13.010  0.9034 -0.6674  0.0965
18695TIP3    H277577   6.356   2.877  13.141  1.2200 -0.8694 -0.0362
18696TIP3   OH277578   6.285   0.575   5.600  0.1324 -0.3542  0.1143
18696TIP3    H177579   6.221   0.514   5.564  0.1873 -1.0919  1.2244
18696TIP3    H277580   6.240   0.617   5.673  0.2035  0.7291 -0.4395
18697TIP3   OH277581   1.983   5.855  11.961 -0.0487 -0.4405 -0.7847
18697TIP3    H177582   1.945   5.874  11.875 -2.4214  0.7217  0.4253
18697TIP3    H277583   1.942   5.772  11.986 -0.4667 -0.0671 -0.2099
18698TIP3   OH277584   6.641   5.016  11.459  0.0311  0.3294 -0.0850
18698TIP3    H177585   6.630   5.014  11.364 -2.0569  1.2545  0.0826
18698TIP3    H277586   6.621   4.928  11.488  1.9426 -0.3106 -0.5694
18699TIP3   OH277587   5.717   0.787   3.125  0.1414 -0.2577  0.5130
18699TIP3    H177588   5.635   0.748   3.155 -1.1297  1.1373 -0.9425
18699TIP3    H277589   5.757   0.719   3.071 -0.4702 -0.6708  0.5597
18700TIP3   OH277590   5.407   6.210  16.693 -0.1052 -0.5344 -0.5543
18700TIP3    H177591   5.490   6.177  16.726  0.8722  1.0808 -1.2523
18700TIP3    H277592   5.363   6.246  16.770 -0.0751 -1.2056 -0.2170
18701TIP3   OH277593   0.432   3.344  15.244 -0.4063  0.3537 -0.4932
18701TIP3    H177594   0.449   3.350  15.338 -0.5086  2.6034 -0.5540
18701TIP3    H277595   0.337   3.356  15.236 -0.3340  0.6924 -0.9021
18702TIP3   OH277596   6.783   1.881  16.010 -0.2652  1.0033 -0.6601
18702TIP3    H177597   6.768   1.792  15.978  0.2765  0.4396  0.5681
18702TIP3    H277598   6.696   1.920  16.016 -0.4387  0.8497 -1.9944
18703TIP3   OH277599   0.952   2.555  13.163 -0.3249 -0.0841 -0.1547
18703TIP3    H177600   0.992   2.619  13.103 -0.3012  0.7323  0.6981
18703TIP3    H277601   0.875   2.523  13.116 -1.5993  2.2007  0.2063
18704TIP3   OH277602   6.224   0.870   4.285 -0.7092  0.3810  0.2415
18704TIP3    H177603   6.278   0.939   4.246  0.5835 -0.7933 -0.1028
18704TIP3    H277604   6.230   0.885   4.379  0.5400  0.0452  0.2244
18705TIP3   OH277605   5.883   6.795  16.051 -0.7621  0.0827 -0.5133
18705TIP3    H177606   5.815   6.849  16.011  1.4027  2.5628 -1.1212
18705TIP3    H277607   5.961   6.813  15.999  0.7937 -1.2989  1.2103
18706TIP3   OH277608   3.338   3.046   6.615  0.6993  0.1160  0.3218
18706TIP3    H177609   3.249   3.048   6.581 -0.5096  0.0918  3.1854
18706TIP3    H277610   3.354   2.953   6.635  0.8221  0.2805  1.0294
18707TIP3   OH277611   4.323   1.601   1.680 -0.0528  0.0080 -0.3583
18707TIP3    H177612   4.316   1.508   1.659  0.9265  0.3911 -2.6892
18707TIP3    H277613   4.236   1.624   1.713 -1.0355 -1.2702 -1.8915
18708TIP3   OH277614   2.200   1.045   6.104  0.1283  0.3836  0.4070
18708TIP3    H177615   2.188   1.062   6.198  1.0842  0.1852  0.5786
18708TIP3    H277616   2.232   0.955   6.101 -2.4629 -0.6099 -0.3118
18709TIP3   OH277617   2.938   3.308   2.563  0.1627 -0.0888  0.2286
18709TIP3    H177618   3.006   3.250   2.599 -0.7925  0.3239  2.9549
18709TIP3    H277619   2.914   3.365   2.637 -3.0213 -0.1178 -0.6535
18710TIP3   OH277620   2.760   4.277   5.152  0.3857 -0.6873  0.0996
18710TIP3    H177621   2.743   4.216   5.224  0.3777 -1.1778 -0.3153
18710TIP3    H277622   2.856   4.283   5.148  0.4351 -1.8893 -0.8654
18711TIP3   OH277623   2.856   6.654   4.280  0.1097 -0.3427 -0.0798
18711TIP3    H177624   2.859   6.727   4.218 -0.9406 -0.2392 -0.0164
18711TIP3    H277625   2.788   6.678   4.342 -1.0842 -1.8837 -0.7163
18712TIP3   OH277626   3.904   1.757   5.718 -0.1473 -0.4651  0.1885
18712TIP3    H177627   3.921   1.751   5.812 -2.1275  0.3520  0.6552
18712TIP3    H277628   3.825   1.704   5.705 -0.2396 -0.0772 -0.9068
18713TIP3   OH277629   1.264   6.851  16.550  0.2638 -0.0447 -0.5003
18713TIP3    H177630   1.206   6.807  16.488  0.5263 -1.4271  0.1992
18713TIP3    H277631   1.207   6.914  16.594 -0.8580 -1.6473  0.4620
18714TIP3   OH277632   1.608   3.327  16.414 -0.6425  0.0885  0.0901
18714TIP3    H177633   1.548   3.320  16.340 -0.4454  2.1723 -0.3352
18714TIP3    H277634   1.590   3.413  16.452  0.6631 -0.0891  1.1981
18715TIP3   OH277635   5.611   3.614  15.244  0.0942  0.0868 -0.1216
18715TIP3    H177636   5.554   3.640  15.172  0.2226  0.1381 -0.2041
18715TIP3    H277637   5.570   3.535  15.280  0.4614 -0.4161 -0.7662
18716TIP3   OH277638   5.523   2.148  15.909 -0.2006  0.2008 -0.9038
18716TIP3    H177639   5.619   2.141  15.911 -0.2223 -0.1710  0.8185
18716TIP3    H277640   5.499   2.127  15.819  1.4539  2.2264 -1.9010
18717TIP3   OH277641   2.857   4.188  15.022  0.0626 -0.3307  0.0999
18717TIP3    H177642   2.828   4.125  15.089 -0.7344  0.0889  0.1705
18717TIP3    H277643   2.906   4.135  14.959  0.9019 -0.7216  1.0496
18718TIP3   OH277644   1.158   6.059  13.754  1.0264 -0.4931 -0.2904
18718TIP3    H177645   1.205   6.100  13.682  0.6744 -0.7031 -0.6427
18718TIP3    H277646   1.222   6.054  13.825  1.8177 -1.6043 -1.0501
18719TIP3   OH277647   0.421   5.103  14.803  0.8682 -0.4346 -0.1945
18719TIP3    H177648   0.459   5.067  14.883  0.3071  1.2792  0.8866
18719TIP3    H277649   0.497   5.128  14.750  1.2834  0.2801  0.6997
18720TIP3   OH277650   4.257   3.064  15.624  0.2071  0.5261  0.0086
18720TIP3    H177651   4.302   2.983  15.647 -0.5985 -0.2245 -0.9493
18720TIP3    H277652   4.301   3.132  15.674  1.3002 -0.4206  0.3561
18721TIP3   OH277653   6.232   3.156  16.174  0.1388  0.0301  0.5465
18721TIP3    H177654   6.280   3.164  16.256  0.0341 -1.5233  0.7857
18721TIP3    H277655   6.140   3.152  16.201  0.0083  0.8192  0.2451
18722TIP3   OH277656   0.311   6.751  13.340 -0.3380 -0.0053 -0.0129
18722TIP3    H177657   0.216   6.752  13.355 -0.6780  1.1125 -1.9064
18722TIP3    H277658   0.334   6.843  13.330  0.8942 -0.2933  0.0460
18723TIP3   OH277659   5.560   2.189   5.117 -0.3312  0.0022 -0.0472
18723TIP3    H177660   5.562   2.169   5.024 -1.9849 -1.6358  0.2166
18723TIP3    H277661   5.467   2.200   5.137  0.0161  0.5802  1.3721
18724TIP3   OH277662   3.165   6.577   1.746  0.3940  0.1017  0.2703
18724TIP3    H177663   3.150   6.672   1.754  0.6588  0.0746  1.2741
18724TIP3    H277664   3.183   6.549   1.836  2.5155 -0.5317 -0.2976
18725TIP3   OH277665   1.315   4.623   4.144 -0.2582 -0.1187 -0.2253
18725TIP3    H177666   1.363   4.614   4.227  0.2144 -1.2416 -0.5904
18725TIP3    H277667   1.247   4.555   4.149 -0.1420 -0.2812 -0.8012
18726TIP3   OH277668   0.202   0.312  13.373 -0.1653 -0.1995 -0.5107
18726TIP3    H177669   0.132   0.319  13.438  0.3109 -1.5135  0.1884
18726TIP3    H277670   0.166   0.355  13.295 -1.9242 -1.1514 -0.2924
18727TIP3   OH277671   6.405   1.103   4.252  0.1245  0.2868  0.0370
18727TIP3    H177672   6.486   1.144   4.223  0.4733 -0.7839 -0.5584
18727TIP3    H277673   6.404   1.115   4.347  1.2058 -0.0735  0.1082
18728TIP3   OH277674   6.093   6.490  11.332 -0.2910  0.0327  0.0494
18728TIP3    H177675   6.057   6.402  11.325  0.4841 -0.4274  1.5799
18728TIP3    H277676   6.025   6.541  11.378 -0.6653  0.2143 -0.6823
18729TIP3   OH277677   5.114   3.365  12.778  0.1537 -0.2919  0.2724
18729TIP3    H177678   5.077   3.416  12.850  1.2746  0.0864  0.6139
18729TIP3    H277679   5.071   3.280  12.784 -2.6078  0.8833 -1.0002
18730TIP3   OH277680   4.662   2.790  10.951 -0.4536 -0.4490  0.3778
18730TIP3    H177681   4.622   2.727  10.891  1.1193 -0.1590 -1.0340
18730TIP3    H277682   4.622   2.874  10.929  2.5973  0.3502 -2.8700
18731TIP3   OH277683   3.767   4.145  16.568 -0.0255 -0.1641 -0.4016
18731TIP3    H177684   3.819   4.210  16.615  0.3932  0.0521 -1.1423
18731TIP3    H277685   3.703   4.196  16.518 -0.0005 -0.3473 -0.6237
18732TIP3   OH277686   1.484   6.781   1.560 -1.1050 -0.3712 -0.6113
18732TIP3    H177687   1.512   6.690   1.563 -0.7210 -0.2873 -1.4724
18732TIP3    H277688   1.390   6.778   1.579 -1.4321 -1.1208 -2.2427
18733TIP3   OH277689   0.741   4.920   3.904  0.2725  0.7876 -0.4129
18733TIP3    H177690   0.749   4.893   3.812  0.3951 -0.9024  0.0628
18733TIP3    H277691   0.656   4.964   3.908  0.0401  0.4433 -1.2362
18734TIP3   OH277692   6.045   4.649   0.491  0.0529  0.4902 -0.7431
18734TIP3    H177693   6.130   4.691   0.483  1.1819 -1.7351 -1.0705
18734TIP3    H277694   6.044   4.583   0.422 -1.4300 -0.3598  0.0377
18735TIP3   OH277695   6.691   3.040  15.573 -0.2572  0.2494 -0.3007
18735TIP3    H177696   6.760   2.992  15.619  1.6428  1.7869 -1.3587
18735TIP3    H277697   6.662   2.981  15.504 -1.3645 -1.1141  1.2636
18736TIP3   OH277698   5.590   2.032  16.818 -0.3228 -0.1841 -0.6150
18736TIP3    H177699   5.663   2.064  16.871  1.4575 -3.7614 -0.6210
18736TIP3    H277700   5.514   2.080  16.850  1.4732  1.3531  1.6756
18737TIP3   OH277701   4.787   4.607   0.945 -0.4403  0.6612 -0.4002
18737TIP3    H177702   4.719   4.640   1.003  0.1533  0.5482  0.3802
18737TIP3    H277703   4.744   4.539   0.893 -1.1980  1.3762 -0.7273
18738TIP3   OH277704   6.182   5.524  14.474 -0.3568 -0.0660 -0.0231
18738TIP3    H177705   6.109   5.495  14.420 -0.4302 -1.0303  0.5622
18738TIP3    H277706   6.225   5.442  14.501 -0.1008  0.4089  1.0552
18739TIP3   OH277707   3.168   0.693  12.224  0.2671  0.3873  0.4837
18739TIP3    H177708   3.079   0.662  12.238 -0.4351  2.4654  1.0247
18739TIP3    H277709   3.213   0.620  12.182 -0.8272 -1.8656  2.9178
18740TIP3   OH277710   6.608   4.241   5.716  0.1665 -0.6303  0.8541
18740TIP3    H177711   6.622   4.159   5.669  0.5504  0.8550 -1.7978
18740TIP3    H277712   6.686   4.251   5.770  2.0906 -0.1179 -1.8513
18741TIP3   OH277713   2.923   3.566   2.994  0.5772  0.5087 -0.9223
18741TIP3    H177714   2.841   3.602   3.029  1.0776  0.1133  0.7650
18741TIP3    H277715   2.988   3.585   3.062  2.1486  1.7479 -2.6555
18742TIP3   OH277716   5.292   5.974  16.821 -0.1629  0.5137 -0.5373
18742TIP3    H177717   5.342   5.915  16.765 -0.0990 -0.6238  0.6603
18742TIP3    H277718   5.311   6.062  16.787  1.7775  0.0372 -0.7973
18743TIP3   OH277719   3.369   1.784   3.642  0.4353 -0.0064  0.5930
18743TIP3    H177720   3.408   1.701   3.612  1.7793  0.4426  1.0228
18743TIP3    H277721   3.339   1.766   3.731 -0.8398 -0.4965  0.0843
18744TIP3   OH277722   6.542   0.248   5.367 -0.3076  0.6696 -0.1646
18744TIP3    H177723   6.450   0.273   5.367 -0.6096 -0.4317 -0.1560
18744TIP3    H277724   6.544   0.160   5.329  0.4299 -0.4033  2.1845
18745TIP3   OH277725   3.942   0.560  15.173  0.8719 -0.1710  0.1494
18745TIP3    H177726   3.935   0.494  15.242 -1.4866  0.4306  0.6093
18745TIP3    H277727   3.923   0.643  15.218  2.2755  0.6506 -0.6980
18746TIP3   OH277728   1.236   1.322   5.076  0.0817 -0.2892 -0.1063
18746TIP3    H177729   1.320   1.279   5.092 -0.2106 -0.9343 -0.2555
18746TIP3    H277730   1.257   1.415   5.072  1.0105 -0.5353 -1.5606
18747TIP3   OH277731   2.044   5.007   4.198  0.2607 -0.5914 -0.4422
18747TIP3    H177732   2.090   4.923   4.190 -1.3699 -2.0396  3.0030
18747TIP3    H277733   2.009   5.006   4.288 -1.3691  3.0196 -0.8685
18748TIP3   OH277734   4.102   2.797   4.755  0.4245 -0.2716  0.4220
18748TIP3    H177735   4.099   2.872   4.814 -1.1910  0.2300 -0.2402
18748TIP3    H277736   4.011   2.770   4.746  0.8889 -1.7904 -0.0305
18749TIP3   OH277737   3.629   4.480   0.530  0.2592 -0.1815 -0.2352
18749TIP3    H177738   3.552   4.517   0.573  1.2338 -0.0872  1.5012
18749TIP3    H277739   3.635   4.391   0.563  0.3017 -0.5502 -1.2025
18750TIP3   OH277740   2.405   0.071  15.461 -0.4956  0.4877  0.0867
18750TIP3    H177741   2.367  -0.003  15.508 -1.0663  0.9493  0.3693
18750TIP3    H277742   2.331   0.129  15.444 -0.0321  1.0625  0.0001
18751TIP3   OH277743   5.405   4.885  11.848 -0.2603  0.6927 -0.1997
18751TIP3    H177744   5.476   4.822  11.834  0.2302  1.5907 -2.1144
18751TIP3    H277745   5.369   4.901  11.761 -1.1147  2.2041  0.3798
18752TIP3   OH277746   5.312   4.418  10.538 -0.1617  0.7677  0.0087
18752TIP3    H177747   5.265   4.458  10.465  1.1672 -2.4831 -2.9275
18752TIP3    H277748   5.376   4.484  10.565 -2.3629  2.9997  0.0711
18753TIP3   OH277749   2.239   6.498  11.929  0.1273  0.3440 -0.2580
18753TIP3    H177750   2.211   6.516  11.839 -0.0873  1.3759 -0.0035
18753TIP3    H277751   2.322   6.452  11.920  0.4219  0.9979 -0.9791
18754TIP3   OH277752   2.925   3.745   3.511  0.0615 -0.2561  0.3226
18754TIP3    H177753   2.840   3.756   3.467  1.3537  4.4329 -1.5682
18754TIP3    H277754   2.972   3.683   3.455 -1.4708 -1.6671  0.5006
18755TIP3   OH277755   6.828   2.253  16.519 -0.0572  0.2677 -0.1503
18755TIP3    H177756   6.757   2.287  16.465 -0.2609 -0.4575 -0.3419
18755TIP3    H277757   6.908   2.282  16.474 -0.2064  1.5129  0.3317
18756TIP3   OH277758   3.472   2.268   2.508  0.6361  0.0696  0.0239
18756TIP3    H177759   3.422   2.331   2.455 -0.7012 -1.0095 -0.0549
18756TIP3    H277760   3.502   2.202   2.445  0.4641 -0.3330  0.3584
18757TIP3   OH277761   1.868   2.657   1.519 -0.0026  0.3053 -0.7350
18757TIP3    H177762   1.946   2.612   1.485 -0.2354 -2.2183  1.7280
18757TIP3    H277763   1.892   2.684   1.607 -1.8160 -0.3798  0.0217
18758TIP3   OH277764   3.938   2.238  14.548  0.3967  0.1287 -0.0904
18758TIP3    H177765   3.969   2.149  14.529  1.9118  1.2188 -3.6117
18758TIP3    H277766   4.017   2.286  14.571 -0.2532  0.7817  0.8211
18759TIP3   OH277767   1.201   4.477  12.202 -0.9152 -0.1390 -0.3943
18759TIP3    H177768   1.141   4.402  12.204  0.5617 -1.3592  1.1530
18759TIP3    H277769   1.268   4.453  12.138 -0.0890 -0.4845  0.5623
18760TIP3   OH277770   4.579   6.340  15.095 -0.3091  0.1580  0.5486
18760TIP3    H177771   4.539   6.300  15.172 -0.3542 -1.2173 -0.1474
18760TIP3    H277772   4.640   6.274  15.062 -0.1368  0.7924 -0.4763
18761TIP3   OH277773   2.115   5.924   1.170  0.2722  0.0860 -0.2560
18761TIP3    H177774   2.129   5.993   1.235  1.6759 -0.5746  0.1864
18761TIP3    H277775   2.196   5.923   1.118 -0.1422 -0.5456 -0.9070
18762TIP3   OH277776   1.451   6.497   0.619  0.0556  0.3501 -0.7005
18762TIP3    H177777   1.520   6.547   0.662 -1.3510  0.4294  1.6158
18762TIP3    H277778   1.487   6.409   0.611 -0.0089  0.0234  1.8145
18763TIP3   OH277779   5.438   1.329   5.512  0.8012 -0.5950  0.5231
18763TIP3    H177780   5.414   1.398   5.451  0.6694  1.0294  2.3124
18763TIP3    H277781   5.522   1.296   5.479  0.2849 -0.4151 -1.0227
18764TIP3   OH277782   5.073   3.087  12.767  0.0068  0.2324  0.1560
18764TIP3    H177783   5.053   3.074  12.674  1.7691  1.6011 -0.4556
18764TIP3    H277784   5.151   3.033  12.782 -1.0701 -1.0964  1.2403
18765TIP3   OH277785   3.460   2.347  15.827 -0.3461 -0.7695 -0.1837
18765TIP3    H177786   3.546   2.348  15.869 -0.6430 -0.5598  0.4414
18765TIP3    H277787   3.414   2.421  15.867 -0.8388 -0.9228 -0.4658
18766TIP3   OH277788   5.766   1.797   0.956 -0.0272  0.5674 -0.2601
18766TIP3    H177789   5.802   1.843   1.031 -0.7595  0.4117  0.1963
18766TIP3    H277790   5.723   1.720   0.993  0.4101 -0.0076 -0.9311
18767TIP3   OH277791   5.882   2.992   6.306 -0.0138  0.3173  0.0389
18767TIP3    H177792   5.877   2.973   6.213 -0.3087  1.0111 -0.0871
18767TIP3    H277793   5.794   2.978   6.339 -0.4968  2.4072 -0.2482
18768TIP3   OH277794   4.578   4.436   1.652  0.4970 -0.1005  0.2875
18768TIP3    H177795   4.671   4.427   1.669  0.8297  3.8886  1.6583
18768TIP3    H277796   4.536   4.391   1.726  1.3332 -0.9563  0.2639
18769TIP3   OH277797   0.912   5.026  11.341  0.1726 -0.2876  0.0877
18769TIP3    H177798   1.004   4.999  11.345 -0.4096 -2.6851 -0.7880
18769TIP3    H277799   0.870   4.975  11.411 -0.7851 -0.6577 -0.7424
18770TIP3   OH277800   4.619   2.869   4.289  0.5907  0.1033  0.0349
18770TIP3    H177801   4.611   2.844   4.197 -0.7400  2.4390 -0.5596
18770TIP3    H277802   4.535   2.844   4.328  0.4768  0.6802  0.1733
18771TIP3   OH277803   1.414   0.170   3.527 -0.0383  0.1343 -0.3028
18771TIP3    H177804   1.338   0.140   3.578 -1.5997  1.7740 -1.5048
18771TIP3    H277805   1.459   0.090   3.501 -1.7036 -0.9431 -0.0323
18772TIP3   OH277806   4.887   0.187   4.433  0.1167  0.4202 -0.3141
18772TIP3    H177807   4.863   0.244   4.506 -0.3008  1.7838 -1.5006
18772TIP3    H277808   4.890   0.099   4.472  1.3589  1.2791  1.6834
18773TIP3   OH277809   1.807   5.331  13.092  0.0513  0.1305  0.1478
18773TIP3    H177810   1.817   5.401  13.029 -1.4941  0.4025  0.1653
18773TIP3    H277811   1.751   5.367  13.161 -0.9864 -1.1619  0.0350
18774TIP3   OH277812   0.961   4.544   4.429  0.4108  0.3403 -0.1946
18774TIP3    H177813   0.879   4.548   4.479  0.9770 -1.2374  0.9801
18774TIP3    H277814   0.945   4.477   4.363  0.3884  0.8521 -0.7114
18775TIP3   OH277815   0.156   3.356  15.254  0.1647  0.5257  0.3444
18775TIP3    H177816   0.119   3.412  15.185 -1.3697  0.8747  1.3848
18775TIP3    H277817   0.081   3.304  15.283  1.5368 -2.0964 -0.5529
18776TIP3   OH277818   2.624   3.913   4.094  0.5589 -0.2156  0.3273
18776TIP3    H177819   2.557   3.941   4.156  0.7829  1.0147  0.0413
18776TIP3    H277820   2.575   3.874   4.022  0.1141  0.7165  0.1022
18777TIP3   OH277821   0.427   0.925  15.056 -0.8572  0.2281 -0.1314
18777TIP3    H177822   0.407   1.018  15.063 -0.0427  0.4768 -0.8718
18777TIP3    H277823   0.351   0.888  15.011 -0.4581  0.8588 -1.3882
18778TIP3   OH277824   3.117   0.926  15.168  0.3324 -0.1601 -0.5021
18778TIP3    H177825   3.203   0.916  15.208 -0.6313 -1.2693  1.3857
18778TIP3    H277826   3.108   1.020  15.155  2.1722 -0.0784 -1.6176
18779TIP3   OH277827   5.294   4.450   0.091 -0.7578 -0.5572  0.1029
18779TIP3    H177828   5.267   4.444   0.182  0.3136 -1.7333  0.3779
18779TIP3    H277829   5.212   4.459   0.042 -1.3809 -0.4193  1.1425
18780TIP3   OH277830   5.411   1.086  13.667  0.4407  0.2481  0.1726
18780TIP3    H177831   5.318   1.075  13.647  0.8997 -0.6765 -1.6337
18780TIP3    H277832   5.413   1.095  13.762 -1.4426 -0.3748  0.3288
18781TIP3   OH277833   5.153   4.213  16.681 -0.0518 -0.0529  0.1581
18781TIP3    H177834   5.151   4.241  16.589 -1.2886 -0.2356  0.1091
18781TIP3    H277835   5.134   4.293  16.731  0.3586 -0.0081  0.2451
18782TIP3   OH277836   4.016   4.325   0.336  0.3514  0.6799  0.3856
18782TIP3    H177837   4.041   4.387   0.268  0.1204  0.2252 -0.1244
18782TIP3    H277838   4.064   4.245   0.314 -0.8009  0.0927 -0.0655
18783TIP3   OH277839   3.432   6.224  14.781  0.0250  0.3405  1.0201
18783TIP3    H177840   3.455   6.241  14.690 -1.8898  1.8101  0.7456
18783TIP3    H277841   3.427   6.310  14.822  1.0731 -0.3009  2.5995
18784TIP3   OH277842   6.289   0.380   0.892 -0.2269  0.0133 -0.1194
18784TIP3    H177843   6.288   0.454   0.953  0.8135  0.1739 -0.2663
18784TIP3    H277844   6.382   0.370   0.868 -0.6940  0.5057 -2.3568
18785TIP3   OH277845   5.644   3.550  15.795  0.0132 -0.7762 -0.0171
18785TIP3    H177846   5.724   3.501  15.778  0.3666  0.1742 -1.2560
18785TIP3    H277847   5.631   3.603  15.716  0.0240  1.6310  1.4743
18786TIP3   OH277848   2.910   1.276   4.364 -0.4739 -0.1206  0.1342
18786TIP3    H177849   2.839   1.217   4.391 -0.2771  0.1890  1.3678
18786TIP3    H277850   2.984   1.252   4.420  0.8427 -1.2965 -1.9837
18787TIP3   OH277851   0.705   5.084  16.620 -0.1841 -0.7562  0.5015
18787TIP3    H177852   0.625   5.125  16.586  1.3955  0.8291 -1.5434
18787TIP3    H277853   0.675   5.032  16.694 -3.0200  0.2884  0.2204
18788TIP3   OH277854   5.353   6.266  14.582 -0.2016 -0.1367 -0.3959
18788TIP3    H177855   5.341   6.359  14.567 -1.4223 -0.4469 -1.5125
18788TIP3    H277856   5.448   6.256  14.595 -0.3246  1.6567  3.1149
18789TIP3   OH277857   2.097   4.688   3.986  0.4025 -0.5514 -0.7903
18789TIP3    H177858   2.152   4.650   4.054 -0.0474 -0.8454 -0.5862
18789TIP3    H277859   2.023   4.727   4.034  1.1263  1.1056 -0.9301
18790TIP3   OH277860   2.208   1.385   6.314 -0.0811  0.3997  0.1906
18790TIP3    H177861   2.116   1.389   6.340 -0.2647 -0.2864 -0.3046
18790TIP3    H277862   2.256   1.430   6.384 -0.6800 -0.2062  1.0035
18791TIP3   OH277863   6.465   5.250  14.914  0.3620  0.0937 -0.0783
18791TIP3    H177864   6.445   5.201  14.834  0.5526 -0.4990  0.2340
18791TIP3    H277865   6.552   5.221  14.939  0.8558  1.2576 -0.3792
18792TIP3   OH277866   6.817   4.433   2.127 -0.1005 -0.2941  0.7227
18792TIP3    H177867   6.730   4.395   2.113  0.2056 -1.7250  2.3265
18792TIP3    H277868   6.854   4.441   2.039 -1.1348 -1.4804  0.1439
18793TIP3   OH277869   6.845   6.694  12.994 -0.0881 -0.4047 -0.2273
18793TIP3    H177870   6.764   6.728  13.032  0.7486  0.7187  0.5893
18793TIP3    H277871   6.880   6.767  12.942  1.0563 -0.4340  0.4768
18794TIP3   OH277872   1.514   3.240   2.073  0.1500  0.0217 -0.5636
18794TIP3    H177873   1.419   3.244   2.088  0.1630  0.5795 -0.6145
18794TIP3    H277874   1.527   3.286   1.990  0.5684  0.7538 -0.0998
18795TIP3   OH277875   5.925   1.523   5.992 -0.4334 -0.3105  0.2314
18795TIP3    H177876   6.012   1.483   5.986 -0.1481  0.4961 -1.5384
18795TIP3    H277877   5.903   1.518   6.085  1.7861  0.0672  0.8345
18796TIP3   OH277878   0.988   4.480  11.913  0.3101 -0.7034  0.2629
18796TIP3    H177879   0.915   4.527  11.873 -0.0333 -1.4048  0.0346
18796TIP3    H277880   1.004   4.526  11.995 -0.1467 -0.3145  0.1407
18797TIP3   OH277881   2.457   4.759   5.073 -0.0025 -0.5723  0.5432
18797TIP3    H177882   2.529   4.822   5.076 -0.3389 -0.1301 -0.1107
18797TIP3    H277883   2.494   4.678   5.106  0.3809  0.0268  1.6346
18798TIP3   OH277884   6.575   4.820   4.721 -0.1455  0.4771  0.4173
18798TIP3    H177885   6.560   4.771   4.802 -1.1541 -1.6033 -0.9540
18798TIP3    H277886   6.519   4.897   4.729 -1.0282 -0.2333  1.2426
18799TIP3   OH277887   6.455   2.290  11.600  0.5032  0.1018 -0.2675
18799TIP3    H177888   6.427   2.278  11.691  1.5707  0.2523  0.0951
18799TIP3    H277889   6.456   2.202  11.563  3.0811 -0.3984  0.8001
18800TIP3   OH277890   6.560   6.017   4.876  0.0700 -0.6670  0.2119
18800TIP3    H177891   6.509   5.939   4.853  0.5686 -1.4411  1.5761
18800TIP3    H277892   6.638   6.013   4.820  0.6330 -1.7897  1.0291
18801TIP3   OH277893   3.656   4.408   1.014  0.1768 -0.3391 -0.0498
18801TIP3    H177894   3.664   4.331   0.958  2.1134 -0.6959  0.6374
18801TIP3    H277895   3.719   4.470   0.978 -1.3442  0.9541 -0.5795
18802TIP3   OH277896   2.258   3.811   0.020 -0.6031  0.0607  0.3283
18802TIP3    H177897   2.193   3.765  -0.033 -0.5021 -0.5418  0.7135
18802TIP3    H277898   2.340   3.766   0.001 -0.3638  0.5631  0.1485
18803TIP3   OH277899   3.123   4.491  16.003 -0.1569 -0.3078  0.4341
18803TIP3    H177900   3.147   4.403  16.033 -0.5194 -0.2816  0.8181
18803TIP3    H277901   3.163   4.550  16.068  0.3706 -0.1671 -0.0102
18804TIP3   OH277902   0.268   1.633  13.261 -0.1952  0.1175 -0.5639
18804TIP3    H177903   0.316   1.573  13.319  1.1826  1.9585  0.3174
18804TIP3    H277904   0.177   1.604  13.267 -0.3812  0.8879  3.5463
18805TIP3   OH277905   6.633   1.853  13.508  0.0883 -0.4313 -0.1202
18805TIP3    H177906   6.578   1.929  13.525 -1.0022 -0.8094 -1.7170
18805TIP3    H277907   6.658   1.862  13.416 -1.6058 -2.9175 -0.9212
18806TIP3   OH277908   3.102   1.188   1.732 -1.1264  0.5321  0.8350
18806TIP3    H177909   3.007   1.197   1.733 -1.4904 -2.3776  1.6387
18806TIP3    H277910   3.119   1.106   1.779  1.4796 -1.1826 -2.6492
18807TIP3   OH277911   0.202   2.399  13.886  0.3541 -0.4195  0.1322
18807TIP3    H177912   0.233   2.325  13.834 -0.1506 -0.4521 -0.1268
18807TIP3    H277913   0.157   2.455  13.823 -0.2068 -0.4291  0.5191
18808TIP3   OH277914   5.486   4.745  11.246 -0.8558 -0.4137  0.0824
18808TIP3    H177915   5.515   4.820  11.297 -1.5509  0.3325 -0.5987
18808TIP3    H277916   5.417   4.705  11.299  0.5129 -1.4974  1.1499
18809TIP3   OH277917   5.988   0.018  14.622  0.0289 -0.1529 -0.4312
18809TIP3    H177918   5.931  -0.015  14.552 -1.2693  0.4323  0.3185
18809TIP3    H277919   5.934   0.082  14.668  1.3220  0.4376  0.2955
18810TIP3   OH277920   5.208   3.752  13.718 -0.9150  0.3324 -0.2643
18810TIP3    H177921   5.261   3.765  13.639 -1.0200  0.8548 -0.2525
18810TIP3    H277922   5.127   3.798  13.699 -0.7167  0.9505  0.3806
18811TIP3   OH277923   3.906   2.844   3.236 -0.2150  0.0458  0.4562
18811TIP3    H177924   3.852   2.766   3.254  0.4560 -0.3757  0.6881
18811TIP3    H277925   3.972   2.814   3.174 -0.6137  0.7205 -0.3101
18812TIP3   OH277926   1.564   3.080  15.285  0.5333  0.3283 -0.2294
18812TIP3    H177927   1.600   3.003  15.241 -0.5693 -0.0642 -0.4668
18812TIP3    H277928   1.511   3.045  15.356 -0.2364  0.8524 -0.5359
18813TIP3   OH277929   6.374   6.660  13.149 -0.0294 -0.3188  0.1291
18813TIP3    H177930   6.284   6.692  13.138 -0.6479 -1.7731  0.7694
18813TIP3    H277931   6.380   6.641  13.243  1.0496  0.0197  0.1363
18814TIP3   OH277932   4.432   2.029   3.388  0.0234 -0.2302 -0.1731
18814TIP3    H177933   4.381   1.950   3.372  0.5143 -0.9493  1.6410
18814TIP3    H277934   4.409   2.055   3.477 -0.1657  1.7162 -0.7481
18815TIP3   OH277935   1.717   5.500   4.761  0.1910  0.2080  0.0288
18815TIP3    H177936   1.692   5.546   4.842 -2.0434 -0.0737 -0.4548
18815TIP3    H277937   1.702   5.564   4.692 -1.1136 -0.6069 -0.4643
18816TIP3   OH277938   1.046   0.445  16.060  0.5030 -0.0149 -0.1367
18816TIP3    H177939   1.042   0.507  15.987 -1.6331  0.2673  0.1308
18816TIP3    H277940   1.049   0.500  16.138 -0.6728 -0.2038  0.0715
18817TIP3   OH277941   1.698   1.219   1.620 -0.6751 -0.0830 -0.2577
18817TIP3    H177942   1.774   1.223   1.563 -0.6124 -1.6247 -0.3251
18817TIP3    H277943   1.733   1.235   1.708 -0.3455 -0.3063 -0.3454
18818TIP3   OH277944   0.477   5.255  12.992 -0.2220 -0.0927 -0.3784
18818TIP3    H177945   0.505   5.187  12.931 -0.1661 -0.9714  0.5960
18818TIP3    H277946   0.553   5.271  13.048  0.3145  1.9686 -1.5953
18819TIP3   OH277947   3.995   4.844  12.588 -0.1990  0.2138 -0.3690
18819TIP3    H177948   3.910   4.801  12.595 -0.1635 -0.0486 -1.3878
18819TIP3    H277949   4.053   4.778  12.551  0.1528  0.7519 -0.8055
18820TIP3   OH277950   0.021   1.316  13.370  0.4445 -0.3072  0.5816
18820TIP3    H177951   0.058   1.313  13.459  1.2429 -1.7517  0.2255
18820TIP3    H277952   0.065   1.245  13.323  0.2435  0.6100 -1.0662
18821TIP3   OH277953   6.887   3.811   1.389  0.5441 -0.2937 -0.2743
18821TIP3    H177954   6.815   3.793   1.449  1.7179 -3.8606  0.3647
18821TIP3    H277955   6.849   3.798   1.302  0.1573 -1.3138  0.0210
18822TIP3   OH277956   6.576   1.130   3.658  0.0738 -0.2940  0.8655
18822TIP3    H177957   6.579   1.063   3.589  0.6341  0.1785  0.4218
18822TIP3    H277958   6.558   1.211   3.611  0.1398 -0.0197  1.3196
18823TIP3   OH277959   0.111   3.757   2.814  0.4118 -0.5722 -0.6596
18823TIP3    H177960   0.177   3.691   2.792  1.2765  0.7956 -2.3967
18823TIP3    H277961   0.158   3.840   2.810 -1.0063  0.2961 -0.0279
18824TIP3   OH277962   1.316   4.803   5.190 -0.3366 -0.6957  0.1147
18824TIP3    H177963   1.274   4.849   5.263 -1.3328  1.4479 -1.6742
18824TIP3    H277964   1.409   4.824   5.199 -0.6653  1.0277 -0.1521
18825TIP3   OH277965   1.419   6.063  13.935  0.3065  0.4717  0.0562
18825TIP3    H177966   1.499   6.106  13.966  0.2241  0.3349  0.4567
18825TIP3    H277967   1.449   5.979  13.899  0.4357  0.7509 -0.4936
18826TIP3   OH277968   3.636   4.452   1.302 -0.5201 -0.0980  0.2190
18826TIP3    H177969   3.639   4.471   1.208 -0.6973 -0.7455  0.0835
18826TIP3    H277970   3.724   4.420   1.323  0.2334  2.0954  0.7278
18827TIP3   OH277971   3.550   4.853  11.818 -0.2410  0.2459  0.3317
18827TIP3    H177972   3.485   4.806  11.871 -1.2109  0.3798 -0.6867
18827TIP3    H277973   3.542   4.944  11.845 -0.1262  0.1920  0.5508
18828TIP3   OH277974   4.313   5.030  13.125  0.1710  1.0146  0.3479
18828TIP3    H177975   4.268   5.090  13.185 -0.3159  1.1712 -0.1716
18828TIP3    H277976   4.256   5.025  13.049  0.9802  1.1274 -0.2768
18829TIP3   OH277977   3.550   5.837  10.565  0.6858  0.7295  0.7835
18829TIP3    H177978   3.461   5.816  10.593  0.9986  0.2639  1.4475
18829TIP3    H277979   3.552   5.933  10.559 -0.2307  0.6959 -0.5266
18830TIP3   OH277980   4.593   4.139  11.131  0.3032  0.1919  0.3191
18830TIP3    H177981   4.602   4.217  11.185  0.9102  0.0721  0.4012
18830TIP3    H277982   4.605   4.170  11.041 -0.7005  0.3901  0.2480
18831TIP3   OH277983   2.682   2.079  14.112 -0.5507  0.6879  0.5890
18831TIP3    H177984   2.662   2.036  14.029 -1.2709 -0.0278  1.1212
18831TIP3    H277985   2.711   2.167  14.087  0.1159  0.1966 -0.4679
18832TIP3   OH277986   6.476   0.658   3.943  0.0965 -0.1214 -0.5085
18832TIP3    H177987   6.434   0.609   4.013 -0.3727 -1.3911 -1.6302
18832TIP3    H277988   6.403   0.695   3.893  0.3664 -0.5944 -1.2674
18833TIP3   OH277989   0.878   4.681   6.200  0.1268  0.0247  0.8386
18833TIP3    H177990   0.835   4.766   6.194 -0.3707 -0.3171 -1.0746
18833TIP3    H277991   0.828   4.624   6.141  0.3436 -1.6656  2.1765
18834TIP3   OH277992   1.874   4.979   0.473 -0.8174 -0.2414 -0.6373
18834TIP3    H177993   1.835   4.894   0.494 -2.4316  0.4670 -0.6194
18834TIP3    H277994   1.841   5.039   0.540  1.9433  0.0348  0.5748
18835TIP3   OH277995   1.470   5.735  16.874 -0.2687 -0.1921 -0.0654
18835TIP3    H177996   1.409   5.792  16.920  0.3167  0.1942  0.2513
18835TIP3    H277997   1.470   5.653  16.924 -1.5674 -0.7138 -0.8673
18836TIP3   OH277998   1.395   6.408   3.722 -0.0613  0.0005  0.7630
18836TIP3    H177999   1.425   6.338   3.780 -0.2021  0.7493  1.7838
18836TIP3    H278000   1.475   6.451   3.693  0.0899 -1.1688 -0.6866
18837TIP3   OH278001   6.874   6.767  14.061  0.1250  0.1065  0.0888
18837TIP3    H178002   6.841   6.692  14.011  2.7172 -1.4575  0.5595
18837TIP3    H278003   6.798   6.797  14.111 -0.9500 -2.4365  0.1429
18838TIP3   OH278004   4.030   6.301  11.303 -0.1858  0.1810 -0.5834
18838TIP3    H178005   4.111   6.337  11.339 -0.1993  0.3363 -0.7081
18838TIP3    H278006   4.045   6.206  11.300 -0.6182  0.0391  0.9415
18839TIP3   OH278007   5.890   2.547  16.068  0.4966 -0.7133 -0.8207
18839TIP3    H178008   5.833   2.483  16.111  0.4834  0.6300  1.2966
18839TIP3    H278009   5.976   2.504  16.066  0.3764 -1.0272  0.0940
18840TIP3   OH278010   4.880   1.734   0.395  0.0974 -0.2362  0.0680
18840TIP3    H178011   4.854   1.807   0.451  1.0590 -0.7175  1.1820
18840TIP3    H278012   4.974   1.745   0.383 -0.1920  0.3376 -2.2123
18841TIP3   OH278013   1.660   1.044   5.906  0.2160  0.0607 -0.7503
18841TIP3    H178014   1.745   1.057   5.948  0.2540 -0.8389 -0.5224
18841TIP3    H278015   1.676   0.977   5.839 -0.4032 -0.4970 -0.3564
18842TIP3   OH278016   4.908   5.357   1.400 -0.1556 -0.3038 -0.1557
18842TIP3    H178017   4.846   5.285   1.404  0.3777 -0.9018 -1.7428
18842TIP3    H278018   4.867   5.428   1.449 -1.4834 -1.1150 -0.0601
18843TIP3   OH278019   5.955   1.335  12.826 -0.0594 -0.2688  0.0415
18843TIP3    H178020   5.907   1.417  12.816 -1.6942 -1.0697  0.8826
18843TIP3    H278021   5.997   1.341  12.911 -0.2058 -0.3175  0.1174
18844TIP3   OH278022   4.560   1.085   2.419  0.1277 -0.4679 -0.0312
18844TIP3    H178023   4.486   1.127   2.462  0.8347 -0.0076  0.7444
18844TIP3    H278024   4.550   1.109   2.326 -0.2381  0.2708  0.1923
18845TIP3   OH278025   3.171   6.300   2.240 -0.1424  0.2918 -0.3489
18845TIP3    H178026   3.186   6.348   2.322 -0.6083  0.8556 -0.5878
18845TIP3    H278027   3.097   6.242   2.260  0.7259 -0.7137  0.0880
18846TIP3   OH278028   2.656   1.661  11.153  0.2449 -0.4361  0.2107
18846TIP3    H178029   2.563   1.647  11.171  0.6227 -0.5646  2.2822
18846TIP3    H278030   2.701   1.617  11.225  1.8215  1.9509  0.7909
18847TIP3   OH278031   1.329   3.800   0.342  0.3567 -0.2067 -0.6839
18847TIP3    H178032   1.298   3.713   0.369  0.1391 -0.6862 -2.3694
18847TIP3    H278033   1.342   3.847   0.424 -2.6316 -0.7512  0.2216
18848TIP3   OH278034   0.612   0.247  16.028  0.0916  0.4795 -0.4318
18848TIP3    H178035   0.688   0.195  16.004  1.1574  1.2852  0.9843
18848TIP3    H278036   0.633   0.336  15.999  0.2614  0.9473  1.0370
18849TIP3   OH278037   5.593   1.243   4.609 -0.0774 -0.0861 -0.7861
18849TIP3    H178038   5.639   1.268   4.529 -1.5267 -0.0668 -1.6494
18849TIP3    H278039   5.501   1.236   4.583 -0.4934 -0.7525  0.7252
18850TIP3   OH278040   4.843   6.206  16.249  0.1702  0.2575 -0.4144
18850TIP3    H178041   4.889   6.184  16.330  0.4620  0.3362 -0.5563
18850TIP3    H278042   4.912   6.210  16.182 -0.2307 -1.2002 -0.9488
18851TIP3   OH278043   1.180   5.092   3.337  0.9250 -0.5495  0.3332
18851TIP3    H178044   1.098   5.120   3.296  1.3860 -0.3489 -0.4734
18851TIP3    H278045   1.170   5.116   3.429 -0.2175 -1.1961  0.3904
18852TIP3   OH278046   1.077   5.757  13.727  0.5942 -0.3100 -0.0256
18852TIP3    H178047   0.989   5.785  13.755  0.8875  0.4858  0.1246
18852TIP3    H278048   1.136   5.821  13.766  1.5813 -2.6172  2.7031
18853TIP3   OH278049   6.224   4.551  12.948 -0.3706 -0.2074 -0.9082
18853TIP3    H178050   6.259   4.584  12.865 -0.0606 -1.8464 -1.4607
18853TIP3    H278051   6.155   4.490  12.923  0.5041 -1.6166 -0.0171
18854TIP3   OH278052   1.630   4.227   0.963 -0.2410  0.4796  0.2028
18854TIP3    H178053   1.674   4.155   1.007  0.5910  0.9963  0.2555
18854TIP3    H278054   1.605   4.192   0.877 -0.9027 -0.2084  0.6658
18855TIP3   OH278055   4.558   4.172  16.552 -0.2127  0.2855 -0.0802
18855TIP3    H178056   4.526   4.128  16.474 -1.2195  0.5480  0.1756
18855TIP3    H278057   4.567   4.102  16.617  1.3930 -0.0760 -0.6207
18856TIP3   OH278058   3.568   3.763  13.945 -0.0671  0.5214  0.2229
18856TIP3    H178059   3.564   3.680  13.897  2.1841  1.0021 -0.9677
18856TIP3    H278060   3.628   3.745  14.017 -0.5257  0.8013  0.6745
18857TIP3   OH278061   5.312   4.009   3.622 -0.4552 -0.3102 -0.0738
18857TIP3    H178062   5.235   4.053   3.586  0.0978  0.2323 -0.6513
18857TIP3    H278063   5.342   4.067   3.692  0.0970  0.0995 -0.6324
18858TIP3   OH278064   3.698   5.234   0.279 -0.0746 -0.1612 -0.6859
18858TIP3    H178065   3.666   5.321   0.255 -0.6673 -0.3616 -0.6406
18858TIP3    H278066   3.774   5.220   0.223  0.0382  0.3975 -0.6749
18859TIP3   OH278067   6.561   2.795  10.707 -0.2543 -0.1668 -0.1608
18859TIP3    H178068   6.585   2.770  10.617  0.0233  0.2133 -0.1972
18859TIP3    H278069   6.643   2.827  10.745 -0.7417  1.4226 -0.3753
18860TIP3   OH278070   3.319   0.502   0.744  0.0791 -0.2982  0.0548
18860TIP3    H178071   3.412   0.482   0.731 -0.0413 -0.9864  0.2375
18860TIP3    H278072   3.280   0.420   0.774 -0.7447 -0.2351 -0.7871
18861TIP3   OH278073   2.555   2.065   2.056  0.1671  0.3223 -0.1294
18861TIP3    H178074   2.488   2.128   2.028  0.1166  0.4050  0.1706
18861TIP3    H278075   2.626   2.120   2.090 -1.1036  0.2169  2.9979
18862TIP3   OH278076   1.116   5.652   4.223 -0.6332  0.7344 -0.0010
18862TIP3    H178077   1.195   5.706   4.228  1.2300 -1.8401  0.3887
18862TIP3    H278078   1.104   5.620   4.312 -1.1714 -0.1967 -0.4010
18863TIP3   OH278079   4.529   0.010   5.853  0.6455 -0.4960 -0.2288
18863TIP3    H178080   4.539  -0.053   5.925 -0.4177 -0.0006  0.3593
18863TIP3    H278081   4.614   0.007   5.808  0.1556 -3.4766 -1.1596
18864TIP3   OH278082   4.246   3.245   2.204 -0.4777  0.5499 -0.0519
18864TIP3    H178083   4.155   3.245   2.234  0.0664  3.8386  2.0394
18864TIP3    H278084   4.290   3.180   2.259 -1.4574 -0.9634 -0.9859
18865TIP3   OH278085   1.966   5.452  13.405  0.0351  0.0328  0.6366
18865TIP3    H178086   1.878   5.478  13.432 -0.9641 -0.0937 -2.2438
18865TIP3    H278087   2.022   5.484  13.476 -2.1963  0.8399  2.1792
18866TIP3   OH278088   5.961   5.385   4.716  0.1635 -0.2485  0.4536
18866TIP3    H178089   6.024   5.342   4.657 -0.1744  0.9831 -0.8851
18866TIP3    H278090   5.907   5.313   4.750  1.1647 -1.1317  0.2439
18867TIP3   OH278091   2.354   3.795  15.804  0.0105  0.1998  0.4361
18867TIP3    H178092   2.424   3.823  15.745 -1.1704  1.1571 -0.5577
18867TIP3    H278093   2.298   3.739  15.750 -0.5510  0.2887  0.9202
18868TIP3   OH278094   1.828   2.519  11.486  0.0787 -0.0756  0.1108
18868TIP3    H178095   1.851   2.588  11.549 -0.3418 -0.1531  0.3515
18868TIP3    H278096   1.749   2.479  11.522 -1.5055  1.3263 -1.5526
18869TIP3   OH278097   2.958   5.344   1.087  0.8128 -0.1756  0.2769
18869TIP3    H178098   2.863   5.335   1.095  1.0305 -1.8504  1.5312
18869TIP3    H278099   2.985   5.266   1.038  1.5210  0.5296 -0.4945
18870TIP3   OH278100   3.152   3.672  14.565  0.1053 -0.4390 -0.1902
18870TIP3    H178101   3.214   3.604  14.537 -0.1725 -0.1260 -1.6763
18870TIP3    H278102   3.078   3.662  14.505 -0.0840  0.9362 -0.2091
18871TIP3   OH278103   4.066   2.166  12.252 -0.4276 -0.1496 -0.2914
18871TIP3    H178104   4.020   2.183  12.334 -0.6125  0.1872 -0.4647
18871TIP3    H278105   4.147   2.122  12.279 -0.9111 -0.8787  0.0022
18872TIP3   OH278106   3.827   5.254   5.129 -0.1048  0.9497 -0.3739
18872TIP3    H178107   3.743   5.294   5.153  0.3344  1.7071 -0.0460
18872TIP3    H278108   3.813   5.223   5.040 -0.3508  2.2351 -0.8134
18873TIP3   OH278109   5.931   4.487   1.555 -0.0960  0.0159 -0.0309
18873TIP3    H178110   5.887   4.540   1.488 -2.2171 -1.5479  0.0201
18873TIP3    H278111   5.919   4.397   1.526  1.0963 -0.5936  1.2465
18874TIP3   OH278112   0.001   5.994   0.980 -0.2627  0.6057 -0.0976
18874TIP3    H178113   0.013   5.921   1.040  1.2069  1.4770  0.7347
18874TIP3    H278114  -0.077   5.972   0.930  0.9477 -2.2713 -0.9336
18875TIP3   OH278115   3.988   1.930   3.172  0.5200 -0.2308 -0.5187
18875TIP3    H178116   3.991   2.016   3.131 -0.9746  0.8663  1.4899
18875TIP3    H278117   3.955   1.872   3.104  0.4075  1.0182 -1.5683
18876TIP3   OH278118   6.549   1.852   3.387  0.0553  0.0181 -0.8152
18876TIP3    H178119   6.581   1.885   3.303 -0.9896 -0.2162 -1.3251
18876TIP3    H278120   6.620   1.799   3.422  0.7697  0.7106 -1.2080
18877TIP3   OH278121   2.492   1.725   5.433 -0.4032  0.4970  0.3838
18877TIP3    H178122   2.485   1.753   5.524 -0.3760  0.6338  0.3447
18877TIP3    H278123   2.483   1.806   5.382  0.8828  0.6152  0.3133
18878TIP3   OH278124   1.486   1.903   9.745 -0.3616  0.6845  0.7107
18878TIP3    H178125   1.578   1.911   9.770 -0.0821 -1.3797  0.5689
18878TIP3    H278126   1.438   1.901   9.829 -0.2485  1.4255  0.7952
18879TIP3   OH278127   1.432   5.403  10.915  0.0511  0.3705  0.1260
18879TIP3    H178128   1.403   5.401  10.824 -1.6856  0.9646  0.6178
18879TIP3    H278129   1.504   5.466  10.916 -1.8918  2.7700 -0.3759
18880TIP3   OH278130   5.296   3.765  10.544 -0.2163 -0.3463  0.2173
18880TIP3    H178131   5.258   3.790  10.628  2.1954 -1.2640  1.6747
18880TIP3    H278132   5.294   3.669  10.544  1.2122 -0.4055 -0.0232
18881TIP3   OH278133   6.161   1.393   5.203 -0.3928 -0.4440 -0.5881
18881TIP3    H178134   6.080   1.397   5.152 -0.3318 -0.5408 -0.6933
18881TIP3    H278135   6.229   1.419   5.141 -0.3959  0.0660 -0.3826
18882TIP3   OH278136   5.166   1.161   3.974  0.8458  0.3582 -0.3902
18882TIP3    H178137   5.152   1.207   4.057 -0.8822 -2.7378  1.2452
18882TIP3    H278138   5.078   1.140   3.943  1.5004 -1.6819 -1.0366
18883TIP3   OH278139   6.183   4.804   9.968  0.2987  0.1854 -0.0576
18883TIP3    H178140   6.223   4.735   9.915 -1.7234  0.9705 -2.8127
18883TIP3    H278141   6.250   4.871   9.976  0.6237  0.1035 -1.8344
18884TIP3   OH278142   3.067   1.157  14.106  0.4835 -0.0275 -0.2780
18884TIP3    H178143   3.031   1.069  14.105 -0.4387  0.3393 -0.4578
18884TIP3    H278144   3.115   1.165  14.024  0.2741 -0.2513 -0.4235
18885TIP3   OH278145   5.344   1.686  14.737 -0.1032 -0.3525 -0.1294
18885TIP3    H178146   5.355   1.595  14.710 -0.1794 -0.8506  1.4105
18885TIP3    H278147   5.389   1.737  14.670 -0.4237 -1.4893 -1.2470
18886TIP3   OH278148   2.640   0.206  10.194 -0.3606  0.0178  0.0441
18886TIP3    H178149   2.578   0.255  10.248 -0.5375 -0.4809  0.3024
18886TIP3    H278150   2.623   0.236  10.104 -1.1205 -0.2633  0.0868
18887TIP3   OH278151   3.032   4.766   1.170  0.5996  0.1124 -0.0681
18887TIP3    H178152   3.066   4.676   1.169 -0.8221 -0.4484 -0.0828
18887TIP3    H278153   3.030   4.791   1.078 -2.2544 -1.1897 -0.4988
18888TIP3   OH278154   1.894   6.498  11.330 -0.2822 -0.6607 -0.9174
18888TIP3    H178155   1.849   6.542  11.259 -1.8531 -0.3794  0.1973
18888TIP3    H278156   1.858   6.409  11.330 -0.3268 -0.6439 -0.4336
18889TIP3   OH278157   5.231   5.306  15.450 -0.0214 -0.1368  0.3164
18889TIP3    H178158   5.139   5.286  15.431 -0.4196  1.9119 -0.1719
18889TIP3    H278159   5.228   5.385  15.503  1.4622 -0.5003  0.9982
18890TIP3   OH278160   4.730   1.550  15.259  0.4485  0.1699 -0.0178
18890TIP3    H178161   4.818   1.516  15.244  1.0482  0.4558  2.3411
18890TIP3    H278162   4.745   1.640  15.291 -0.2853 -0.9264  4.0107
18891TIP3   OH278163   3.033   6.166   5.231  0.3575  0.3569  0.0838
18891TIP3    H178164   3.016   6.139   5.141  0.3761 -0.3418  0.2859
18891TIP3    H278165   3.060   6.258   5.224 -1.1324  0.7790 -0.4797
18892TIP3   OH278166   3.902   6.442   0.062  0.9985  0.3164 -0.0502
18892TIP3    H178167   3.872   6.370   0.117 -0.8093 -0.5751 -2.0824
18892TIP3    H278168   3.898   6.409  -0.027  2.5803  2.1397 -0.8820
18893TIP3   OH278169   6.282   3.055   0.228  0.3811 -0.0179  0.1056
18893TIP3    H178170   6.225   3.112   0.280  1.2664  0.9103  0.1005
18893TIP3    H278171   6.302   3.107   0.150  0.9272 -0.4832 -0.0703
18894TIP3   OH278172   2.621   2.792  15.872  0.3063 -0.6769 -0.2793
18894TIP3    H178173   2.553   2.736  15.835  1.2206 -2.2546  0.3434
18894TIP3    H278174   2.674   2.819  15.797 -0.8468  0.3919 -0.7399
18895TIP3   OH278175   6.365   5.485   3.454  0.2602  0.3397  0.2029
18895TIP3    H178176   6.402   5.487   3.543  0.2050 -1.6084  0.3242
18895TIP3    H278177   6.270   5.493   3.467  0.2946  0.6076  0.2814
18896TIP3   OH278178   0.957   6.240  14.114 -0.3176  0.4173  0.0661
18896TIP3    H178179   0.993   6.318  14.073  0.4275 -0.2889 -0.6566
18896TIP3    H278180   1.013   6.224  14.190  1.3921 -1.0381 -1.4023
18897TIP3   OH278181   2.736   5.139   1.297 -0.1464 -0.1871  0.4693
18897TIP3    H178182   2.759   5.073   1.232  1.3517 -0.6469  1.4278
18897TIP3    H278183   2.819   5.183   1.319 -0.9912  1.5886  0.3387
18898TIP3   OH278184   2.553   1.760  12.598 -0.0046 -0.0830 -0.4989
18898TIP3    H178185   2.472   1.806  12.577  0.5173  0.6163 -1.0019
18898TIP3    H278186   2.536   1.669  12.571 -0.1983  0.3047 -1.7428
18899TIP3   OH278187   2.159   1.429  11.290 -0.5646 -0.1172 -0.2718
18899TIP3    H178188   2.166   1.338  11.259 -0.8503 -0.8774  1.7662
18899TIP3    H278189   2.203   1.429  11.375 -2.2313  1.1858  0.6536
18900TIP3   OH278190   5.978   1.641   5.030 -0.2867  0.7916 -0.0526
18900TIP3    H178191   5.934   1.659   5.113 -1.3437  1.4633 -0.7280
18900TIP3    H278192   6.038   1.716   5.019 -1.9609  2.0603 -1.0548
18901TIP3   OH278193   2.407   4.653  12.428  1.0841 -0.0121  0.0684
18901TIP3    H178194   2.398   4.580  12.489  0.9276 -1.1340 -1.2368
18901TIP3    H278195   2.499   4.677  12.431  0.5095  2.3787  3.3645
18902TIP3   OH278196   2.788   3.384   0.702 -0.5420 -0.0183 -0.9017
18902TIP3    H178197   2.802   3.472   0.737 -1.0935  0.1493 -1.0918
18902TIP3    H278198   2.740   3.398   0.621  0.5109 -0.4193 -1.6106
18903TIP3   OH278199   3.121   2.230   5.404  0.5886 -0.5506  0.1403
18903TIP3    H178200   3.096   2.186   5.323 -0.0951  0.6770 -0.3352
18903TIP3    H278201   3.099   2.322   5.390  2.8130  0.1474  0.7435
18904TIP3   OH278202   1.923   3.958   4.411  0.0801 -0.0192  0.3016
18904TIP3    H178203   1.903   4.009   4.333  0.2407 -0.2257  0.1273
18904TIP3    H278204   1.909   3.867   4.386 -2.5220  0.0398  1.2742
18905TIP3   OH278205   0.797   5.387   2.535 -0.4033  0.5939 -0.3977
18905TIP3    H178206   0.811   5.296   2.561  2.5631  1.4172  1.3413
18905TIP3    H278207   0.858   5.401   2.462  0.0840  1.4941  0.1703
18906TIP3   OH278208   2.112   6.216  12.601 -0.0961 -0.5099  0.1267
18906TIP3    H178209   2.130   6.302  12.638  1.2930 -0.6377 -0.2083
18906TIP3    H278210   2.052   6.175  12.664 -1.4712  0.9900 -0.1431
18907TIP3   OH278211   1.135   2.635   2.248 -0.3386 -0.2945 -0.5781
18907TIP3    H178212   1.071   2.607   2.183 -2.4188 -0.4990  1.4179
18907TIP3    H278213   1.143   2.729   2.235 -0.0939 -0.4522 -1.6338
18908TIP3   OH278214   2.388   2.760   4.664 -0.0579  0.0230  0.5814
18908TIP3    H178215   2.312   2.727   4.713 -0.6034  0.4553  0.0479
18908TIP3    H278216   2.432   2.819   4.725 -0.1073 -0.2816  0.9176
18909TIP3   OH278217   2.264   1.611   3.431 -0.0736  1.2874  0.2447
18909TIP3    H178218   2.221   1.595   3.516 -0.8611 -0.5894 -0.4608
18909TIP3    H278219   2.353   1.580   3.443 -0.5905 -0.3761 -0.0182
18910TIP3   OH278220   1.343   1.060  13.765 -0.3698 -0.2263 -0.4872
18910TIP3    H178221   1.431   1.097  13.765 -0.3336 -0.3024  0.0573
18910TIP3    H278222   1.356   0.966  13.780 -0.6076 -0.0227  1.2646
18911TIP3   OH278223   3.444   4.785  16.062 -0.2558  0.0683  0.2892
18911TIP3    H178224   3.517   4.801  16.002 -1.9991  0.5461 -1.8189
18911TIP3    H278225   3.465   4.839  16.139  0.8805  1.3856 -0.8721
18912TIP3   OH278226   0.349   1.883   4.163  0.3158 -0.5337  0.0444
18912TIP3    H178227   0.327   1.889   4.071  0.5594 -1.2014 -0.0630
18912TIP3    H278228   0.341   1.790   4.184  2.7318 -0.8257  0.0510
18913TIP3   OH278229   1.759   6.627  15.507  0.0851 -0.0969  0.1747
18913TIP3    H178230   1.781   6.719  15.522  2.2365 -0.7216  1.1592
18913TIP3    H278231   1.670   6.619  15.542  0.2742  1.3811  1.1188
18914TIP3   OH278232   2.928   5.770   1.811  0.5649 -0.6522  0.2116
18914TIP3    H178233   2.974   5.852   1.831  2.0155 -1.8688  2.2179
18914TIP3    H278234   2.913   5.774   1.717  0.9235  1.7396  0.1831
18915TIP3   OH278235   6.562   5.725  15.331 -0.1399 -0.2532 -0.1271
18915TIP3    H178236   6.568   5.633  15.360 -2.8063 -1.4692 -2.9181
18915TIP3    H278237   6.495   5.724  15.263  0.3352  3.6945 -0.8478
18916TIP3   OH278238   0.457   5.472   1.137  0.0729 -0.1477 -0.6716
18916TIP3    H178239   0.377   5.522   1.118  0.8658  1.0715 -0.9577
18916TIP3    H278240   0.479   5.431   1.053 -0.8590 -1.4555 -0.3153
18917TIP3   OH278241   4.332   5.325   4.533 -0.6630 -0.1317  0.6086
18917TIP3    H178242   4.284   5.336   4.616 -0.3288 -0.3060  0.8269
18917TIP3    H278243   4.322   5.409   4.488 -1.8419 -0.4254  0.2951
18918TIP3   OH278244   1.379   5.008   3.824  0.3822  0.1789 -0.1422
18918TIP3    H178245   1.444   4.941   3.803  0.8069  0.4627  0.2495
18918TIP3    H278246   1.430   5.083   3.854 -0.0083  1.2050 -1.9154
18919TIP3   OH278247   4.836   2.488   5.823 -0.6135  0.4583  0.1571
18919TIP3    H178248   4.891   2.459   5.895 -0.5475  0.0289 -0.0634
18919TIP3    H278249   4.845   2.584   5.823 -1.0917  0.5132  1.0922
18920TIP3   OH278250   6.845   6.713  16.300  0.4873 -0.1373 -0.1137
18920TIP3    H178251   6.871   6.623  16.281 -1.1315 -0.5025 -0.7539
18920TIP3    H278252   6.757   6.721  16.264 -0.2818  1.0601  1.8688
18921TIP3   OH278253   5.401   3.721  12.216 -0.0368  0.8452 -0.2185
18921TIP3    H178254   5.365   3.805  12.187 -0.9711  1.0798  1.4871
18921TIP3    H278255   5.330   3.658  12.199  0.1935  0.6231 -0.3583
18922TIP3   OH278256   3.109   6.434  10.349  0.1638 -0.2711 -0.4949
18922TIP3    H178257   3.110   6.528  10.329 -0.2936 -0.5251 -1.8331
18922TIP3    H278258   3.169   6.395  10.286 -0.8212 -1.0448 -0.9924
18923TIP3   OH278259   3.090   5.487   0.906  0.3569  0.3495 -0.4206
18923TIP3    H178260   3.039   5.436   0.969  1.6435 -1.5239 -0.8127
18923TIP3    H278261   3.107   5.570   0.950 -1.9306  0.5619  0.1866
18924TIP3   OH278262   4.133   4.474  15.217  0.3007  0.3690  0.3215
18924TIP3    H178263   4.106   4.468  15.309 -3.8373 -1.1932 -0.7602
18924TIP3    H278264   4.086   4.551  15.184 -1.2663 -1.1415 -1.1818
18925TIP3   OH278265   6.282   5.650  11.517  0.5420  0.0104  0.2405
18925TIP3    H178266   6.239   5.691  11.593  0.1244 -3.1208  1.8740
18925TIP3    H278267   6.372   5.637  11.546  0.7522  0.0631 -0.3834
18926TIP3   OH278268   0.878   3.335  15.804 -0.4973  0.3914  0.0674
18926TIP3    H178269   0.973   3.334  15.817 -0.4277  2.0803 -0.2165
18926TIP3    H278270   0.843   3.367  15.887 -0.8410 -0.2639  0.1857
18927TIP3   OH278271   0.638   0.512  14.295 -0.1878  0.3111  0.7560
18927TIP3    H178272   0.543   0.508  14.308 -0.4337  1.4366 -0.4070
18927TIP3    H278273   0.672   0.551  14.376 -0.9267  1.4194  0.5605
18928TIP3   OH278274   3.312   3.469   5.432  0.0211 -0.0218  0.5731
18928TIP3    H178275   3.276   3.558   5.436 -0.3794 -0.0036 -2.0881
18928TIP3    H278276   3.237   3.412   5.448  0.0977  0.0624  1.3118
18929TIP3   OH278277   1.419   2.281  10.595  0.1618 -0.3260  0.2672
18929TIP3    H178278   1.470   2.203  10.573  0.8123  0.0912  0.2850
18929TIP3    H278279   1.467   2.322  10.667  0.5843  0.8283 -0.6303
18930TIP3   OH278280   0.401   3.089  12.059 -0.5878 -0.0096  0.6024
18930TIP3    H178281   0.430   3.173  12.094 -0.9583  0.2274  0.3518
18930TIP3    H278282   0.470   3.063  11.998  0.7066 -1.0493  2.3990
18931TIP3   OH278283   3.189   2.129   3.788  0.3148 -0.3381  0.1506
18931TIP3    H178284   3.143   2.061   3.739  1.1830  0.8171 -2.4496
18931TIP3    H278285   3.279   2.125   3.756  1.2721 -0.3459  2.6763
18932TIP3   OH278286   6.070   5.700   2.393  0.1692 -0.3354  0.8453
18932TIP3    H178287   6.120   5.718   2.313  2.1651  1.5169  2.3787
18932TIP3    H278288   6.050   5.607   2.389  1.3877 -0.5668 -1.1532
18933TIP3   OH278289   4.653   3.591  15.690  0.7047 -0.2595 -0.2449
18933TIP3    H178290   4.714   3.521  15.713 -0.1703 -0.9103  0.1493
18933TIP3    H278291   4.671   3.661  15.753  0.3361 -0.8641  0.5354
18934TIP3   OH278292   3.780   4.985  13.171  0.4773 -0.4014 -0.0130
18934TIP3    H178293   3.743   5.002  13.085 -0.5381  0.5686  0.5851
18934TIP3    H278294   3.729   4.911  13.205  0.6708 -0.5796 -0.1023
18935TIP3   OH278295   4.926   5.808  13.424  0.8663 -0.1257 -0.3216
18935TIP3    H178296   4.866   5.747  13.467 -1.2250  1.7392 -0.4009
18935TIP3    H278297   4.907   5.893  13.464  2.8966  0.7206 -0.9735
18936TIP3   OH278298   1.845   3.227  16.378  0.0996 -0.6293  0.6645
18936TIP3    H178299   1.911   3.293  16.400  0.8947 -1.0506 -0.3379
18936TIP3    H278300   1.762   3.267  16.400  0.5524  0.7561 -0.0209
18937TIP3   OH278301   6.010   6.355   2.913  0.0763  0.1396 -0.3106
18937TIP3    H178302   6.098   6.321   2.900 -0.2615 -0.7095 -0.4419
18937TIP3    H278303   6.017   6.449   2.894  0.8453 -0.0076 -0.7859
18938TIP3   OH278304   3.838   4.916  12.044 -0.0022 -0.5505  0.3792
18938TIP3    H178305   3.868   4.915  11.953  2.5555 -2.6418  1.1208
18938TIP3    H278306   3.813   4.825  12.062 -0.6495 -0.1328  1.7444
18939TIP3   OH278307   6.115   4.957   4.100  0.4112  0.4673 -0.7611
18939TIP3    H178308   6.183   4.977   4.036  0.1747  3.7130 -0.1653
18939TIP3    H278309   6.033   4.979   4.056  0.2077  2.1601  0.3696
18940TIP3   OH278310   2.399   6.256   3.800  0.2071  0.3838  0.6806
18940TIP3    H178311   2.360   6.296   3.878 -0.1129  0.0523  0.6946
18940TIP3    H278312   2.371   6.165   3.804 -1.5437  0.7842 -0.9054
18941TIP3   OH278313   0.548   0.222  10.901 -0.4002 -0.2392 -0.4967
18941TIP3    H178314   0.477   0.280  10.874  0.0005  0.1245 -0.7731
18941TIP3    H278315   0.577   0.180  10.819  0.4345  0.4383 -0.5595
18942TIP3   OH278316   5.354   3.927   3.317 -0.9667  0.6763  0.0984
18942TIP3    H178317   5.289   3.884   3.374 -0.3454 -2.7738 -1.4961
18942TIP3    H278318   5.381   3.858   3.256  1.0433  3.1733 -2.0849
18943TIP3   OH278319   2.815   6.775  13.779  0.1153  0.0357 -0.2876
18943TIP3    H178320   2.727   6.811  13.770 -0.2647 -0.4613  1.2575
18943TIP3    H278321   2.814   6.695  13.727 -1.0617 -1.1497  1.4764
18944TIP3   OH278322   0.232   4.327  13.361 -0.2198  0.6871  0.0158
18944TIP3    H178323   0.178   4.399  13.326  0.2386  1.6373  1.1865
18944TIP3    H278324   0.190   4.248  13.328 -2.0866  1.4091  0.5072
18945TIP3   OH278325   5.353   1.176   3.727 -0.5644  0.0671 -0.3145
18945TIP3    H178326   5.301   1.152   3.804  3.6284 -1.8274  2.2835
18945TIP3    H278327   5.350   1.272   3.725 -0.7183  0.1971  2.3759
18946TIP3   OH278328   6.334   2.296   1.331 -0.1282  0.2115 -0.3226
18946TIP3    H178329   6.282   2.362   1.286 -0.6832 -0.1768 -0.2575
18946TIP3    H278330   6.279   2.218   1.330  1.3610 -0.9195 -2.3647
18947TIP3   OH278331   2.831   0.442  13.103 -0.3560  0.1160  0.0624
18947TIP3    H178332   2.909   0.493  13.125  0.1926 -0.7972  0.2792
18947TIP3    H278333   2.864   0.353  13.086 -1.4423 -0.5090  1.0632
18948TIP3   OH278334   4.266   3.952   0.550 -0.2952 -0.2168 -0.1613
18948TIP3    H178335   4.330   3.884   0.572 -0.0419 -0.5996 -1.9187
18948TIP3    H278336   4.183   3.906   0.545 -1.0262  0.4612  3.2032
18949TIP3   OH278337   3.107   5.461  14.340 -0.6756  0.3954  0.6639
18949TIP3    H178338   3.114   5.382  14.286 -0.5453 -0.5787  2.0381
18949TIP3    H278339   3.013   5.473  14.352 -0.7766  1.4698 -0.9269
18950TIP3   OH278340   6.826   2.384  12.101 -0.5355 -0.3275 -0.4125
18950TIP3    H178341   6.786   2.352  12.182 -0.7504 -0.1318 -0.4438
18950TIP3    H278342   6.806   2.317  12.036 -0.1464 -0.6118 -0.2492
18951TIP3   OH278343   5.797   0.171  15.398  0.1468  0.1987  0.1127
18951TIP3    H178344   5.777   0.264  15.401 -0.0145  0.1565  0.3775
18951TIP3    H278345   5.813   0.153  15.306  0.0413  0.4596  0.0426
18952TIP3   OH278346   0.546   5.791  12.483 -0.4942 -0.3229 -0.2028
18952TIP3    H178347   0.561   5.805  12.390 -1.6350 -2.9593 -0.8535
18952TIP3    H278348   0.630   5.813  12.524  0.0969  0.6739 -1.8448
18953TIP3   OH278349   6.508   0.043   5.823 -0.2657  0.3447  0.0536
18953TIP3    H178350   6.523   0.135   5.802  0.9177 -0.2751 -2.1724
18953TIP3    H278351   6.520   0.037   5.917 -1.4070  2.6281  0.4162
18954TIP3   OH278352   1.152   1.525  11.486  0.2685 -0.1404 -0.0623
18954TIP3    H178353   1.225   1.484  11.533  0.1319 -0.0490  0.2291
18954TIP3    H278354   1.079   1.465  11.499  0.8221 -1.4216 -2.2355
18955TIP3   OH278355   6.434   1.248   1.220 -0.0035  0.0470  0.0144
18955TIP3    H178356   6.427   1.293   1.304 -0.4140 -0.9171  0.5151
18955TIP3    H278357   6.490   1.173   1.238 -0.6316 -0.5291 -0.4141
18956TIP3   OH278358   6.483   5.647   0.343 -0.1121  0.5254  0.6106
18956TIP3    H178359   6.451   5.560   0.364 -2.6730  0.8513 -1.4275
18956TIP3    H278360   6.578   5.642   0.357 -0.2579 -2.3687  1.1351
18957TIP3   OH278361   0.770   4.985   0.481 -0.1592  0.5334 -0.4506
18957TIP3    H178362   0.739   4.959   0.568  1.1166  1.9995  0.4970
18957TIP3    H278363   0.700   5.040   0.446  0.1713  1.6390  0.5514
18958TIP3   OH278364   5.964   2.949  14.524 -0.1506 -0.7954  0.6180
18958TIP3    H178365   6.025   2.974  14.594 -0.8041 -0.2019  0.9814
18958TIP3    H278366   5.963   2.854  14.525 -0.3844 -0.7842  1.6143
18959TIP3   OH278367   4.124   5.343  14.498  0.3492  0.1298  0.7110
18959TIP3    H178368   4.033   5.359  14.475 -0.0071  1.7251  3.0051
18959TIP3    H278369   4.134   5.377  14.586  2.8198 -1.3521  1.1097
18960TIP3   OH278370   1.758   0.190  13.976  0.1010 -0.6375 -0.0214
18960TIP3    H178371   1.741   0.284  13.969  1.2529 -0.4205 -0.1039
18960TIP3    H278372   1.784   0.176  14.067  2.1823 -0.4543 -0.5442
18961TIP3   OH278373   6.354   6.892   3.995 -0.1672 -0.0007  0.4381
18961TIP3    H178374   6.340   6.797   4.004 -0.9867 -0.0192 -0.8429
18961TIP3    H278375   6.400   6.901   3.912 -2.0189  0.8697 -0.5300
18962TIP3   OH278376   0.714   4.134   4.069 -0.2050 -0.0924 -1.0787
18962TIP3    H178377   0.619   4.125   4.056 -0.6154  2.1014 -0.1801
18962TIP3    H278378   0.725   4.132   4.165  0.7319 -0.7866 -1.1882
18963TIP3   OH278379   0.727   6.062  14.300 -0.6106  0.2245  0.4434
18963TIP3    H178380   0.675   6.075  14.221 -1.1798  0.2743  0.8212
18963TIP3    H278381   0.815   6.039  14.268 -1.1480 -1.0118 -0.1981
18964TIP3   OH278382   3.821   6.290  10.200 -0.5522  0.6787 -0.2839
18964TIP3    H178383   3.887   6.354  10.226 -0.2607  1.1780 -2.1163
18964TIP3    H278384   3.737   6.333  10.217 -0.3719  2.1888 -2.7610
18965TIP3   OH278385   0.625   6.786   4.571  0.1308  0.3615 -0.2085
18965TIP3    H178386   0.713   6.748   4.569  0.2892  0.4233  2.2922
18965TIP3    H278387   0.586   6.759   4.488  1.7637 -1.5051 -0.4665
18966TIP3   OH278388   4.730   3.529  12.616  0.4847  0.9004 -0.0389
18966TIP3    H178389   4.636   3.524  12.604  0.2872  1.8784  0.8871
18966TIP3    H278390   4.767   3.499  12.533 -0.6199 -0.0381 -0.2163
18967TIP3   OH278391   4.549   4.529   2.086  0.3227 -0.0055 -0.6462
18967TIP3    H178392   4.482   4.575   2.137  0.1811  0.0741 -0.8975
18967TIP3    H278393   4.631   4.546   2.133  0.2619  0.4407 -0.6899
18968TIP3   OH278394   3.469   5.112   3.269 -0.4606  0.3607 -0.4932
18968TIP3    H178395   3.379   5.132   3.296 -0.2679  0.0376  0.4500
18968TIP3    H278396   3.510   5.197   3.257 -0.9863  0.5111 -1.2826
18969TIP3   OH278397   2.203   1.909   0.118 -0.2873  0.0889  0.5867
18969TIP3    H178398   2.259   1.945   0.050 -0.1504 -3.0489 -1.1341
18969TIP3    H278399   2.127   1.967   0.119  1.0636  1.9460 -0.0575
18970TIP3   OH278400   5.725   0.754  12.534  0.1308 -0.2332 -0.1860
18970TIP3    H178401   5.722   0.739  12.439 -1.9406 -0.5778 -0.1123
18970TIP3    H278402   5.710   0.668  12.573  0.1853  0.0338  0.4428
18971TIP3   OH278403   1.205   4.509   5.223  0.1104 -0.4505  0.2404
18971TIP3    H178404   1.181   4.472   5.308 -1.7530 -0.7957 -0.3843
18971TIP3    H278405   1.187   4.603   5.231 -1.5105 -0.6866 -0.1795
18972TIP3   OH278406   4.387   5.686  15.051  0.1001  0.3786  0.4736
18972TIP3    H178407   4.445   5.678  15.126 -2.4136 -1.5512  2.3729
18972TIP3    H278408   4.331   5.761  15.072 -0.0269  0.3998  0.0679
18973TIP3   OH278409   2.848   1.118  12.884 -0.1131  0.5925 -0.2106
18973TIP3    H178410   2.756   1.105  12.906  0.1329 -0.1452  0.4243
18973TIP3    H278411   2.880   1.029  12.866  0.7725  0.6939  0.7952
18974TIP3   OH278412   3.459   5.285  14.994 -0.1835  0.6422 -1.0524
18974TIP3    H178413   3.470   5.377  14.972 -1.3927  1.0895  0.0431
18974TIP3    H278414   3.531   5.266  15.054 -0.2272  1.0192 -0.8789
18975TIP3   OH278415   4.057   6.748   2.680  0.5348  0.5710  0.3300
18975TIP3    H178416   3.999   6.818   2.709  0.6472  0.6202  0.4373
18975TIP3    H278417   3.998   6.679   2.649  0.4272  0.9532 -0.3497
18976TIP3   OH278418   0.182   0.263  15.945  0.0379 -0.1408 -0.1229
18976TIP3    H178419   0.264   0.310  15.958 -1.1875  1.7342  1.3039
18976TIP3    H278420   0.195   0.214  15.864  2.3902  0.4261 -0.1551
18977TIP3   OH278421   6.110   3.819   2.411 -0.0430 -0.3559 -0.3406
18977TIP3    H178422   6.039   3.835   2.473  0.1526 -0.6167 -0.0448
18977TIP3    H278423   6.185   3.867   2.448 -0.1334  0.1284 -0.7841
18978TIP3   OH278424   5.326   5.974  15.820 -0.1171 -0.4529  0.0765
18978TIP3    H178425   5.362   5.886  15.818  0.0607 -0.3850  0.2239
18978TIP3    H278426   5.383   6.026  15.764 -0.0890 -0.3842  0.1677
18979TIP3   OH278427   2.979   3.189   5.958 -0.4762 -0.2673 -0.8563
18979TIP3    H178428   2.952   3.149   5.875  0.4316 -2.0071 -0.3409
18979TIP3    H278429   2.938   3.134   6.025 -1.0237  0.9971 -0.1181
18980TIP3   OH278430   3.441   5.779  15.898  0.7280  0.9294 -0.3337
18980TIP3    H178431   3.394   5.861  15.916 -0.5496  0.2678 -0.4981
18980TIP3    H278432   3.462   5.744  15.984  3.6081  2.6410 -0.2179
18981TIP3   OH278433   4.173   2.172   3.968  0.3091 -0.2722 -0.0424
18981TIP3    H178434   4.170   2.251   3.914  0.7129  0.8094  1.4539
18981TIP3    H278435   4.255   2.129   3.945 -0.2457 -0.6552 -1.3731
18982TIP3   OH278436   2.747   3.696  16.065 -0.3257  0.5315  0.0871
18982TIP3    H178437   2.670   3.677  16.012 -1.1161  2.2489  0.5411
18982TIP3    H278438   2.796   3.614  16.068 -2.2759 -0.6761  0.0379
18983TIP3   OH278439   4.541   1.241   2.200  0.2227  0.2347  0.2131
18983TIP3    H178440   4.630   1.211   2.183  0.7715  1.3302  1.0578
18983TIP3    H278441   4.496   1.230   2.116  1.2724  0.1006 -0.3471
18984TIP3   OH278442   1.015   3.718  11.555 -0.0620  0.0684  0.2720
18984TIP3    H178443   1.025   3.772  11.634 -0.7318  1.0862 -0.3196
18984TIP3    H278444   1.076   3.645  11.568 -1.6811 -1.0005  2.7479
18985TIP3   OH278445   4.339   1.553  16.106 -0.2354 -0.2675 -0.2268
18985TIP3    H178446   4.400   1.479  16.103  0.1675 -0.0692  1.7521
18985TIP3    H278447   4.253   1.513  16.103 -0.0875 -0.5714 -2.7073
18986TIP3   OH278448   4.517   1.238   5.616 -0.0191  0.0016 -0.2048
18986TIP3    H178449   4.425   1.263   5.616  0.4578  2.4656  2.8742
18986TIP3    H278450   4.517   1.145   5.594 -3.0854  0.1925 -1.4797
18987TIP3   OH278451   6.419   0.110  15.440  0.4479  0.1368 -0.2559
18987TIP3    H178452   6.490   0.059  15.401 -0.9169 -0.5860 -1.8985
18987TIP3    H278453   6.431   0.199  15.406  1.4157  0.3963  0.6941
18988TIP3   OH278454   6.568   3.096  13.582  0.3264  0.1355 -0.4141
18988TIP3    H178455   6.489   3.041  13.584 -0.7827  1.6847 -0.1561
18988TIP3    H278456   6.586   3.115  13.674 -0.3176  1.5740 -0.5662
18989TIP3   OH278457   0.630   1.507   0.913 -0.1361 -0.3158  0.6403
18989TIP3    H178458   0.708   1.457   0.890  1.1764  1.3989  1.1790
18989TIP3    H278459   0.571   1.443   0.953  1.2909 -1.5042  0.9084
18990TIP3   OH278460   4.267   6.302   2.143 -0.0992 -0.3000  0.1552
18990TIP3    H178461   4.216   6.371   2.186 -0.0856  0.1508 -0.5309
18990TIP3    H278462   4.232   6.220   2.178 -0.2184  0.0481  0.8720
18991TIP3   OH278463   2.552   6.009   0.924 -0.4543  0.7466 -0.1256
18991TIP3    H178464   2.559   6.044   0.835  1.7197  2.6824  0.7317
18991TIP3    H278465   2.629   5.954   0.935 -0.6415  0.6121  0.6033
18992TIP3   OH278466   3.240   1.470  11.475  0.3744  0.3432  0.0767
18992TIP3    H178467   3.233   1.497  11.383  0.9090 -0.3256 -0.1701
18992TIP3    H278468   3.149   1.454  11.502  0.2357  0.2726 -0.4185
18993TIP3   OH278469   1.530   2.034  10.559 -0.2286 -0.7941  0.3567
18993TIP3    H178470   1.446   1.987  10.557 -0.8050 -0.0005  2.4019
18993TIP3    H278471   1.585   1.982  10.617 -0.2280  0.0207  1.1161
18994TIP3   OH278472   4.288   1.484   4.772 -0.3795  0.2980 -1.1778
18994TIP3    H178473   4.200   1.466   4.740 -0.3750  0.7108 -1.4373
18994TIP3    H278474   4.284   1.573   4.806 -0.9054 -0.7908  1.9202
18995TIP3   OH278475   2.283   2.668   5.132  0.0075  0.3797  0.1403
18995TIP3    H178476   2.338   2.660   5.054 -0.1324 -2.5357  0.2109
18995TIP3    H278477   2.340   2.709   5.197  0.9053  0.6926 -0.8129
18996TIP3   OH278478   2.406   6.641  15.355  0.3868 -0.1109  0.1221
18996TIP3    H178479   2.371   6.679  15.275  1.1380 -1.5336 -0.9277
18996TIP3    H278480   2.501   6.643  15.344  0.5402  0.3611  1.3225
18997TIP3   OH278481   5.916   5.408   0.324 -0.1588  0.2277 -0.0729
18997TIP3    H178482   5.929   5.317   0.298 -0.8744 -0.5262  1.9748
18997TIP3    H278483   5.821   5.416   0.335 -0.1038  1.2418 -0.2570
18998TIP3   OH278484   4.488   1.185  12.159 -0.1023  0.7642 -0.1185
18998TIP3    H178485   4.451   1.252  12.217 -0.2304  0.1704  0.4860
18998TIP3    H278486   4.543   1.235  12.098 -0.0541  1.4054  0.4372
18999TIP3   OH278487   5.471   2.435   1.596 -0.3444 -0.4123  0.6739
18999TIP3    H178488   5.432   2.509   1.549  1.9058 -0.9203 -2.2436
18999TIP3    H278489   5.538   2.475   1.652  1.3371 -0.1805 -1.3995
19000TIP3   OH278490   1.751   5.316   1.212 -0.1481 -0.0635  0.6545
19000TIP3    H178491   1.825   5.284   1.263 -1.2892 -1.6124  1.4316
19000TIP3    H278492   1.674   5.285   1.260 -1.2802  0.2266 -0.9036
19001TIP3   OH278493   4.671   6.562  12.202 -0.6034  0.1852 -0.5761
19001TIP3    H178494   4.724   6.483  12.195  1.6727  1.5067  0.2118
19001TIP3    H278495   4.647   6.584  12.112  1.1918  0.0978 -1.1160
19002TIP3   OH278496   0.244   6.262  10.248 -0.0736  0.1410  0.2968
19002TIP3    H178497   0.176   6.329  10.245  0.9505  1.3045  1.4527
19002TIP3    H278498   0.304   6.286  10.177 -0.3397 -0.2768 -0.0689
19003TIP3   OH278499   2.284   1.440  16.667 -0.0794  0.0686  0.3002
19003TIP3    H178500   2.326   1.419  16.750 -1.5620  0.7877  1.2683
19003TIP3    H278501   2.262   1.355  16.629  2.6456 -0.3731 -0.5316
19004TIP3   OH278502   1.219   6.246  12.903 -0.6244 -0.4539  0.6360
19004TIP3    H178503   1.245   6.165  12.946 -1.6739  0.4630  3.1872
19004TIP3    H278504   1.177   6.297  12.972  1.8905  3.1971 -0.2458
19005TIP3   OH278505   2.865   5.618   5.761  0.3926  0.6858  0.0288
19005TIP3    H178506   2.811   5.599   5.838 -0.9995  1.7699 -0.6299
19005TIP3    H278507   2.947   5.571   5.777 -0.4807 -0.4656  1.3884
19006TIP3   OH278508   4.836   6.109  12.590  0.3207  0.6202 -0.3569
19006TIP3    H178509   4.892   6.143  12.659 -1.4289  0.7780  1.0638
19006TIP3    H278510   4.765   6.064  12.636 -0.9708  0.8156 -2.0417
19007TIP3   OH278511   0.990   5.258  11.680  0.1073 -0.4119  0.6096
19007TIP3    H178512   0.921   5.193  11.667  2.3787 -3.2367  1.6636
19007TIP3    H278513   0.983   5.284  11.772  0.1367 -0.3147  0.5849
19008TIP3   OH278514   5.483   1.820  14.519  0.5042  0.2421 -0.0675
19008TIP3    H178515   5.546   1.791  14.454  2.1166  0.7262  1.1842
19008TIP3    H278516   5.425   1.880  14.472  0.5145 -0.7624 -1.4152
19009TIP3   OH278517   5.662   4.658  12.387  0.1800  0.0637  0.0800
19009TIP3    H178518   5.710   4.590  12.434  0.3435  0.4270  0.4426
19009TIP3    H278519   5.639   4.722  12.454 -0.0645  0.3155 -0.2417
19010TIP3   OH278520   4.291   6.719   3.196 -0.0350  0.7960  0.3152
19010TIP3    H178521   4.279   6.782   3.268  2.1390  0.0088  1.4280
19010TIP3    H278522   4.385   6.708   3.189 -0.3068 -1.1733 -0.9130
19011TIP3   OH278523   4.868   3.477  11.163  0.4613 -0.0415  0.0042
19011TIP3    H178524   4.940   3.519  11.117  0.8790  1.6297  2.0403
19011TIP3    H278525   4.852   3.532  11.239 -0.5617 -2.3157  1.5756
19012TIP3   OH278526   1.565   5.130   2.528 -0.0525  0.5308  0.2485
19012TIP3    H178527   1.520   5.071   2.468  0.8369  0.0639  0.0293
19012TIP3    H278528   1.641   5.161   2.479 -0.1192  1.2945  0.6194
19013TIP3   OH278529   3.417   2.569  12.817  0.5257 -0.2990 -0.3056
19013TIP3    H178530   3.337   2.605  12.779  0.6617 -0.8942 -1.2067
19013TIP3    H278531   3.386   2.510  12.886  0.1793 -0.4405 -0.5745
19014TIP3   OH278532   3.667   4.769  12.616  0.3929  0.2054  0.4116
19014TIP3    H178533   3.597   4.713  12.651  0.2082 -0.8869 -1.5521
19014TIP3    H278534   3.633   4.858  12.625 -1.1809 -0.2884 -0.2946
19015TIP3   OH278535   5.752   1.497   0.588  0.6414 -0.1470 -0.4067
19015TIP3    H178536   5.796   1.563   0.643 -0.1104 -1.1322  1.4659
19015TIP3    H278537   5.800   1.499   0.506  2.8176  0.3325  0.7998
19016TIP3   OH278538   6.168   0.020  14.131 -0.2770  0.0935 -0.6160
19016TIP3    H178539   6.202   0.080  14.064  0.3039 -0.6011 -0.9565
19016TIP3    H278540   6.164   0.073  14.211 -1.5510  1.1159 -1.3008
19017TIP3   OH278541   0.756   3.269  16.712 -0.2989  0.3630  0.1977
19017TIP3    H178542   0.741   3.295  16.621  0.2865  0.0131 -0.0037
19017TIP3    H278543   0.760   3.351  16.760  0.2228  0.5902 -0.2261
19018TIP3   OH278544   4.664   0.723  11.183 -0.2352 -0.3634 -0.1128
19018TIP3    H178545   4.601   0.714  11.256  1.1881 -1.2550  1.0547
19018TIP3    H278546   4.748   0.700  11.221  0.9695  1.5187 -1.4426
19019TIP3   OH278547   3.054   4.530  14.930  0.1594 -0.3288 -0.0442
19019TIP3    H178548   3.082   4.519  14.839  1.5935 -0.6571  0.4106
19019TIP3    H278549   2.964   4.497  14.931  0.0803 -0.2285 -1.3534
19020TIP3   OH278550   4.439   0.285  10.723 -0.0840 -0.0701 -0.2330
19020TIP3    H178551   4.382   0.266  10.649  0.6799  1.4022 -1.2436
19020TIP3    H278552   4.380   0.319  10.791 -0.8716 -2.0225  0.1041
19021TIP3   OH278553   0.717   4.851  12.528 -0.1072 -0.4839  0.2193
19021TIP3    H178554   0.740   4.822  12.616  1.1170 -0.6281 -0.1319
19021TIP3    H278555   0.797   4.839  12.477  0.6466  3.7354  0.0583
19022TIP3   OH278556   3.973   0.145  10.308 -0.4315  0.3156  0.0757
19022TIP3    H178557   4.024   0.215  10.269 -0.4984 -0.1924 -0.9653
19022TIP3    H278558   3.961   0.082  10.237 -2.2057  0.2582  0.3829
19023TIP3   OH278559   0.233   3.473   3.808  0.6045 -0.0883  0.6320
19023TIP3    H178560   0.233   3.460   3.713 -2.1231 -1.0535  0.6831
19023TIP3    H278561   0.241   3.385   3.844  0.8103  0.2020  1.3137
19024TIP3   OH278562   1.178   0.118  11.637 -0.0596  0.2897  0.4577
19024TIP3    H178563   1.228   0.186  11.592  1.7979 -0.5394  1.1309
19024TIP3    H278564   1.168   0.049  11.572 -0.2152  0.4077  0.3567
19025TIP3   OH278565   5.149   0.646   2.795  0.3421 -0.1837 -0.4377
19025TIP3    H178566   5.091   0.571   2.810 -0.5689  0.8327  1.6563
19025TIP3    H278567   5.093   0.711   2.752  0.9049 -0.3977 -1.5167
19026TIP3   OH278568   3.406   5.516  13.415  0.3263 -0.0494 -0.0091
19026TIP3    H178569   3.492   5.486  13.444  1.9502  2.2446 -1.9672
19026TIP3    H278570   3.397   5.478  13.327 -1.1108 -1.0017  0.5315
19027TIP3   OH278571   4.327   1.888   3.073  0.0205 -0.1960  0.2893
19027TIP3    H178572   4.408   1.857   3.114  0.9879 -0.9396 -1.9967
19027TIP3    H278573   4.267   1.813   3.080 -1.0497  0.7940  3.1659
19028TIP3   OH278574   5.318   4.562  14.453 -0.2112  1.0143 -0.1852
19028TIP3    H178575   5.310   4.467  14.452 -1.0182  1.0705 -0.2885
19028TIP3    H278576   5.349   4.585  14.365 -1.1798  0.9203 -0.5656
19029TIP3   OH278577   2.417   0.131   0.125  0.3810  0.0255  0.2660
19029TIP3    H178578   2.322   0.131   0.135  0.2715  4.7234  1.1067
19029TIP3    H278579   2.432   0.109   0.033 -1.6398  0.8702 -0.3109
19030TIP3   OH278580   3.253   0.247  16.001 -0.2392 -0.6780  0.6044
19030TIP3    H178581   3.334   0.253  16.052  1.5934 -1.9017 -1.9468
19030TIP3    H278582   3.229   0.154  16.006  0.5806 -1.0583 -1.4820
19031TIP3   OH278583   5.460   5.076  13.147 -0.5144 -0.2734  0.0220
19031TIP3    H178584   5.492   5.082  13.237  0.3673  0.3388 -0.3173
19031TIP3    H278585   5.539   5.065  13.094 -0.9009  0.6129 -0.7814
19032TIP3   OH278586   0.349   5.637   2.843  0.2530 -0.3258  0.1917
19032TIP3    H178587   0.338   5.560   2.788 -1.3708  0.7442 -1.0958
19032TIP3    H278588   0.279   5.697   2.815 -1.2408 -0.0066  3.9652
19033TIP3   OH278589   0.893   0.365  14.775 -0.2855 -0.3045 -0.2997
19033TIP3    H178590   0.898   0.378  14.870  0.0193 -3.2131  0.1639
19033TIP3    H278591   0.801   0.344  14.759  0.0994 -2.3485 -0.1731
19034TIP3   OH278592   2.265   0.513  16.457  0.3155 -0.5460 -0.2339
19034TIP3    H178593   2.192   0.526  16.517  0.5842 -1.4322  0.3087
19034TIP3    H278594   2.320   0.590  16.469 -1.5559  1.2263 -2.2174
19035TIP3   OH278595   2.887   4.327  16.731  0.1913 -0.0157 -0.4146
19035TIP3    H178596   2.934   4.244  16.722  1.4609  0.7304 -1.0368
19035TIP3    H278597   2.797   4.302  16.750  0.2972 -1.5686 -1.7466
19036TIP3   OH278598   2.985   4.733   4.537  0.1694 -0.1491  0.4706
19036TIP3    H178599   2.923   4.787   4.585  0.5941  0.2220  0.6156
19036TIP3    H278600   2.995   4.775   4.452 -1.7928 -1.6811 -0.5993
19037TIP3   OH278601   5.417   5.134   5.370  0.1496  0.4663  0.1262
19037TIP3    H178602   5.356   5.078   5.322 -0.6476  2.0526 -0.8169
19037TIP3    H278603   5.427   5.211   5.314  0.2022  1.8316  1.9362
19038TIP3   OH278604   2.356   4.907   3.249 -0.1454 -0.4963  0.3943
19038TIP3    H178605   2.366   4.813   3.260 -0.7565 -0.5527  0.4757
19038TIP3    H278606   2.274   4.918   3.201  0.3840 -0.0496 -0.4368
19039TIP3   OH278607   6.596   3.715  13.250 -0.3697 -0.3066 -0.2412
19039TIP3    H178608   6.589   3.688  13.158 -0.6126  0.2229 -0.3859
19039TIP3    H278609   6.588   3.635  13.300  1.9194 -0.9340 -0.7499
19040TIP3   OH278610   5.527   5.488  15.200  0.6359  0.4134 -0.1828
19040TIP3    H178611   5.433   5.505  15.202  0.5520  0.8711 -3.0140
19040TIP3    H278612   5.539   5.411  15.256 -1.6750 -0.5432 -0.8805
19041TIP3   OH278613   1.155   6.392  11.735  0.2769  0.1241 -0.3368
19041TIP3    H178614   1.224   6.420  11.795 -1.3109  1.5094  0.9038
19041TIP3    H278615   1.103   6.471  11.719 -0.8976 -0.8307 -1.4219
19042TIP3   OH278616   2.354   5.593  13.332 -0.0713 -0.1906  0.1011
19042TIP3    H178617   2.357   5.591  13.428 -0.0816  1.6471  0.1697
19042TIP3    H278618   2.432   5.642  13.307 -0.4909  0.0495 -0.7809
19043TIP3   OH278619   1.154   3.745  15.996 -0.0127  0.5132  0.2255
19043TIP3    H178620   1.087   3.747  15.927 -0.8843  0.2860  1.0460
19043TIP3    H278621   1.217   3.811  15.969 -0.0527  0.0620 -1.0736
19044TIP3   OH278622   2.003   3.466  11.096  0.2675  0.6386  0.5326
19044TIP3    H178623   1.910   3.442  11.090  0.0000  1.8238 -0.5850
19044TIP3    H278624   2.020   3.470  11.190 -0.9562  0.8849  0.7678
19045TIP3   OH278625   5.842   5.956  15.337 -0.1044  0.5036 -0.2213
19045TIP3    H178626   5.889   5.928  15.259  0.3790  2.1372 -0.5517
19045TIP3    H278627   5.757   5.914  15.330 -0.9293  2.3710 -2.8490
19046TIP3   OH278628   6.824   5.334  12.842  0.0970 -0.4081 -0.1161
19046TIP3    H178629   6.850   5.372  12.926 -0.4313 -0.8525  0.2588
19046TIP3    H278630   6.808   5.409  12.785  1.0973 -0.1119 -0.0253
19047TIP3   OH278631   2.965   5.417  15.158  0.3787 -0.1121 -0.1444
19047TIP3    H178632   2.953   5.476  15.232 -1.0775  0.0134 -0.4503
19047TIP3    H278633   3.040   5.363  15.182 -1.2866 -1.4957  2.4073
19048TIP3   OH278634   4.050   3.643   3.079  0.6546 -0.3415 -0.2373
19048TIP3    H178635   4.080   3.655   2.989 -2.2048 -3.4062 -1.8004
19048TIP3    H278636   4.064   3.550   3.097  0.9008  0.1237  2.4794
19049TIP3   OH278637   4.422   0.409   1.797 -0.5178 -0.1091 -0.3682
19049TIP3    H178638   4.485   0.415   1.868 -0.6415 -0.0500 -0.2628
19049TIP3    H278639   4.403   0.315   1.790 -1.7638  0.0189  0.7974
19050TIP3   OH278640   0.053   5.460   2.859  0.1776 -0.6758 -0.3029
19050TIP3    H178641   0.039   5.374   2.898 -0.1655 -0.0303  1.0819
19050TIP3    H278642   0.104   5.443   2.780  1.4790 -2.0066  0.7656
19051TIP3   OH278643   0.857   4.226   3.347  0.5927 -0.1603  0.2977
19051TIP3    H178644   0.922   4.171   3.391 -0.1740 -2.5864 -1.4016
19051TIP3    H278645   0.847   4.187   3.260 -1.8090  1.2014 -0.1325
19052TIP3   OH278646   5.565   3.437  11.742 -0.8745 -0.0511  0.6115
19052TIP3    H178647   5.579   3.501  11.673 -1.2533  1.4668  1.8922
19052TIP3    H278648   5.581   3.485  11.824 -2.2703 -1.2741  1.6551
19053TIP3   OH278649   5.576   1.093  11.996 -0.3758 -0.6597  0.2074
19053TIP3    H178650   5.625   1.095  12.078  0.5154 -1.7437 -0.2553
19053TIP3    H278651   5.614   1.019  11.948  0.5721  1.1904 -2.0630
19054TIP3   OH278652   4.590   2.649  11.239  0.1210  0.2594 -0.2081
19054TIP3    H178653   4.662   2.640  11.178  2.6840  2.3665  2.2556
19054TIP3    H278654   4.531   2.577  11.217  2.6786 -1.2822 -2.6795
19055TIP3   OH278655   1.927   6.010   4.098 -0.3047 -0.1814 -0.1863
19055TIP3    H178656   1.944   5.942   4.163 -0.7973 -0.0978  0.0354
19055TIP3    H278657   2.014   6.037   4.067 -0.1177 -1.0667 -0.4459
19056TIP3   OH278658   6.333   0.026  16.820 -0.1493  0.5002  0.4661
19056TIP3    H178659   6.239   0.011  16.809  0.2288 -0.9024 -1.5315
19056TIP3    H278660   6.355  -0.017  16.902 -1.1975  0.4814  0.7519
19057TIP3   OH278661   2.753   6.199   5.257 -0.2768  0.1733  0.0422
19057TIP3    H178662   2.737   6.155   5.173 -0.8615 -0.6952  0.6063
19057TIP3    H278663   2.848   6.195   5.268 -0.2910 -0.6049 -0.0969
19058TIP3   OH278664   5.932   4.267  16.534 -0.0602 -0.2143 -0.7365
19058TIP3    H178665   5.886   4.254  16.618 -3.1989  0.4290 -2.1896
19058TIP3    H278666   5.904   4.193  16.480 -0.8056  1.1008 -2.2334
19059TIP3   OH278667   3.827   0.976   0.893 -1.0351 -0.7022 -0.2043
19059TIP3    H178668   3.754   0.933   0.849 -1.7737  0.5261 -0.2302
19059TIP3    H278669   3.808   0.966   0.986 -2.0457  0.8625 -0.2022
19060TIP3   OH278670   5.162   3.320  11.502  0.0479  0.3104  0.3055
19060TIP3    H178671   5.093   3.284  11.445  3.1687 -0.7427 -3.2216
19060TIP3    H278672   5.152   3.274  11.585 -3.1255 -0.1107 -0.1775
19061TIP3   OH278673   0.598   3.461  11.822 -0.0551  0.4287  0.1786
19061TIP3    H178674   0.516   3.483  11.777 -2.3683 -2.1659  2.7123
19061TIP3    H278675   0.589   3.502  11.908  1.7703  0.7864  0.2389
19062TIP3   OH278676   6.073   4.703  12.675 -0.2791 -0.7267  0.2192
19062TIP3    H178677   6.064   4.782  12.622  1.8321 -1.4691 -1.4085
19062TIP3    H278678   6.055   4.732  12.765 -1.1467  1.2100 -0.5250
19063TIP3   OH278679   2.968   0.319  15.763 -0.1064 -0.6616 -0.2631
19063TIP3    H178680   2.995   0.229  15.782  1.4420 -0.6372 -2.0620
19063TIP3    H278681   3.040   0.373  15.798 -0.9657 -0.0983  0.6915
19064TIP3   OH278682   1.941   6.425  16.881 -0.0811 -0.2290  0.2012
19064TIP3    H178683   2.028   6.388  16.897 -0.4008 -0.7514  0.7778
19064TIP3    H278684   1.913   6.457  16.967 -0.8475 -0.9145  0.2184
19065TIP3   OH278685   0.994   3.591   2.618 -0.3885  0.0561 -0.1256
19065TIP3    H178686   1.038   3.672   2.592 -2.9746  1.2096 -1.3480
19065TIP3    H278687   0.997   3.536   2.540  0.1115 -0.4664  0.2515
19066TIP3   OH278688   1.397   5.067   0.408  0.2976  0.3107  0.6676
19066TIP3    H178689   1.482   5.098   0.376  0.0155  0.9119  0.4903
19066TIP3    H278690   1.416   5.026   0.492  0.6079  1.4328  1.1615
19067TIP3   OH278691   1.931   1.124   0.791  0.1547 -0.0709  0.3525
19067TIP3    H178692   1.883   1.146   0.711  1.0856  1.4735  0.1631
19067TIP3    H278693   1.921   1.202   0.846  1.2679 -0.2744  0.8644
19068TIP3   OH278694   6.094   4.108   5.659 -0.4448  0.3497  0.1844
19068TIP3    H178695   6.102   4.202   5.678  1.4948  0.4611 -0.8826
19068TIP3    H278696   6.032   4.104   5.586  0.6548  1.0103 -0.8349
19069TIP3   OH278697   6.397   1.631  13.296 -0.0881 -0.4149  0.6528
19069TIP3    H178698   6.357   1.716  13.281  0.7618 -0.3201 -1.3851
19069TIP3    H278699   6.479   1.633  13.246  1.4087 -1.4011  2.9046
19070TIP3   OH278700   2.304   1.786  11.253 -0.2405  0.1004 -0.2853
19070TIP3    H178701   2.331   1.734  11.177 -1.2200 -0.1541 -0.4647
19070TIP3    H278702   2.320   1.876  11.227  0.3039 -0.0380 -0.4415
19071TIP3   OH278703   1.304   2.065  11.425  0.2598 -0.5375  0.2596
19071TIP3    H178704   1.222   2.047  11.472  0.3674 -0.7675  0.3615
19071TIP3    H278705   1.276   2.093  11.338  0.0386  0.3977  0.6186
19072TIP3   OH278706   6.295   2.226  16.345  0.2828  0.3436 -0.4953
19072TIP3    H178707   6.213   2.263  16.378  0.0990 -0.2051 -0.3378
19072TIP3    H278708   6.331   2.178  16.420  0.2836 -0.1950 -0.8421
19073TIP3   OH278709   5.043   6.874  16.745  0.3953 -0.2696  0.5582
19073TIP3    H178710   5.136   6.853  16.750  0.9287  0.5728 -2.9488
19073TIP3    H278711   5.009   6.813  16.679 -0.9711  0.9936  0.0543
19074TIP3   OH278712   6.614   1.644  13.078  0.5294  0.0077  0.4073
19074TIP3    H178713   6.582   1.682  12.996 -0.8347  0.6408  1.1905
19074TIP3    H278714   6.684   1.585  13.052  0.6052  0.7350 -1.1418
19075TIP3   OH278715   0.042   1.813   5.354 -0.3859 -0.0769  0.0043
19075TIP3    H178716  -0.050   1.839   5.353 -0.2290  0.5231  0.7889
19075TIP3    H278717   0.088   1.884   5.309 -0.1982  0.0698  0.4204
19076TIP3   OH278718   0.748   6.488   0.553  0.0192 -0.4428 -0.2819
19076TIP3    H178719   0.692   6.556   0.516  2.1229  1.4513 -0.2358
19076TIP3    H278720   0.784   6.442   0.477 -0.3732 -0.5984 -0.3708
19077TIP3   OH278721   1.739   6.000   5.231 -0.2310 -0.3312 -0.0476
19077TIP3    H178722   1.815   6.005   5.173 -0.3987 -0.6009 -0.2889
19077TIP3    H278723   1.756   5.925   5.288 -0.8663 -1.1304 -0.8874
19078TIP3   OH278724   5.720   2.005  11.864 -0.3386 -0.2204  0.1966
19078TIP3    H178725   5.682   1.918  11.860 -2.9436  0.8598 -0.9440
19078TIP3    H278726   5.656   2.061  11.820  1.3088  2.2508  0.7449
19079TIP3   OH278727   6.895   5.743  11.676  0.1292  0.4438  0.0449
19079TIP3    H178728   6.834   5.682  11.636 -0.0792  0.0686  0.9329
19079TIP3    H278729   6.840   5.812  11.712 -0.0137 -0.9950  2.8229
19080TIP3   OH278730   4.032   6.132   2.821  0.6425 -0.2158  0.1183
19080TIP3    H178731   4.033   6.227   2.810 -0.6249 -0.3413 -1.5309
19080TIP3    H278732   4.066   6.098   2.738  0.4455 -1.2057  0.4377
19081TIP3   OH278733   0.259   4.625  11.276  0.0180 -0.1579  0.0238
19081TIP3    H178734   0.199   4.619  11.201  0.5821 -1.7651 -0.3283
19081TIP3    H278735   0.244   4.544  11.325  2.2914 -0.8969 -0.3934
19082TIP3   OH278736   0.956   4.132  11.599 -0.2097 -0.8007 -0.3971
19082TIP3    H178737   0.997   4.057  11.642  1.1427  0.5046  0.7237
19082TIP3    H278738   0.999   4.208  11.638 -0.2385  0.5378 -2.7773
19083TIP3   OH278739   6.493   2.957   2.489 -0.7180  0.4044  0.3638
19083TIP3    H178740   6.430   2.920   2.551 -1.1144  2.0383  0.9945
19083TIP3    H278741   6.459   3.045   2.469  0.2538  0.5184 -0.9355
19084TIP3   OH278742   2.237   2.132  14.170  0.1448  0.2267  0.3864
19084TIP3    H178743   2.153   2.112  14.211 -0.8984  0.3092 -1.5737
19084TIP3    H278744   2.232   2.225  14.149  0.3438  0.0480 -0.5033
19085TIP3   OH278745   5.990   5.375   1.556  0.0312  0.2115  0.0353
19085TIP3    H178746   6.068   5.413   1.596 -0.1688 -1.2349  1.9625
19085TIP3    H278747   5.949   5.325   1.627 -0.7090 -2.0149 -1.8377
19086TIP3   OH278748   4.132   2.466   1.098 -0.3023  0.0079 -0.1746
19086TIP3    H178749   4.057   2.525   1.093 -0.4602 -0.1795 -0.0247
19086TIP3    H278750   4.148   2.441   1.007 -0.1147  0.4281 -0.2623
19087TIP3   OH278751   3.063   1.578   3.802 -0.1094  0.5276 -0.5416
19087TIP3    H178752   2.970   1.564   3.820 -0.6119  3.4600 -0.3487
19087TIP3    H278753   3.071   1.568   3.707 -0.8222  1.0960 -0.6709
19088TIP3   OH278754   0.696   2.222  16.500  0.1584 -0.1282 -0.0409
19088TIP3    H178755   0.713   2.218  16.406  1.2692  1.6654  0.0370
19088TIP3    H278756   0.752   2.154  16.538  0.1821 -0.4353 -0.6258
19089TIP3   OH278757   5.173   6.657   2.197  0.1525 -0.3637  0.2863
19089TIP3    H178758   5.185   6.680   2.289  0.5900  0.1013  0.1229
19089TIP3    H278759   5.251   6.693   2.153 -0.4589  0.1878 -0.3890
19090TIP3   OH278760   3.576   5.381   5.934 -0.2779  0.1703  0.4022
19090TIP3    H178761   3.524   5.390   5.854  1.0106  0.3811 -0.4321
19090TIP3    H278762   3.650   5.326   5.909  0.2892  0.4561  1.3837
19091TIP3   OH278763   1.243   6.084  11.328  0.3234  0.3988  0.1981
19091TIP3    H178764   1.202   6.121  11.406 -3.1833  0.2988 -1.3958
19091TIP3    H278765   1.299   6.154  11.295  1.1769  0.7568  2.2581
19092TIP3   OH278766   3.612   3.941  12.551  0.0940 -0.4956  0.0476
19092TIP3    H178767   3.543   3.948  12.617 -0.7287  0.7938 -0.9162
19092TIP3    H278768   3.577   3.878  12.487 -0.0490 -0.1050 -0.2621
19093TIP3   OH278769   0.324   1.806   5.899  0.0371 -0.3718  0.8711
19093TIP3    H178770   0.238   1.809   5.940 -0.2922 -1.3194  0.2561
19093TIP3    H278771   0.353   1.898   5.900 -0.9259 -0.0534  1.1557
19094TIP3   OH278772   5.015   6.099   2.845 -0.1565  0.1610 -0.1113
19094TIP3    H178773   4.952   6.145   2.901 -0.0454  0.2712 -0.0757
19094TIP3    H278774   5.026   6.158   2.770 -0.2056  0.0746 -0.1856
19095TIP3   OH278775   6.551   5.226   3.294 -0.0779  0.2547  0.1707
19095TIP3    H178776   6.508   5.305   3.327  0.2119 -0.1902  1.7276
19095TIP3    H278777   6.638   5.255   3.266 -0.0466  0.5373  0.5488
19096TIP3   OH278778   4.329   6.296  11.279  0.2973 -0.2781 -0.6976
19096TIP3    H178779   4.321   6.215  11.329 -2.7834  0.7258  0.6902
19096TIP3    H278780   4.320   6.365  11.344  0.0948  1.1446 -2.1827
19097TIP3   OH278781   5.881   6.116  14.971 -0.5093 -0.4348  0.1247
19097TIP3    H178782   5.864   6.168  15.049  1.0065  1.7505 -0.9042
19097TIP3    H278783   5.973   6.090  14.979  0.7383  2.5739 -2.2810
19098TIP3   OH278784   5.927   3.315  11.507 -0.0240  0.1570 -0.2172
19098TIP3    H178785   5.977   3.303  11.426  2.6716  1.7372  1.0673
19098TIP3    H278786   5.929   3.409  11.523 -1.0079 -0.0545  1.3932
19099TIP3   OH278787   4.204   6.286  13.723  0.0847 -0.7015  0.0473
19099TIP3    H178788   4.226   6.363  13.775  0.1562  1.0610 -2.4135
19099TIP3    H278789   4.109   6.280  13.728 -0.0005  0.1171 -0.4734
19100TIP3   OH278790   5.537   5.546  13.735 -0.6535  0.5533  0.4729
19100TIP3    H178791   5.521   5.494  13.656 -1.5496  2.6799 -0.8347
19100TIP3    H278792   5.486   5.502  13.803 -0.0612 -1.1873 -0.1376
19101TIP3   OH278793   6.670   0.587  14.823  0.6314 -0.3249  0.1315
19101TIP3    H178794   6.604   0.564  14.757 -1.3079  1.9307  1.1051
19101TIP3    H278795   6.621   0.589  14.905  2.5586 -1.1558  1.3403
19102TIP3   OH278796   0.133   3.697  14.265 -0.2105 -0.2881 -0.1757
19102TIP3    H178797   0.081   3.773  14.239 -0.0969 -0.4636 -0.9327
19102TIP3    H278798   0.123   3.693  14.360  1.3139  1.7829  0.1431
19103TIP3   OH278799   4.292   6.500   3.503  0.1486 -0.3301 -0.7377
19103TIP3    H178800   4.303   6.536   3.414 -1.6051 -1.1023 -1.3003
19103TIP3    H278801   4.381   6.478   3.530  0.6702 -0.6744 -2.5656
19104TIP3   OH278802   5.099   4.417  12.519 -0.5333  0.1383  0.4246
19104TIP3    H178803   5.171   4.416  12.456 -0.2467  1.7540  0.7020
19104TIP3    H278804   5.119   4.489  12.579 -1.9789  0.1193  0.9777
19105TIP3   OH278805   4.673   5.541  15.453 -1.2014 -0.1711 -0.2548
19105TIP3    H178806   4.662   5.446  15.458  1.1329 -0.4798 -0.1785
19105TIP3    H278807   4.764   5.554  15.427 -1.6825  2.0517 -1.0602
19106TIP3   OH278808   0.272   5.789   4.612  0.5267  0.0046 -0.4168
19106TIP3    H178809   0.287   5.882   4.596 -1.4090 -0.0095 -3.0033
19106TIP3    H278810   0.203   5.788   4.678  1.5359  0.3327  0.6749
19107TIP3   OH278811   4.394   5.196   0.417 -0.1949  0.0967 -0.0026
19107TIP3    H178812   4.336   5.272   0.418  1.1688  1.1928  0.6055
19107TIP3    H278813   4.477   5.230   0.384  0.7449 -0.8763  1.2570
19108TIP3   OH278814   2.708   5.006   5.403 -0.4107 -0.4407  0.4924
19108TIP3    H178815   2.619   5.041   5.404 -0.5525 -0.3747 -2.6834
19108TIP3    H278816   2.713   4.956   5.321  3.5394  2.6632 -1.5254
19109TIP3   OH278817   4.979   3.797   2.941  0.4340 -0.2296  0.0177
19109TIP3    H178818   4.905   3.856   2.931  1.1539  0.6747 -0.1400
19109TIP3    H278819   5.050   3.840   2.893  1.3715 -0.4875  1.1326
19110TIP3   OH278820   1.092   0.473   4.904  1.0069  0.0748  0.0568
19110TIP3    H178821   1.111   0.535   4.833 -1.6804 -0.2693 -1.0624
19110TIP3    H278822   1.037   0.523   4.965  1.0851 -0.4308  0.5445
19111TIP3   OH278823   4.601   6.108  15.440  0.3800  0.5818  0.6095
19111TIP3    H178824   4.672   6.161  15.405  0.4283 -0.3598 -0.8083
19111TIP3    H278825   4.525   6.130  15.385  0.8098 -1.9860 -1.1799
19112TIP3   OH278826   6.840   5.160   2.945  0.6659  0.1163 -0.0728
19112TIP3    H178827   6.883   5.077   2.966 -1.2616 -1.2674 -1.2139
19112TIP3    H278828   6.820   5.153   2.851 -0.2984  1.5097  0.0029
19113TIP3   OH278829   3.391   1.019   2.310 -0.2812  0.0901  0.7960
19113TIP3    H178830   3.454   1.006   2.239  2.0043  2.0025  2.3228
19113TIP3    H278831   3.367   1.111   2.304 -3.0810 -0.6043  0.2389
19114TIP3   OH278832   2.171   0.345  15.229  0.2029 -0.3765 -0.0635
19114TIP3    H178833   2.145   0.434  15.203 -3.1574 -1.1242  0.3150
19114TIP3    H278834   2.197   0.303  15.147 -2.3190 -0.2496 -1.0127
19115TIP3   OH278835   5.952   4.114   2.429 -0.3960 -0.0416  0.0951
19115TIP3    H178836   5.964   4.052   2.501  3.4940 -0.8400 -1.0307
19115TIP3    H278837   5.933   4.198   2.473 -0.3566 -0.9339  1.9057
19116TIP3   OH278838   4.360   4.819  12.739  0.1451  0.0483  0.6490
19116TIP3    H178839   4.420   4.755  12.778  1.3292  0.8116  0.1479
19116TIP3    H278840   4.415   4.867  12.677 -0.4923  2.1474  1.6565
19117TIP3   OH278841   3.942   4.094  15.787 -0.1265  0.1969  0.4475
19117TIP3    H178842   3.943   4.188  15.806  0.7165  0.3307 -0.2010
19117TIP3    H278843   4.000   4.085  15.711 -1.2099 -0.6726 -0.3045
19118TIP3   OH278844   1.654   4.015  15.045  0.6079  0.3103 -0.0200
19118TIP3    H178845   1.749   4.013  15.037  0.5174 -0.0764 -1.3381
19118TIP3    H278846   1.623   3.964  14.970 -0.6095 -1.0491  1.3411
19119TIP3   OH278847   5.114   3.837  11.403  0.0281  0.8330 -0.1601
19119TIP3    H178848   5.153   3.812  11.319  0.8576  0.6389  0.2802
19119TIP3    H278849   5.117   3.758  11.456 -0.2355  1.0327  0.1573
19120TIP3   OH278850   5.053   5.647   1.074 -0.0902  0.2015  0.4464
19120TIP3    H178851   5.053   5.620   0.982 -1.0453  1.2723  0.1173
19120TIP3    H278852   5.143   5.678   1.089  0.3329 -0.8183  0.1549
19121TIP3   OH278853   6.125   1.837   1.857 -0.5512 -0.1594  0.3701
19121TIP3    H178854   6.191   1.769   1.872 -1.3307 -0.8948  0.5588
19121TIP3    H278855   6.064   1.797   1.796 -0.3023  0.8791 -0.5907
19122TIP3   OH278856   0.263   6.047   1.310  0.6547  0.2792  0.4419
19122TIP3    H178857   0.186   6.048   1.367  0.4300  0.8233  0.1497
19122TIP3    H278858   0.334   6.077   1.365  0.1026  2.5552  0.0363
19123TIP3   OH278859   5.424   0.006  12.079  0.2681  0.6257  0.4505
19123TIP3    H178860   5.514   0.004  12.114  0.0581  0.8948  1.0097
19123TIP3    H278861   5.406  -0.085  12.055 -0.9846 -0.4678  4.7032
19124TIP3   OH278862   5.336   0.321  15.042  0.0163 -0.0216  0.0860
19124TIP3    H178863   5.241   0.326  15.028 -0.3699 -2.0896  1.4704
19124TIP3    H278864   5.357   0.229  15.025  2.0791  0.6965 -1.6456
19125TIP3   OH278865   5.149   2.665   1.684  0.0497  0.0215 -0.3220
19125TIP3    H178866   5.201   2.707   1.752  0.0378  1.2320 -1.0258
19125TIP3    H278867   5.058   2.673   1.714  0.1358 -0.6463  0.1387
19126TIP3   OH278868   0.157   6.327  12.986 -0.4350  0.1004 -0.3610
19126TIP3    H178869   0.244   6.366  12.989 -0.5359  0.2898  0.6085
19126TIP3    H278870   0.162   6.252  13.045 -0.6525 -0.4876 -1.0800
19127TIP3   OH278871   2.935   1.829   3.364  0.3372 -0.0876 -0.6287
19127TIP3    H178872   2.940   1.738   3.334  0.7893  0.1655 -1.3555
19127TIP3    H278873   2.846   1.839   3.397  1.1752 -1.7407  2.6230
19128TIP3   OH278874   4.933   1.743  12.993  0.2794 -0.2345 -0.3095
19128TIP3    H178875   4.870   1.671  12.987  0.3761 -0.5643  1.8638
19128TIP3    H278876   4.919   1.780  13.080  2.1426  0.5658 -0.3018
19129TIP3   OH278877   5.708   0.526  11.024  0.1919 -0.0761  0.7094
19129TIP3    H178878   5.623   0.507  10.984  0.4407 -0.7901  0.5155
19129TIP3    H278879   5.758   0.567  10.953  0.4129 -0.7494  0.4729
19130TIP3   OH278880   3.576   5.353   3.910  0.0057 -0.0536 -0.0247
19130TIP3    H178881   3.595   5.262   3.887  1.2857 -0.1141  1.1655
19130TIP3    H278882   3.657   5.400   3.892 -0.5414  0.7952 -0.3078
19131TIP3   OH278883   3.814   3.993  11.618  0.3835 -0.1681  0.4252
19131TIP3    H178884   3.890   3.975  11.673 -0.5278 -0.1600  1.7250
19131TIP3    H278885   3.744   3.941  11.657 -0.0916 -0.8951 -1.2948
19132TIP3   OH278886   2.428   1.267  11.723  0.7273 -0.1312 -0.2218
19132TIP3    H178887   2.492   1.205  11.757  0.3731 -0.6645 -0.5229
19132TIP3    H278888   2.478   1.325  11.666  1.3077  0.6980  1.0667
19133TIP3   OH278889   4.902   3.065  13.535 -0.4253 -0.3949  0.2380
19133TIP3    H178890   4.994   3.076  13.513  0.0892  0.7697  2.6417
19133TIP3    H278891   4.863   3.024  13.457  1.6597  0.9701 -1.6399
19134TIP3   OH278892   6.285   2.590   4.920  0.3678 -0.0947 -0.2994
19134TIP3    H178893   6.281   2.683   4.900  3.3191  0.2913  0.4426
19134TIP3    H278894   6.277   2.585   5.015 -0.2433 -0.6425 -0.3746
19135TIP3   OH278895   2.703   5.010   1.545  0.1085 -0.4000 -0.0200
19135TIP3    H178896   2.607   5.010   1.543  0.1074  0.2661 -1.2699
19135TIP3    H278897   2.728   5.038   1.457  1.4465  0.5176  0.6183
19136TIP3   OH278898   0.420   0.810   5.246 -0.1889  0.3786  0.5068
19136TIP3    H178899   0.394   0.725   5.212  0.4939  0.5554 -0.4935
19136TIP3    H278900   0.511   0.798   5.275  0.4201  1.1076 -0.9879
19137TIP3   OH278901   6.616   0.584  12.710 -0.8050 -0.5089  0.3444
19137TIP3    H178902   6.643   0.663  12.757 -0.9394 -0.6395  0.6412
19137TIP3    H278903   6.694   0.558  12.661 -0.8999  0.0742 -0.1269
19138TIP3   OH278904   1.789   3.505  14.234 -0.0146  0.2538 -0.2427
19138TIP3    H178905   1.844   3.467  14.166 -1.2148  0.6780 -1.5115
19138TIP3    H278906   1.803   3.449  14.311  1.0684 -0.4856 -0.9495
19139TIP3   OH278907   1.595   0.406   1.715  0.1150  0.0356  0.1305
19139TIP3    H178908   1.602   0.456   1.634  2.3175 -1.1085 -0.4517
19139TIP3    H278909   1.636   0.322   1.696 -1.8934 -1.3867  1.6118
19140TIP3   OH278910   3.352   3.085  16.082 -0.4885 -0.4069 -0.1722
19140TIP3    H178911   3.261   3.088  16.052 -0.6397 -0.4257  0.2775
19140TIP3    H278912   3.346   3.085  16.178 -0.1744 -3.7466 -0.0425
19141TIP3   OH278913   2.438   5.748   9.653 -0.9579  0.2827  0.1502
19141TIP3    H178914   2.500   5.677   9.635 -1.1557 -0.0034  0.5759
19141TIP3    H278915   2.360   5.704   9.687 -0.8945  0.7386  0.9158
19142TIP3   OH278916   1.700   4.831  13.173 -0.0838  0.2451  0.3803
19142TIP3    H178917   1.623   4.829  13.230 -1.6702  1.5108 -1.5929
19142TIP3    H278918   1.748   4.751  13.195 -2.9949 -1.6585  0.3111
19143TIP3   OH278919   2.801   2.089  12.735  0.3592 -0.2738 -0.2064
19143TIP3    H178920   2.790   1.997  12.762  1.2111 -0.7330 -1.3311
19143TIP3    H278921   2.835   2.133  12.813 -0.8922 -0.7028  0.6140
19144TIP3   OH278922   5.971   0.496   1.485  0.1380 -0.5328  0.4131
19144TIP3    H178923   5.979   0.507   1.390  0.1268 -1.0724  0.3483
19144TIP3    H278924   6.048   0.541   1.520 -0.1036  0.0778  0.1820
19145TIP3   OH278925   5.353   2.533   4.945  0.1916  0.0980  0.1861
19145TIP3    H178926   5.301   2.458   4.916  0.2309  0.0646  0.2021
19145TIP3    H278927   5.332   2.602   4.882  0.1943  0.0583  0.1416
19146TIP3   OH278928   0.709   0.504  15.916  0.5629  0.4787  0.1665
19146TIP3    H178929   0.776   0.518  15.850  2.2621  0.8690  1.8979
19146TIP3    H278930   0.639   0.565  15.892  0.1589 -0.8275 -2.3988
19147TIP3   OH278931   2.765   2.297  16.289 -0.0120  0.0413  0.3194
19147TIP3    H178932   2.836   2.332  16.234 -0.6594  0.1246 -0.4895
19147TIP3    H278933   2.717   2.375  16.317 -0.4394 -0.0876 -0.0568
19148TIP3   OH278934   4.142   6.293  12.687  0.3924  0.2439  0.2950
19148TIP3    H178935   4.138   6.208  12.731  0.2051  0.3584  0.5015
19148TIP3    H278936   4.225   6.292  12.641  0.4187 -0.0295  0.3457
19149TIP3   OH278937   6.509   1.252  14.253 -0.0425  0.5437 -0.5608
19149TIP3    H178938   6.552   1.290  14.176 -1.3253 -0.0275 -1.5996
19149TIP3    H278939   6.432   1.307  14.267  1.9850  2.9135  2.6089
19150TIP3   OH278940   2.837   2.950  13.955  0.4318 -0.0704  0.5708
19150TIP3    H178941   2.920   2.902  13.956  1.1950  1.1864  0.9275
19150TIP3    H278942   2.833   2.991  14.042 -0.5371 -0.0700  0.5267
19151TIP3   OH278943   2.467   5.836  16.706  0.4019 -0.1672 -0.1002
19151TIP3    H178944   2.450   5.824  16.612  0.2174  1.1778 -0.2567
19151TIP3    H278945   2.383   5.818  16.748  0.5986 -1.2281 -0.1331
19152TIP3   OH278946   4.817   0.223  10.888  0.0843 -0.2354 -0.1042
19152TIP3    H178947   4.804   0.239  10.794 -0.1462  3.6867  0.4240
19152TIP3    H278948   4.729   0.208  10.923  0.1132 -1.1326 -0.3829
19153TIP3   OH278949   2.705   2.925   5.986 -0.7749  0.4776  0.0758
19153TIP3    H178950   2.612   2.928   5.964 -0.9963 -0.8454  0.7399
19153TIP3    H278951   2.708   2.947   6.080 -0.5681 -0.7336  0.3660
19154TIP3   OH278952   1.314   5.699  15.824 -0.1827 -0.3499  0.0782
19154TIP3    H178953   1.240   5.743  15.783  0.6085  1.1731  0.2426
19154TIP3    H278954   1.283   5.610  15.840 -1.3390 -0.2802 -1.5645
19155TIP3   OH278955   4.197   4.675  12.527  0.1225 -0.4773  0.0965
19155TIP3    H178956   4.251   4.680  12.448 -0.0791  2.5572  0.0076
19155TIP3    H278957   4.245   4.729  12.591 -1.8383  0.7700  0.5993
19156TIP3   OH278958   5.437   2.662  12.316  0.0372  0.2130 -0.1445
19156TIP3    H178959   5.367   2.599  12.301  1.0688 -0.7524 -1.0098
19156TIP3    H278960   5.515   2.621  12.279  1.1759  1.0400  1.2554
19157TIP3   OH278961   6.762   3.568   4.586  0.4072 -0.8191  0.5431
19157TIP3    H178962   6.805   3.482   4.583  0.5899 -0.7057 -1.2476
19157TIP3    H278963   6.669   3.548   4.580  0.4669 -0.8920 -0.2250
19158TIP3   OH278964   3.570   3.625   3.282  0.5092  0.2467  0.0415
19158TIP3    H178965   3.594   3.674   3.203  0.3355  2.0795  1.0755
19158TIP3    H278966   3.475   3.635   3.289  0.5202  0.0733  0.4782
19159TIP3   OH278967   6.401   0.144   1.751  0.3297  0.2510 -0.8741
19159TIP3    H178968   6.431   0.235   1.760  1.0427 -0.1859  1.9453
19159TIP3    H278969   6.475   0.091   1.781 -0.8028 -1.1624 -0.4670
19160TIP3   OH278970   5.825   6.040   3.450 -0.3429 -0.5168 -0.4261
19160TIP3    H178971   5.734   6.070   3.454 -0.5875 -1.3235  0.3970
19160TIP3    H278972   5.854   6.060   3.361 -1.6891 -1.3135 -1.0554
19161TIP3   OH278973   1.917   6.645   6.132  0.3830 -0.4215 -0.0238
19161TIP3    H178974   1.858   6.675   6.201 -0.3428  0.4325 -0.9710
19161TIP3    H278975   1.875   6.567   6.095  1.1144 -1.2888  0.9215
19162TIP3   OH278976   6.500   4.264   3.943 -0.3466  0.2974  0.0916
19162TIP3    H178977   6.591   4.287   3.925  0.4046 -2.0783  0.4833
19162TIP3    H278978   6.454   4.285   3.862  1.0401 -0.6709 -1.0066
19163TIP3   OH278979   6.849   6.644  15.713  0.2108  0.6073  0.2407
19163TIP3    H178980   6.789   6.640  15.638  0.3309 -0.0942  0.1715
19163TIP3    H278981   6.803   6.598  15.783 -0.0305  1.5279  0.7051
19164TIP3   OH278982   5.620   3.599  11.527 -0.5413 -0.5990 -0.0359
19164TIP3    H178983   5.544   3.657  11.520 -1.4700 -1.7870 -0.0974
19164TIP3    H278984   5.638   3.573  11.437  0.8624  0.7783 -0.1996
19165TIP3   OH278985   4.169   1.943   5.048 -0.4001  0.4952  0.2940
19165TIP3    H178986   4.188   2.007   4.979 -1.4109 -0.1230 -0.6000
19165TIP3    H278987   4.112   1.879   5.005  1.6282 -1.7522  0.7975
19166TIP3   OH278988   2.420   0.425   2.359  0.3822 -0.7815  0.6063
19166TIP3    H178989   2.481   0.474   2.305 -0.1903 -0.1534  0.5119
19166TIP3    H278990   2.345   0.484   2.369 -0.7313 -1.9811 -0.3032
19167TIP3   OH278991   6.607   1.596   1.748  0.0655 -0.5020 -0.5826
19167TIP3    H178992   6.522   1.630   1.722 -0.2171  0.6396  1.5851
19167TIP3    H278993   6.665   1.672   1.749  0.5653 -0.8740 -0.0111
19168TIP3   OH278994   2.753   2.035   1.237  0.0671 -0.1567 -0.2311
19168TIP3    H178995   2.755   2.124   1.201  1.0132  0.0180  0.2309
19168TIP3    H278996   2.822   1.989   1.189 -1.3720 -1.0810 -1.5161
19169TIP3   OH278997   6.636   0.120   3.193 -0.7016  0.0159  0.0705
19169TIP3    H178998   6.692   0.070   3.134 -0.3114 -1.1361  1.3400
19169TIP3    H278999   6.637   0.209   3.159 -0.1163 -0.5069 -1.3553
19170TIP3   OH279000   1.267   5.154   1.236 -0.1094 -0.1976 -0.0135
19170TIP3    H179001   1.177   5.152   1.204  0.1820  0.0978 -0.8869
19170TIP3    H279002   1.290   5.247   1.236  0.4388 -0.3259 -0.5263
19171TIP3   OH279003   3.139   3.236   0.817  0.4045 -0.2473 -0.2545
19171TIP3    H179004   3.161   3.167   0.880  1.2118 -0.0012 -0.2563
19171TIP3    H279005   3.100   3.306   0.871  0.5329 -0.2826 -0.1155
19172TIP3   OH279006   3.452   5.419  13.691 -0.0113 -0.4724 -0.2913
19172TIP3    H179007   3.521   5.353  13.696  0.3198 -0.0574  1.0616
19172TIP3    H279008   3.455   5.464  13.776  1.3656  2.9011 -1.9567
19173TIP3   OH279009   5.110   0.053   1.504 -0.3214 -0.1237 -0.2326
19173TIP3    H179010   5.147   0.133   1.467  2.6678 -0.8243  0.9688
19173TIP3    H279011   5.183  -0.009   1.504 -1.8140 -1.9993  1.3544
19174TIP3   OH279012   1.443   1.252  11.160  0.3228 -0.1058  0.1768
19174TIP3    H179013   1.350   1.229  11.159  0.5227 -1.0097  1.0408
19174TIP3    H279014   1.462   1.272  11.251  0.9547  0.2120 -0.0183
19175TIP3   OH279015   3.240   5.388   6.199  0.4620 -0.4938 -0.4116
19175TIP3    H179016   3.270   5.317   6.141  1.0390 -0.1574 -0.5367
19175TIP3    H279017   3.149   5.367   6.218  1.0334 -2.1120  0.8011
19176TIP3   OH279018   1.693   3.623   4.631  0.0178  0.1245 -0.9142
19176TIP3    H179019   1.683   3.587   4.719  0.9022 -0.4619 -1.0408
19176TIP3    H279020   1.695   3.718   4.644 -3.1002  0.2599 -0.6552
19177TIP3   OH279021   4.094   3.083   4.613  0.0574 -0.0499  0.2506
19177TIP3    H179022   4.029   3.045   4.672 -0.4422  0.2376 -0.1074
19177TIP3    H279023   4.163   3.115   4.672 -0.6009  0.5541  0.7217
19178TIP3   OH279024   6.509   1.895   0.195  0.6384  0.2921  0.0048
19178TIP3    H179025   6.540   1.869   0.282 -0.2012  1.0876  0.5568
19178TIP3    H279026   6.587   1.931   0.152  0.9585  0.3195  0.5904
19179TIP3   OH279027   0.314   5.677  10.663  0.1083  0.0921  0.1431
19179TIP3    H179028   0.246   5.709  10.723  0.3898  1.2616 -0.1429
19179TIP3    H279029   0.301   5.727  10.583  1.6873  0.7968  0.2898
19180TIP3   OH279030   3.340   4.441  13.930 -0.0277  0.2581 -0.0824
19180TIP3    H179031   3.287   4.375  13.885 -0.9845  0.6869  0.3865
19180TIP3    H279032   3.417   4.451  13.874  0.3329 -1.5154  0.0258
19181TIP3   OH279033   4.908   3.896  16.858 -0.8842 -0.2204  0.1370
19181TIP3    H179034   4.837   3.832  16.843 -0.7429 -0.1549 -0.8486
19181TIP3    H279035   4.983   3.860  16.810 -0.5080  0.1747  0.4290
19182TIP3   OH279036   4.942   6.246   9.851 -0.0863  0.1246  0.1630
19182TIP3    H179037   4.848   6.263   9.844 -0.2969 -1.4982 -1.9287
19182TIP3    H279038   4.948   6.160   9.892  0.4980  0.3100  0.4731
19183TIP3   OH279039   6.036   4.267  10.101  0.4658  0.1189 -0.0701
19183TIP3    H179040   5.981   4.258  10.179  1.1673 -0.4691  0.3703
19183TIP3    H279041   5.976   4.257  10.027 -0.3269  1.4282  0.3774
19184TIP3   OH279042   2.466   2.459   2.884  0.1775 -1.0233 -0.2128
19184TIP3    H179043   2.429   2.373   2.906  0.8558 -1.1403  0.5171
19184TIP3    H279044   2.529   2.477   2.954 -0.9647  0.7204  0.4320
19185TIP3   OH279045   2.471   0.354  16.358 -0.0993 -0.2768  0.3612
19185TIP3    H179046   2.400   0.386  16.414 -1.9500 -3.9247  0.4441
19185TIP3    H279047   2.466   0.406  16.279 -0.9490  1.4390  1.4928
19186TIP3   OH279048   3.713   0.138   6.177 -0.2175 -0.3103 -0.3821
19186TIP3    H179049   3.795   0.134   6.129 -0.4563 -0.2459 -0.7974
19186TIP3    H279050   3.707   0.054   6.222 -0.0532 -0.4160 -0.5578
19187TIP3   OH279051   0.462   1.982  14.539  0.4360 -0.2018 -0.6997
19187TIP3    H179052   0.449   1.917  14.608  1.5584 -0.3961 -0.6574
19187TIP3    H279053   0.406   2.055  14.564  1.8821  0.3264  1.2101
19188TIP3   OH279054   6.458   4.320   0.284 -0.4855 -0.3966  0.8831
19188TIP3    H179055   6.435   4.330   0.192 -0.5971 -1.6320  0.7713
19188TIP3    H279056   6.554   4.315   0.285 -0.2434  2.4429  1.1371
19189TIP3   OH279057   0.809   0.139  10.078  0.2687 -0.4009  0.3541
19189TIP3    H179058   0.718   0.139  10.049  0.3286 -0.7652  0.1671
19189TIP3    H279059   0.857   0.089  10.011  0.7087  0.2993  0.1348
19190TIP3   OH279060   5.807   4.147  13.898  0.7084  0.4078  0.4269
19190TIP3    H179061   5.735   4.084  13.899  0.8868  0.1896 -0.0442
19190TIP3    H279062   5.839   4.145  13.808 -0.2713  2.3038 -0.0319
19191TIP3   OH279063   4.120   3.487  14.006  0.0352  0.2441 -0.0906
19191TIP3    H179064   4.200   3.437  14.021  0.3961  0.6680 -0.5499
19191TIP3    H279065   4.051   3.437  14.049  0.7634  0.6078  1.5585
19192TIP3   OH279066   1.650   4.235   5.467  0.6786  0.3326  0.2997
19192TIP3    H179067   1.640   4.164   5.530  2.0649  0.6398  0.9169
19192TIP3    H279068   1.561   4.254   5.438  0.1484 -0.7572  1.1079
19193TIP3   OH279069   2.895   6.485  11.311 -0.5330 -0.4439  0.2077
19193TIP3    H179070   2.849   6.523  11.236  0.3647  0.2951  0.0120
19193TIP3    H279071   2.852   6.524  11.387 -0.2361  0.2607  0.0265
19194TIP3   OH279072   6.383   5.090   3.575  0.4427  0.1959 -0.5089
19194TIP3    H179073   6.316   5.156   3.595  1.6629  2.0570 -2.1130
19194TIP3    H279074   6.333   5.013   3.546 -1.0288  0.4215  1.2755
19195TIP3   OH279075   6.792   2.891  13.625 -0.1077  0.2023  0.1216
19195TIP3    H179076   6.726   2.869  13.559  0.5425 -1.5713  0.0072
19195TIP3    H279077   6.780   2.826  13.694 -0.0801  1.3904  1.2935
19196TIP3   OH279078   6.276   3.716  13.442 -0.6849  0.0857 -0.5122
19196TIP3    H179079   6.319   3.659  13.506 -0.7112  0.0126 -0.5592
19196TIP3    H279080   6.214   3.659  13.397 -0.3849  0.0403 -0.8764
19197TIP3   OH279081   2.067   4.336  14.946 -0.4723  0.1080 -0.0855
19197TIP3    H179082   2.043   4.414  14.897 -0.5365 -0.5720 -1.1855
19197TIP3    H279083   2.157   4.317  14.920 -0.0104  0.4927  1.1266
19198TIP3   OH279084   6.254   4.347   0.459  0.1154  0.0098  0.3020
19198TIP3    H179085   6.311   4.385   0.526 -0.6826 -0.0421  1.0291
19198TIP3    H279086   6.311   4.331   0.385  1.2337 -0.8591  1.3237
19199TIP3   OH279087   2.748   0.172  15.019 -0.2852 -0.5341 -0.1904
19199TIP3    H179088   2.809   0.141  15.085  0.5031  2.1249  0.4574
19199TIP3    H279089   2.674   0.207  15.069 -1.1323 -1.2853 -0.8774
19200TIP3   OH279090   6.882   1.638   5.739 -0.4200 -1.3024  0.3905
19200TIP3    H179091   6.906   1.574   5.672  1.2495 -0.7326  0.4029
19200TIP3    H279092   6.941   1.620   5.812  0.9676  0.9734 -0.0632
19201TIP3   OH279093   3.668   4.985   0.999 -0.1688  0.1067 -0.3494
19201TIP3    H179094   3.760   5.009   0.992  0.4278 -1.8476  0.1940
19201TIP3    H279095   3.623   5.041   0.935  1.6074  0.0190 -1.7274
19202TIP3   OH279096   0.998   0.092   2.489 -0.6314  0.2949  0.2955
19202TIP3    H179097   0.961   0.066   2.574  0.1586 -1.1392  0.2327
19202TIP3    H279098   1.090   0.067   2.495 -0.8001 -0.8734 -1.3870
19203TIP3   OH279099   3.423   3.908   3.413  0.2910 -0.0003 -0.2409
19203TIP3    H179100   3.400   3.865   3.331 -0.7358 -1.3289  0.7019
19203TIP3    H279101   3.338   3.931   3.453  0.7612  0.2786  0.6232
19204TIP3   OH279102   5.727   3.076   2.346  0.0134 -0.3437  0.2955
19204TIP3    H179103   5.786   3.108   2.278  1.9005 -0.6502  1.6860
19204TIP3    H279104   5.709   2.985   2.321  0.1814 -0.2707 -0.1036
19205TIP3   OH279105   5.043   5.054  16.840  0.0335  0.0697 -0.1438
19205TIP3    H179106   5.098   4.977  16.856 -0.4319  0.1242  2.2007
19205TIP3    H279107   4.954   5.024  16.862 -0.1788  1.1941  0.5975
19206TIP3   OH279108   6.153   1.724   0.989  0.1113  0.1759  0.0526
19206TIP3    H179109   6.196   1.646   0.955  0.0839  0.8006 -1.4581
19206TIP3    H279110   6.151   1.785   0.916  1.6772  2.2795  1.6623
19207TIP3   OH279111   2.272   4.269  14.777 -0.3490  0.1670  0.2931
19207TIP3    H179112   2.334   4.280  14.849  0.8350  2.0517 -0.8936
19207TIP3    H279113   2.276   4.353  14.730 -4.7535  0.8774  0.8266
19208TIP3   OH279114   5.317   3.163   6.292  0.4515 -0.3698 -0.1477
19208TIP3    H179115   5.240   3.178   6.237  0.0580  0.3025  0.5715
19208TIP3    H279116   5.285   3.113   6.366  1.1783 -2.1743 -0.9892
19209TIP3   OH279117   1.695   4.921  10.789  0.3820 -0.8287  0.7401
19209TIP3    H179118   1.726   4.892  10.704  0.4943  0.8923  0.1450
19209TIP3    H279119   1.632   4.991  10.769  0.9681  0.1218  2.0543
19210TIP3   OH279120   2.798   2.899   0.989 -0.8663 -0.8126 -0.4371
19210TIP3    H179121   2.737   2.957   0.944  0.5046  1.4037  0.4085
19210TIP3    H279122   2.759   2.886   1.075 -1.3121 -1.4081 -0.7220
19211TIP3   OH279123   2.321   1.136   4.814  0.6300 -0.2383  0.3967
19211TIP3    H179124   2.293   1.145   4.723 -0.1903  0.3513  0.6955
19211TIP3    H279125   2.240   1.138   4.864  1.0267 -1.2875  1.0952
19212TIP3   OH279126   0.564   5.832   1.919 -0.4158 -0.3588  0.5151
19212TIP3    H179127   0.642   5.798   1.874 -0.4594 -0.2213  0.3328
19212TIP3    H279128   0.548   5.770   1.989 -1.1947 -1.3808 -0.5376
19213TIP3   OH279129   2.396   3.750  14.669  0.6282  0.4073 -0.3047
19213TIP3    H179130   2.452   3.695  14.614  0.3049  1.2721 -1.5697
19213TIP3    H279131   2.423   3.731  14.758  3.0226  0.8779 -0.8663
19214TIP3   OH279132   4.513   1.358   0.416 -0.2168  0.2058 -0.4692
19214TIP3    H179133   4.604   1.382   0.434  0.5740 -1.5273 -1.8529
19214TIP3    H279134   4.464   1.393   0.490  1.4489  1.8356 -0.0600
19215TIP3   OH279135   6.871   1.942  15.509 -0.2832 -0.6185 -0.1943
19215TIP3    H179136   6.844   2.033  15.522 -2.1277 -1.2862  1.0318
19215TIP3    H279137   6.792   1.891  15.526  0.9096 -2.5014 -0.0376
19216TIP3   OH279138   2.296   4.457   1.983 -1.0814 -0.0058 -0.0246
19216TIP3    H179139   2.222   4.454   1.923 -0.5556  0.7377 -0.7539
19216TIP3    H279140   2.266   4.510   2.056 -1.5367 -0.4098  0.0827
19217TIP3   OH279141   4.159   6.853   5.187 -0.4003 -0.6484  0.0355
19217TIP3    H179142   4.071   6.816   5.176 -0.3982 -0.7404  0.3270
19217TIP3    H279143   4.198   6.846   5.100 -0.2482 -1.7223  0.1691
19218TIP3   OH279144   4.925   4.477  13.862  0.7928  0.0582 -0.0708
19218TIP3    H179145   4.867   4.438  13.796  0.8245 -0.0950 -0.0080
19218TIP3    H279146   4.941   4.407  13.925  0.3128  0.3683  0.4022
19219TIP3   OH279147   1.474   3.262  14.078  0.3367  0.0836  0.2143
19219TIP3    H179148   1.412   3.231  14.143 -0.1360  1.4293  0.4490
19219TIP3    H279149   1.532   3.321  14.127 -0.7462  2.0544 -0.7456
19220TIP3   OH279150   3.518   1.861   1.188  0.1297 -0.4726 -0.4133
19220TIP3    H179151   3.487   1.876   1.099  2.9517 -0.0983 -1.4375
19220TIP3    H279152   3.499   1.768   1.204 -2.4267 -0.0449 -0.4394
19221TIP3   OH279153   5.917   0.147  14.074 -0.0117  1.0484  0.4158
19221TIP3    H179154   5.858   0.198  14.018  0.4266  1.7155  0.5607
19221TIP3    H279155   5.956   0.211  14.133  1.7210  0.8246 -0.4103
19222TIP3   OH279156   1.366   6.780   5.772  0.5468  0.2231  0.3542
19222TIP3    H179157   1.295   6.788   5.709 -0.3060  0.2046  1.2808
19222TIP3    H279158   1.344   6.843   5.841  1.6662  0.5386  0.4400
19223TIP3   OH279159   5.201   2.609   2.909 -0.2652  0.4715  0.1528
19223TIP3    H179160   5.160   2.593   2.824 -0.4405 -0.9459  0.4702
19223TIP3    H279161   5.271   2.543   2.914 -1.1126 -0.3636  1.6421
19224TIP3   OH279162   6.493   3.928   2.731 -0.1722  0.4510  0.6952
19224TIP3    H179163   6.588   3.925   2.729 -0.1055  2.0233  0.4256
19224TIP3    H279164   6.469   3.887   2.814  0.6420 -1.2797  0.1222
19225TIP3   OH279165   0.130   2.880  13.984 -0.0414 -0.0921 -0.0279
19225TIP3    H179166   0.056   2.923  13.941  0.3654  1.4030  0.7078
19225TIP3    H279167   0.101   2.866  14.074  0.1786 -0.5087 -0.0185
19226TIP3   OH279168   3.038   1.847   0.348 -0.0632 -0.3889  0.4101
19226TIP3    H179169   3.119   1.814   0.387  0.2028 -1.2796 -0.8460
19226TIP3    H279170   3.049   1.942   0.349  1.8547 -0.5067 -1.3792
19227TIP3   OH279171   2.051   5.833  16.073  0.7047 -0.2049  0.4205
19227TIP3    H179172   1.986   5.886  16.120  1.4317  0.6509  0.4782
19227TIP3    H279173   1.999   5.766  16.029 -0.2054  0.3419  0.6330
19228TIP3   OH279174   1.800   4.441  15.209  0.2024 -0.5454 -0.3749
19228TIP3    H179175   1.874   4.471  15.155 -1.0802 -0.9684 -2.4780
19228TIP3    H279176   1.837   4.370  15.263  1.5076 -0.2025 -0.7715
19229TIP3   OH279177   3.781   0.613  14.278  0.3911  0.0443  0.9345
19229TIP3    H179178   3.734   0.607  14.361  0.9999 -0.6668  1.2344
19229TIP3    H279179   3.799   0.523  14.253 -0.2844  0.2130 -0.2813
19230TIP3   OH279180   3.799   5.748  12.319 -0.2992 -0.2205  0.1205
19230TIP3    H179181   3.778   5.831  12.276 -3.7010 -1.8870 -1.9223
19230TIP3    H279182   3.894   5.739  12.310  0.0294  2.8439 -0.6203
19231TIP3   OH279183   1.529   1.665  16.418  0.3955 -0.7061  0.0723
19231TIP3    H179184   1.506   1.694  16.330  1.9797  0.5732  0.0497
19231TIP3    H279185   1.624   1.655  16.417  0.8417  2.0348  2.3344
19232TIP3   OH279186   5.441   5.924  11.968 -0.0091  0.0166  0.0316
19232TIP3    H179187   5.467   5.985  11.900 -0.4105  0.4264  0.2330
19232TIP3    H279188   5.519   5.912  12.022  0.1100  0.2515 -0.0889
19233TIP3   OH279189   4.247   1.164  11.744  0.1791 -0.1664 -0.1296
19233TIP3    H179190   4.322   1.211  11.709 -0.3259  0.7843  0.0317
19233TIP3    H279191   4.275   1.073  11.747  0.9813  0.0424 -0.9651
19234TIP3   OH279192   1.228   5.419  14.635 -0.1399  0.2808  0.1909
19234TIP3    H179193   1.246   5.395  14.544  0.5342 -0.8886  0.6086
19234TIP3    H279194   1.201   5.511  14.631  0.3598  0.3904 -1.1284
19235TIP3   OH279195   4.189   6.081  15.981  0.2572 -0.3080  0.5563
19235TIP3    H179196   4.162   6.163  15.939  0.3420 -0.0413  1.0134
19235TIP3    H279197   4.242   6.109  16.056  1.1879 -0.8106  0.1030
19236TIP3   OH279198   0.855   0.830  16.126  0.0219  0.0665 -0.0463
19236TIP3    H179199   0.778   0.830  16.070  0.2611  1.1716 -0.3923
19236TIP3    H279200   0.820   0.836  16.215 -0.2988  0.5234 -0.2006
19237TIP3   OH279201   1.554   0.512   4.176  0.3714  0.3735 -0.2112
19237TIP3    H179202   1.539   0.501   4.082  2.3053  0.7207 -0.5975
19237TIP3    H279203   1.606   0.592   4.182 -0.0291  0.5513  1.2042
19238TIP3   OH279204   2.561   3.503   2.521 -0.3370  0.0101  0.7087
19238TIP3    H179205   2.647   3.516   2.562 -0.2027 -0.8861  0.7151
19238TIP3    H279206   2.566   3.417   2.481 -0.5894  0.7111 -0.9082
19239TIP3   OH279207   4.561   0.873   0.055 -0.2031 -0.1975 -0.3285
19239TIP3    H179208   4.638   0.930   0.058  0.6042 -1.2938  0.4082
19239TIP3    H279209   4.509   0.908  -0.017  1.9204 -0.5851 -2.1639
19240TIP3   OH279210   1.031   2.386   1.450  0.3605 -0.2814 -0.2667
19240TIP3    H179211   0.966   2.378   1.520  0.3901  0.6614 -0.1181
19240TIP3    H279212   0.986   2.357   1.371 -1.7384  4.1508 -1.0243
19241TIP3   OH279213   3.146   0.785  13.904 -0.0100 -0.4286 -0.8075
19241TIP3    H179214   3.198   0.862  13.879 -1.1956  0.9171  0.6332
19241TIP3    H279215   3.134   0.736  13.823  0.5538  1.0611 -1.8234
19242TIP3   OH279216   6.803   0.122   1.639 -0.1657 -0.1910  0.0376
19242TIP3    H179217   6.778   0.206   1.678  1.8840 -0.7310  2.7426
19242TIP3    H279218   6.720   0.074   1.632 -0.8976  0.6466  2.0812
19243TIP3   OH279219   4.963   2.217   3.248 -0.0335 -0.4620 -0.2010
19243TIP3    H179220   4.966   2.310   3.269  1.1499 -0.8073  1.3637
19243TIP3    H279221   5.053   2.187   3.258 -0.5082 -1.9066  0.0264
19244TIP3   OH279222   5.155   5.589  16.630  0.4859  0.0411 -0.0944
19244TIP3    H179223   5.153   5.493  16.634  1.0143 -0.0216 -1.1473
19244TIP3    H279224   5.148   5.616  16.722  2.6990 -1.0426  0.4619
19245TIP3   OH279225   0.072   4.200   0.126 -0.1349 -0.2332 -0.2749
19245TIP3    H179226   0.095   4.243   0.044  0.3148 -1.0155 -0.5720
19245TIP3    H279227  -0.020   4.175   0.114  0.0295 -0.6577 -0.6899
19246TIP3   OH279228   5.568   2.809   4.320 -0.2846  0.3258 -0.5983
19246TIP3    H179229   5.494   2.782   4.266  1.0989 -1.6377 -1.6457
19246TIP3    H279230   5.556   2.763   4.403  0.1564 -0.6332 -1.0571
19247TIP3   OH279231   0.842   0.182   4.265  0.3649  0.6883 -0.0761
19247TIP3    H179232   0.751   0.201   4.288 -0.1620 -1.3010 -0.3396
19247TIP3    H279233   0.848   0.202   4.172 -0.2195 -0.4750 -0.3844
19248TIP3   OH279234   5.311   1.807  16.829 -0.3039 -0.6047 -0.1650
19248TIP3    H179235   5.303   1.881  16.889  0.3277 -0.4372 -0.2793
19248TIP3    H279236   5.352   1.843  16.751 -1.2361 -0.8008 -0.7585
19249TIP3   OH279237   6.691   3.051   0.715 -0.0529  0.3524  0.2426
19249TIP3    H179238   6.707   2.988   0.785 -1.0289  1.2374  1.3053
19249TIP3    H279239   6.660   2.997   0.641  0.2650 -0.5227  0.7328
19250TIP3   OH279240   2.553   5.802   0.436 -0.4038 -0.2244 -0.1092
19250TIP3    H179241   2.549   5.891   0.470  0.4756 -0.1537 -0.1645
19250TIP3    H279242   2.516   5.748   0.506  0.8995 -0.0254  0.7788
19251TIP3   OH279243   0.282   1.508  10.733  0.2567 -0.2460 -0.1450
19251TIP3    H179244   0.310   1.598  10.750 -2.4871  0.5649  0.6367
19251TIP3    H279245   0.296   1.463  10.817 -0.4494  0.0920  0.1684
19252TIP3   OH279246   2.297   0.576  12.174 -0.6545 -0.0199 -0.2985
19252TIP3    H179247   2.300   0.534  12.260  0.2854 -0.2376 -0.4234
19252TIP3    H279248   2.389   0.583  12.148 -0.9524 -0.4436 -1.5169
19253TIP3   OH279249   3.864   5.654  14.613 -0.0666  0.0642  0.1761
19253TIP3    H179250   3.889   5.739  14.575  0.3154 -0.4129 -0.6737
19253TIP3    H279251   3.806   5.677  14.685 -0.1189  1.0457 -0.1530
19254TIP3   OH279252   1.770   0.539   0.838 -0.2351  0.1358 -0.1459
19254TIP3    H179253   1.698   0.545   0.900 -1.3764 -0.4311 -1.3708
19254TIP3    H279254   1.741   0.590   0.762  0.9063  0.3809 -0.4421
19255TIP3   OH279255   2.271   5.338  14.933  0.3180  0.2628  0.6233
19255TIP3    H179256   2.233   5.327  14.846  1.8205  0.7791 -0.1332
19255TIP3    H279257   2.197   5.333  14.992 -0.5421 -2.0117 -0.5165
19256TIP3   OH279258   6.061   2.347  16.816 -0.2836 -0.5064 -0.0311
19256TIP3    H179259   6.112   2.423  16.787 -1.0454 -0.1650 -0.5168
19256TIP3    H279260   6.102   2.321  16.898  0.4555 -0.0279 -0.2323
19257TIP3   OH279261   1.049   0.963  12.924  0.3078  0.1599  0.2039
19257TIP3    H179262   1.063   1.057  12.936 -1.3973  0.5486 -0.5567
19257TIP3    H279263   1.044   0.951  12.830 -2.4267 -0.1491  0.3069
19258TIP3   OH279264   2.581   5.014  13.725 -0.0685 -0.0817 -0.2669
19258TIP3    H179265   2.565   5.095  13.774  1.3059  0.2332 -0.2927
19258TIP3    H279266   2.499   4.965  13.732  0.0272  0.0004  2.2764
19259TIP3   OH279267   0.089   4.799   5.257 -0.3132 -0.6079  0.3936
19259TIP3    H179268   0.104   4.867   5.192 -1.6645 -3.0973 -2.7875
19259TIP3    H279269   0.010   4.827   5.304 -0.2301  0.4861 -0.0989
19260TIP3   OH279270   1.978   3.082  12.946 -0.0797 -0.4066  0.0646
19260TIP3    H179271   1.974   3.120  13.034 -2.0774  0.4117 -0.3290
19260TIP3    H279272   2.003   2.991  12.961 -0.2387 -0.2488  1.4679
19261TIP3   OH279273   6.454   1.984  13.023  0.5072 -0.4042 -0.2962
19261TIP3    H179274   6.446   1.896  13.060 -1.2631 -0.0567  0.2594
19261TIP3    H279275   6.401   1.982  12.944  2.0148 -0.3375 -1.3620
19262TIP3   OH279276   3.220   2.816   5.512 -0.0345  0.5380  0.1793
19262TIP3    H179277   3.286   2.781   5.451  0.4022 -0.5082  1.2177
19262TIP3    H279278   3.141   2.822   5.459  0.2536 -0.6809 -0.4367
19263TIP3   OH279279   0.079   0.491   4.969  0.0566  0.0718  0.2726
19263TIP3    H179280   0.028   0.566   4.939 -1.1657 -0.8439 -0.0302
19263TIP3    H279281   0.099   0.442   4.889  0.3493 -0.2297  0.5274
19264TIP3   OH279282   6.754   3.411  14.673  0.2398 -0.2068  0.4535
19264TIP3    H179283   6.710   3.479  14.622 -2.9416 -2.9657 -0.8073
19264TIP3    H279284   6.833   3.454  14.707 -1.4789  4.0005 -0.3123
19265TIP3   OH279285   4.921   2.830  10.681  0.3010  0.3915 -0.4423
19265TIP3    H179286   4.832   2.817  10.716  0.7853  0.5065  0.8899
19265TIP3    H279287   4.918   2.789  10.594 -0.7940 -0.4361 -0.0537
19266TIP3   OH279288   0.913   2.228   0.613  0.0537  0.8143  0.1959
19266TIP3    H179289   0.956   2.142   0.610 -0.0148  0.7392  1.1568
19266TIP3    H279290   0.910   2.250   0.706 -1.2747  1.1744  0.0923
19267TIP3   OH279291   1.604   1.510  14.539 -0.0418  0.1207 -0.3259
19267TIP3    H179292   1.580   1.488  14.629  1.7151 -1.8631 -0.2514
19267TIP3    H279293   1.653   1.434  14.509 -2.4202 -0.2969 -3.7526
19268TIP3   OH279294   5.745   5.819   1.590 -0.1595  0.1158  0.5889
19268TIP3    H179295   5.778   5.908   1.593  0.0638  0.0154  1.5684
19268TIP3    H279296   5.823   5.764   1.596 -0.3223 -0.1507  0.3447
19269TIP3   OH279297   0.663   0.618  10.835 -0.1637 -0.4582 -0.4044
19269TIP3    H179298   0.694   0.708  10.839  1.9119 -1.1382 -0.1913
19269TIP3    H279299   0.592   0.620  10.771  0.4531  1.1559 -1.0888
19270TIP3   OH279300   1.487   0.845  13.029 -0.1203  0.3528  0.2041
19270TIP3    H179301   1.430   0.770  13.014  1.3540 -0.8140  0.1122
19270TIP3    H279302   1.511   0.839  13.122 -1.3200  1.7346  0.6440
19271TIP3   OH279303   1.340   1.033  13.210 -0.1643 -0.3239 -0.0277
19271TIP3    H179304   1.337   1.000  13.121  1.7518 -0.4511 -0.0935
19271TIP3    H279305   1.257   1.005  13.250 -1.6804  0.9055 -2.1178
19272TIP3   OH279306   4.813   4.003  12.081 -0.0393  0.5216  0.8147
19272TIP3    H179307   4.820   4.066  12.152 -0.0763  1.7232 -0.2162
19272TIP3    H279308   4.726   3.964  12.092 -1.0415  2.4088  0.1033
19273TIP3   OH279309   1.419   2.464  11.176 -0.2806 -0.4787  0.0954
19273TIP3    H179310   1.460   2.383  11.206  0.4012 -0.5923 -1.0745
19273TIP3    H279311   1.419   2.521  11.252  1.6048 -0.6672  0.2965
19274TIP3   OH279312   2.568   1.814  12.276  0.1792 -0.2100 -0.5301
19274TIP3    H179313   2.647   1.857  12.308 -0.4876 -0.0733  1.0321
19274TIP3    H279314   2.581   1.721  12.294 -0.4490 -0.0649  0.7451
19275TIP3   OH279315   0.590   1.646  15.350  0.3252  0.1541  0.1107
19275TIP3    H179316   0.541   1.690  15.280  1.0654 -0.0868 -0.5801
19275TIP3    H279317   0.664   1.704  15.366  1.3964 -0.8838 -0.9209
19276TIP3   OH279318   6.353   0.567  13.996 -0.5053  0.0494 -1.1714
19276TIP3    H179319   6.302   0.495  13.960  0.6628 -1.4435 -0.0149
19276TIP3    H279320   6.323   0.645  13.950 -0.6454 -1.4181 -3.6902
19277TIP3   OH279321   2.719   2.397  12.900  0.0289 -0.2084 -0.0802
19277TIP3    H179322   2.639   2.345  12.900 -0.2402  0.1740 -1.4996
19277TIP3    H279323   2.692   2.482  12.866  0.4480  0.9254  2.2531
19278TIP3   OH279324   6.091   5.713  16.642 -0.9146 -0.2929  0.2308
19278TIP3    H179325   6.107   5.672  16.558 -1.1685 -0.2475  0.1582
19278TIP3    H279326   6.087   5.641  16.704  1.0088 -0.2125  0.4931
19279TIP3   OH279327   6.490   4.575  14.483 -0.1938  0.6017 -0.1434
19279TIP3    H179328   6.467   4.644  14.420 -3.2026  0.8583  1.0327
19279TIP3    H279329   6.481   4.617  14.569  1.1374 -0.4521  0.5499
19280TIP3   OH279330   1.473   0.405  10.928 -0.1775 -0.5435  0.3937
19280TIP3    H179331   1.394   0.459  10.929 -0.2623 -0.6338  2.1050
19280TIP3    H279332   1.456   0.336  10.993  1.0971 -0.8789  0.4014
19281TIP3   OH279333   5.524   2.753  13.673 -0.3293  0.4776 -0.0300
19281TIP3    H179334   5.577   2.807  13.730  1.2079 -2.5322  1.6498
19281TIP3    H279335   5.456   2.716  13.730 -1.9191  1.2748 -1.3168
19282TIP3   OH279336   5.793   2.131  16.316 -0.2836 -0.2259  0.4830
19282TIP3    H179337   5.698   2.119  16.311 -0.3989  0.7100  0.1709
19282TIP3    H279338   5.812   2.132  16.410 -1.2493  3.9094  0.8310
19283TIP3   OH279339   4.378   3.117   6.069  0.2230 -0.6389 -0.1494
19283TIP3    H179340   4.378   3.030   6.109 -1.5307 -1.0688 -1.0046
19283TIP3    H279341   4.326   3.171   6.129 -0.1106 -0.6084 -0.4619
19284TIP3   OH279342   3.735   1.891   5.415 -0.5036 -0.1844 -0.3753
19284TIP3    H179343   3.689   1.934   5.343 -0.9781  0.2667  0.1890
19284TIP3    H279344   3.716   1.944   5.491  0.8584 -0.0600 -0.0928
19285TIP3   OH279345   5.371   2.342   0.003  0.5332 -0.0410 -0.8371
19285TIP3    H179346   5.285   2.365   0.038  0.2137 -0.8327 -1.0770
19285TIP3    H279347   5.431   2.405   0.043  0.1377 -0.7035  0.8997
19286TIP3   OH279348   4.925   2.667   5.289  0.6080  0.2229 -0.4369
19286TIP3    H179349   5.014   2.655   5.255  1.1200  0.9166  0.6002
19286TIP3    H279350   4.887   2.736   5.234  0.9655  0.4228 -0.4329
19287TIP3   OH279351   6.321   2.023  16.127 -0.3391  0.3002 -0.1813
19287TIP3    H179352   6.337   2.096  16.187  0.1977  0.6050 -0.6884
19287TIP3    H279353   6.230   1.998  16.143 -0.9019  1.8420 -0.8096
19288TIP3   OH279354   6.187   5.826   0.996  0.4695  0.1579  0.1362
19288TIP3    H179355   6.117   5.864   0.943  1.1379  0.3287 -0.6488
19288TIP3    H279356   6.247   5.788   0.932  0.9142 -0.3064  0.8154
19289TIP3   OH279357   3.846   1.167   1.337 -0.3832 -0.0903 -0.5642
19289TIP3    H179358   3.756   1.135   1.348 -0.2363 -0.6148 -0.8623
19289TIP3    H279359   3.837   1.248   1.287 -0.6845 -0.2157 -0.7159
19290TIP3   OH279360   5.193   3.431  16.885 -0.0754  0.0407  0.4390
19290TIP3    H179361   5.195   3.501  16.950 -0.0106  1.3814 -0.9484
19290TIP3    H279362   5.100   3.418  16.867 -0.2599 -2.1480  2.6245
19291TIP3   OH279363   5.007   2.127  15.839 -0.1340  0.4315  0.2690
19291TIP3    H179364   4.978   2.151  15.751 -1.4932 -0.5510  0.4198
19291TIP3    H279365   4.944   2.170  15.897  0.1402  0.2370  0.7168
19292TIP3   OH279366   6.125   5.331  12.564  0.0485 -0.4517  0.7668
19292TIP3    H179367   6.179   5.302  12.637 -0.4334 -0.9032  0.9551
19292TIP3    H279368   6.136   5.426  12.562  0.9734 -0.5553  0.6905
19293TIP3   OH279369   3.075   0.370  11.474  0.0961  0.6705  0.1506
19293TIP3    H179370   3.131   0.334  11.543 -0.8337 -0.4366  0.3646
19293TIP3    H279371   3.103   0.461  11.465  2.1882  0.0632 -0.0404
19294TIP3   OH279372   0.831   3.401   0.835 -0.1620 -0.5228 -0.2004
19294TIP3    H179373   0.794   3.337   0.774 -0.8162 -0.9834  0.6554
19294TIP3    H279374   0.903   3.441   0.787  1.8674 -3.5919 -0.0147
19295TIP3   OH279375   3.251   6.568  12.264 -0.1496  0.1935  0.2670
19295TIP3    H179376   3.164   6.583  12.225  0.0413 -0.0901 -0.2748
19295TIP3    H279377   3.303   6.530  12.193  0.2982 -0.0390  0.7146
19296TIP3   OH279378   2.905   6.299  13.253  0.4735  0.2675  0.0234
19296TIP3    H179379   2.981   6.355  13.269  0.9874  0.1931 -1.8805
19296TIP3    H279380   2.834   6.341  13.301  1.2361  1.5712  0.0745
19297TIP3   OH279381   2.564   2.720  15.079  0.2905 -0.3267  0.3062
19297TIP3    H179382   2.639   2.661  15.074 -0.0135 -0.8728  1.6443
19297TIP3    H279383   2.491   2.663  15.104 -0.4787  0.2760 -0.5028
19298TIP3   OH279384   5.144   4.534  10.340  0.1450  0.3721  0.0303
19298TIP3    H179385   5.066   4.520  10.287 -1.2068  0.9699  1.7724
19298TIP3    H279386   5.216   4.536  10.276 -1.0836 -1.2720 -1.5144
19299TIP3   OH279387   4.739   5.869   1.805  0.1509  0.3094  0.0485
19299TIP3    H179388   4.686   5.947   1.821  0.1190  0.2174  0.3805
19299TIP3    H279389   4.797   5.862   1.880  0.2871  0.1190 -0.0712
19300TIP3   OH279390   3.823   1.605  13.005 -0.0566 -0.1552  0.2880
19300TIP3    H179391   3.865   1.652  13.078  0.2961  1.3265 -0.8112
19300TIP3    H279392   3.880   1.621  12.931 -1.1838 -0.3640 -0.6531
19301TIP3   OH279393   6.664   5.842  11.329  0.4661  0.3832 -0.4692
19301TIP3    H179394   6.678   5.779  11.399  1.1266  0.5939 -0.4123
19301TIP3    H279395   6.670   5.927  11.371 -0.8257  0.4927 -0.4695
19302TIP3   OH279396   1.503   3.698  12.882 -0.0723  0.4362 -0.1302
19302TIP3    H179397   1.562   3.747  12.939  0.6791  1.1626 -1.4978
19302TIP3    H279398   1.416   3.709  12.922  0.3360  1.4756  0.4948
19303TIP3   OH279399   1.787   2.085   4.059 -1.2054  0.1267 -0.1669
19303TIP3    H179400   1.711   2.036   4.028  0.2633 -0.9323 -2.3256
19303TIP3    H279401   1.808   2.144   3.987  0.9541 -0.7550 -0.3173
19304TIP3   OH279402   4.092   0.733  12.518  0.2816 -0.4837 -1.5251
19304TIP3    H179403   4.086   0.817  12.473 -1.0963 -0.1838 -0.8396
19304TIP3    H279404   4.126   0.672  12.452 -1.1854  0.0440 -2.8436
19305TIP3   OH279405   2.385   0.886  12.335  0.2608 -0.3654  0.1280
19305TIP3    H179406   2.354   0.969  12.372  0.3876 -0.9370  1.5655
19305TIP3    H279407   2.315   0.859  12.276  1.0619  1.7246 -1.9561
19306TIP3   OH279408   3.176   4.578  13.419 -0.1374 -0.0689 -0.4773
19306TIP3    H179409   3.209   4.490  13.401  0.9460  0.0629  0.7055
19306TIP3    H279410   3.248   4.622  13.464 -1.6208  0.5137  1.4699
19307TIP3   OH279411   6.533   6.019  16.242  0.2286 -0.0110 -0.1136
19307TIP3    H179412   6.506   6.034  16.333 -0.1829 -1.7383  0.0697
19307TIP3    H279413   6.595   5.947  16.247  0.4145  0.0669 -1.1853
19308TIP3   OH279414   5.585   5.382   4.313  0.0894 -0.0934  0.2798
19308TIP3    H179415   5.589   5.450   4.381 -0.8454 -0.1502  0.4059
19308TIP3    H279416   5.546   5.426   4.237 -2.3090 -0.9085  0.9498
19309TIP3   OH279417   1.733   5.630   5.020  0.8548  0.1515 -0.3907
19309TIP3    H179418   1.661   5.651   5.080 -0.3512 -2.6072 -0.6898
19309TIP3    H279419   1.799   5.589   5.075  1.1294  0.4579 -0.4902
19310TIP3   OH279420   5.668   2.123   0.428  0.0760  0.2662 -0.0179
19310TIP3    H179421   5.708   2.168   0.502  0.1761 -1.8742  1.3122
19310TIP3    H279422   5.576   2.112   0.453  0.2632 -1.0931  0.1262
19311TIP3   OH279423   3.726   1.487  12.221  0.3280 -0.1283 -0.5484
19311TIP3    H179424   3.653   1.456  12.167  0.8943 -2.3256 -0.1390
19311TIP3    H279425   3.708   1.454  12.308  0.4622  1.6728  0.2057
19312TIP3   OH279426   0.097   6.251   2.500 -0.2622 -0.1926 -0.4848
19312TIP3    H179427   0.112   6.185   2.567  1.4863  1.8518  1.3183
19312TIP3    H279428   0.155   6.226   2.428  0.2995 -0.6913  0.1289
19313TIP3   OH279429   2.990   1.097  15.389 -0.0555  0.0843 -0.1745
19313TIP3    H179430   2.935   1.092  15.311  1.0435 -1.8530 -0.8833
19313TIP3    H279431   3.021   1.188  15.390 -2.3542  0.9228 -0.3385
19314TIP3   OH279432   2.288   6.789   0.362 -0.2921 -0.7499 -0.2010
19314TIP3    H179433   2.224   6.849   0.324 -1.3463 -1.5926  0.2146
19314TIP3    H279434   2.266   6.704   0.325 -0.6763 -1.4074  1.4600
19315TIP3   OH279435   4.893   2.758   1.611  0.4226  0.2953 -0.7574
19315TIP3    H179436   4.924   2.708   1.535 -1.0092  1.0348 -1.8872
19315TIP3    H279437   4.804   2.726   1.625  0.4202  0.6862  0.1610
19316TIP3   OH279438   4.868   3.681  13.355 -0.5195  0.2229 -0.3316
19316TIP3    H179439   4.961   3.681  13.333 -0.3425 -1.6516  0.2048
19316TIP3    H279440   4.839   3.592  13.333 -2.4007  1.0244 -1.3090
19317TIP3   OH279441   5.505   6.107  11.689 -0.2840 -0.3917 -0.3918
19317TIP3    H179442   5.524   6.157  11.609 -0.0378  0.8198  0.4022
19317TIP3    H279443   5.510   6.171  11.759  0.0186 -1.5452  0.6741
19318TIP3   OH279444   3.556   0.518   0.192 -0.4819 -0.2991  0.2508
19318TIP3    H179445   3.527   0.522   0.283 -1.7369  0.4274 -0.1617
19318TIP3    H279446   3.558   0.424   0.171 -0.0269 -0.4744  1.0661
19319TIP3   OH279447   3.828   3.121  14.024 -0.1577  0.0724 -0.1588
19319TIP3    H179448   3.782   3.166  13.953 -1.5728 -1.7006 -0.4411
19319TIP3    H279449   3.758   3.089  14.081  0.5786 -3.3291 -0.9581
19320TIP3   OH279450   0.654   5.255  12.312 -0.1365 -0.1813 -0.3197
19320TIP3    H179451   0.672   5.342  12.276 -2.0586 -0.2161 -1.4976
19320TIP3    H279452   0.739   5.225  12.346  0.8442  1.6019 -1.0707
19321TIP3   OH279453   3.532   5.732  16.430  0.2030  0.0800  0.3403
19321TIP3    H179454   3.573   5.670  16.490  1.4613  0.6569  0.1249
19321TIP3    H279455   3.581   5.813  16.443 -1.2284  0.9734  0.4326
19322TIP3   OH279456   4.721   0.324  11.955  0.2757 -0.3215  0.1776
19322TIP3    H179457   4.721   0.395  11.890  0.3216 -0.2160  0.2924
19322TIP3    H279458   4.805   0.280  11.942  1.0590  0.7763  1.3331
19323TIP3   OH279459   5.829   6.040   1.158  0.0221  0.0485  0.2848
19323TIP3    H179460   5.898   5.975   1.171  0.3466  0.2377 -0.4368
19323TIP3    H279461   5.832   6.060   1.065 -0.0021  1.1662  0.5039
19324TIP3   OH279462   0.043   1.264   2.987 -0.0031 -0.1711  0.1145
19324TIP3    H179463   0.091   1.185   2.963  1.5416  0.7338  0.0940
19324TIP3    H279464   0.063   1.326   2.916 -0.3477  0.5674  0.6520
19325TIP3   OH279465   4.178   2.061  14.527 -0.2489  0.2966  0.2010
19325TIP3    H179466   4.129   1.988  14.489  1.8414 -0.4348 -1.2352
19325TIP3    H279467   4.186   2.124  14.455  0.5737  0.5625  0.5144
19326TIP3   OH279468   3.876   5.422   1.241  0.1989 -0.2030 -0.3683
19326TIP3    H179469   3.810   5.400   1.175 -1.4923  1.8396  0.5615
19326TIP3    H279470   3.950   5.456   1.190 -0.7941  0.6588 -1.2806
19327TIP3   OH279471   4.559   0.117   3.945 -0.2784  0.2962  0.1492
19327TIP3    H179472   4.650   0.091   3.954 -0.2650  0.7075  1.3700
19327TIP3    H279473   4.513   0.068   4.013 -0.9402  0.2665 -0.3035
19328TIP3   OH279474   1.197   2.229  10.268  0.0997  0.1115  0.0335
19328TIP3    H179475   1.131   2.240  10.199  0.8851 -0.0955 -0.7762
19328TIP3    H279476   1.150   2.246  10.349 -0.5143  1.9001 -0.6367
19329TIP3   OH279477   5.688   0.927   3.945  0.2618 -0.1621 -0.0524
19329TIP3    H179478   5.777   0.926   3.910  1.3674 -0.1096  2.5415
19329TIP3    H279479   5.693   0.873   4.024 -2.1873 -0.6504 -0.1556
19330TIP3   OH279480   0.115   0.243  12.760  0.2373  0.3673 -0.2401
19330TIP3    H179481   0.111   0.315  12.823  1.0078 -1.9670  2.6907
19330TIP3    H279482   0.201   0.203  12.775 -0.4936 -1.6883 -1.1374
19331TIP3   OH279483   2.631   2.830  16.797  0.0292  0.2929 -0.1120
19331TIP3    H179484   2.634   2.805  16.705  0.6212  1.7854 -0.5212
19331TIP3    H279485   2.556   2.889  16.804 -1.3010 -1.4003  0.8232
19332TIP3   OH279486   5.029   4.681  11.120  0.8165 -0.0631 -0.0969
19332TIP3    H179487   4.985   4.621  11.180 -0.1275  0.5955 -0.1157
19332TIP3    H279488   4.961   4.711  11.060  1.2737  1.0024 -0.1179
19333TIP3   OH279489   3.878   5.400   2.300  0.2959  0.4309  0.5221
19333TIP3    H179490   3.802   5.370   2.251 -0.2582 -0.3111  1.7919
19333TIP3    H279491   3.953   5.376   2.245 -0.2855 -0.6122  0.1584
19334TIP3   OH279492   5.235   4.537  14.842  0.8483  0.6065 -0.2905
19334TIP3    H179493   5.260   4.615  14.890  4.9308 -0.3031 -0.6248
19334TIP3    H279494   5.244   4.465  14.904  3.6742 -0.2654 -1.5359
19335TIP3   OH279495   0.351   3.639   2.725  0.0450  0.5597  0.4449
19335TIP3    H179496   0.428   3.669   2.676 -0.9156  1.0577 -0.8218
19335TIP3    H279497   0.343   3.547   2.704  0.6602  0.3376  1.1205
19336TIP3   OH279498   5.985   3.860  16.406 -0.0443  0.2512  0.0521
19336TIP3    H179499   6.061   3.916  16.388 -1.0236  1.3169 -0.9363
19336TIP3    H279500   5.988   3.793  16.338  1.9629 -1.9200  2.0845
19337TIP3   OH279501   6.574   5.677  14.071  0.0280 -0.0307 -0.5683
19337TIP3    H179502   6.633   5.686  14.146 -1.1226 -0.1746  0.3664
19337TIP3    H279503   6.604   5.744  14.009 -0.1470  1.3162  0.7628
19338TIP3   OH279504   1.958   5.005   5.806  0.2963  0.1795 -0.1703
19338TIP3    H179505   2.048   5.001   5.836 -0.1593  1.3615  1.5289
19338TIP3    H279506   1.925   4.916   5.818  0.9217  0.0014  0.2932
19339TIP3   OH279507   2.690   2.128   3.753 -0.4107 -0.1027  0.2690
19339TIP3    H179508   2.650   2.190   3.813  1.0281 -0.0036  1.1782
19339TIP3    H279509   2.775   2.167   3.731 -0.7643 -0.2884 -1.6024
19340TIP3   OH279510   1.455   3.189  14.634  0.2807  0.0057  0.5201
19340TIP3    H179511   1.408   3.174  14.717  0.1327 -2.3130  0.0807
19340TIP3    H279512   1.469   3.102  14.598 -0.8782  0.9817 -2.6160
19341TIP3   OH279513   1.757   0.939   1.638  0.1057 -0.3060 -0.1638
19341TIP3    H179514   1.684   0.995   1.664  0.6550  0.3403  0.0094
19341TIP3    H279515   1.832   0.973   1.687  0.7735 -0.2282 -1.1975
19342TIP3   OH279516   4.121   6.277  15.189 -0.3843 -0.0468 -0.2120
19342TIP3    H179517   4.165   6.192  15.180  0.3862  0.3794 -0.5131
19342TIP3    H279518   4.030   6.259  15.164  0.1734 -0.3969 -2.1423
19343TIP3   OH279519   3.162   3.293   4.186  0.2259  0.1098  0.2422
19343TIP3    H179520   3.177   3.373   4.135 -1.4557  0.6797  0.5824
19343TIP3    H279521   3.248   3.253   4.193  1.1881  2.0730  0.3623
19344TIP3   OH279522   5.929   0.111   6.297 -0.5728  0.5134  0.0566
19344TIP3    H179523   5.911   0.052   6.223 -0.3794 -1.0349  1.1986
19344TIP3    H279524   5.855   0.172   6.297 -1.5184 -0.5911 -0.3464
19345TIP3   OH279525   1.917   5.029   4.472  0.4209 -0.6383  0.0327
19345TIP3    H179526   1.844   5.086   4.451  1.4064  0.1149 -1.4909
19345TIP3    H279527   1.935   5.046   4.564  1.8256  2.9343 -0.7447
19346TIP3   OH279528   2.261   3.814  13.362  0.2222 -0.9732  0.0993
19346TIP3    H179529   2.236   3.775  13.446  0.9492 -0.1543  0.7114
19346TIP3    H279530   2.254   3.909  13.377  1.6935 -0.7804 -0.3394
19347TIP3   OH279531   3.599   0.643  16.811 -0.2444 -0.1764 -0.8730
19347TIP3    H179532   3.586   0.640  16.905  0.7777  0.0533 -0.7130
19347TIP3    H279533   3.558   0.562  16.778 -0.4578 -0.3354 -0.2261
19348TIP3   OH279534   5.836   3.788   1.764 -0.2034 -0.0776 -0.3844
19348TIP3    H179535   5.832   3.731   1.841  1.5100 -0.4050 -0.5051
19348TIP3    H279536   5.831   3.877   1.801 -0.9594 -0.2582 -0.0363
19349TIP3   OH279537   0.728   2.742  12.260  0.3850  0.0282  0.2825
19349TIP3    H179538   0.685   2.672  12.210  1.5747 -0.5765  0.0540
19349TIP3    H279539   0.745   2.702  12.345 -0.2506  0.5471  0.6623
19350TIP3   OH279540   0.880   0.393  11.729 -0.2984 -0.5554  0.2215
19350TIP3    H179541   0.838   0.310  11.705 -4.9256  1.7100 -0.6854
19350TIP3    H279542   0.864   0.402  11.822  1.5944 -1.2588  0.6588
19351TIP3   OH279543   5.977   0.638  13.424 -0.0250 -0.1845 -0.3190
19351TIP3    H179544   5.899   0.688  13.399 -0.2324 -0.5796 -0.4689
19351TIP3    H279545   6.049   0.701  13.416 -0.3375  0.2033 -0.1088
19352TIP3   OH279546   3.796   5.009   0.614  0.0766 -0.0935 -0.1989
19352TIP3    H179547   3.718   4.958   0.594  0.4338 -0.7212 -0.0433
19352TIP3    H279548   3.841   4.957   0.681 -0.0328  0.9111  0.6655
19353TIP3   OH279549   4.775   2.132   5.056 -0.2573  0.2708  0.0708
19353TIP3    H179550   4.808   2.222   5.064 -0.6561  0.4396 -0.1615
19353TIP3    H279551   4.725   2.118   5.136  0.6384 -0.1035  0.5832
19354TIP3   OH279552   5.096   5.496  12.281 -0.0200  0.4420 -0.2246
19354TIP3    H179553   5.058   5.436  12.217 -1.1063  2.4510 -1.5775
19354TIP3    H279554   5.021   5.542  12.318  0.8206  1.5671  0.1464
19355TIP3   OH279555   2.723   1.937  14.458 -0.1071  0.1341 -0.1707
19355TIP3    H179556   2.708   1.854  14.413  1.5066 -1.3468  1.7857
19355TIP3    H279557   2.660   1.997  14.420 -2.1931 -2.3006 -0.8632
19356TIP3   OH279558   4.336   3.485   0.111 -0.2745 -0.6036 -0.7944
19356TIP3    H179559   4.260   3.472   0.168  0.1392  0.8969  0.1790
19356TIP3    H279560   4.401   3.528   0.168  0.9867 -1.0776 -1.8268
19357TIP3   OH279561   0.724   6.722  12.074  0.3803 -0.1636 -0.1436
19357TIP3    H179562   0.674   6.802  12.061  0.9301  0.8632  3.1305
19357TIP3    H279563   0.665   6.652  12.045 -2.1482  1.1373  1.5069
19358TIP3   OH279564   5.448   5.782  13.638 -0.5706 -0.0250 -0.1682
19358TIP3    H179565   5.450   5.844  13.710 -2.7469 -1.6826  1.4433
19358TIP3    H279566   5.500   5.708  13.669 -0.8530 -0.4211 -0.6270
19359TIP3   OH279567   3.849   2.858   2.832 -0.4844  0.2708 -0.1248
19359TIP3    H179568   3.909   2.814   2.893 -0.3211  0.9519  0.2159
19359TIP3    H279569   3.896   2.936   2.804 -1.0235  0.5580 -0.2421
19360TIP3   OH279570   6.038   5.909   0.490 -0.4525 -0.0338  0.6158
19360TIP3    H179571   5.967   5.950   0.540 -1.4853 -0.8547 -0.1420
19360TIP3    H279572   6.050   5.823   0.532 -0.6588 -0.3341  0.0662
19361TIP3   OH279573   5.725   2.651  12.683 -0.5849  0.2688 -0.2918
19361TIP3    H179574   5.802   2.602  12.655 -0.2011  0.7291 -0.0726
19361TIP3    H279575   5.723   2.639  12.778 -2.8472 -2.6999 -0.5756
19362TIP3   OH279576   6.442   2.132   3.749 -0.2330 -0.2243  0.2523
19362TIP3    H179577   6.347   2.135   3.748 -0.2681 -1.1831 -0.9749
19362TIP3    H279578   6.467   2.105   3.660  1.1384 -0.9150  0.8103
19363TIP3   OH279579   2.625   6.714   3.726 -0.4212 -0.1725 -0.6405
19363TIP3    H179580   2.695   6.712   3.792 -1.8439 -0.4315  0.9309
19363TIP3    H279581   2.579   6.631   3.738  0.0470 -0.8033 -2.8700
19364TIP3   OH279582   1.163   3.756   1.558  0.6686 -0.1217  0.2474
19364TIP3    H179583   1.106   3.818   1.512  0.1478  0.0009  1.0262
19364TIP3    H279584   1.251   3.795   1.552  0.5020  0.2111 -0.0870
19365TIP3   OH279585   5.516   6.106   1.502  0.3060  0.7359  0.3057
19365TIP3    H179586   5.561   6.127   1.421 -1.4574  1.4106 -0.5579
19365TIP3    H279587   5.515   6.010   1.506  2.6567  0.6854  0.8986
19366TIP3   OH279588   3.566   4.929  16.651 -0.3027  0.6232 -0.4997
19366TIP3    H179589   3.596   4.967  16.569  2.9587 -3.2360 -1.4399
19366TIP3    H279590   3.509   4.857  16.625 -2.3867  1.6475  0.9320
19367TIP3   OH279591   6.265   0.536   3.228 -0.1573  0.0068  0.2715
19367TIP3    H179592   6.214   0.596   3.174 -0.0128  0.8157  1.0041
19367TIP3    H279593   6.199   0.484   3.274 -0.3084  0.2445  0.3275
19368TIP3   OH279594   4.714   0.460  13.612 -0.0994  0.2992  0.0838
19368TIP3    H179595   4.654   0.415  13.552 -0.1076  0.2793  0.1069
19368TIP3    H279596   4.795   0.468  13.563 -0.2498  0.7021 -0.1077
19369TIP3   OH279597   0.631   4.838  13.940  0.4245  0.2028  0.4364
19369TIP3    H179598   0.716   4.883  13.932 -0.4090  1.5627 -1.6035
19369TIP3    H279599   0.567   4.909  13.942 -0.9267 -0.7849 -2.4372
19370TIP3   OH279600   2.956   5.191  12.516  0.1881  0.1214 -0.1141
19370TIP3    H179601   3.046   5.158  12.515  0.9622  2.0033 -2.2900
19370TIP3    H279602   2.940   5.219  12.426 -2.4801  0.1904  0.2934
19371TIP3   OH279603   4.440   2.836   0.722 -0.5945  0.0438 -0.1849
19371TIP3    H179604   4.510   2.855   0.658 -0.2977  0.3262  0.2157
19371TIP3    H279605   4.418   2.745   0.707 -0.8626  0.2380 -1.0166
19372TIP3   OH279606   2.899   1.264  13.758  0.6922 -0.6113  0.0040
19372TIP3    H179607   2.902   1.260  13.854 -2.1434 -0.6570  0.1767
19372TIP3    H279608   2.820   1.214  13.734  0.4052  0.7627 -2.2283
19373TIP3   OH279609   5.391   1.788   0.432  0.0823 -0.1892 -0.2485
19373TIP3    H179610   5.461   1.744   0.383  0.2529  2.0691 -2.2083
19373TIP3    H279611   5.311   1.768   0.384 -0.3457 -0.9754  0.7447
19374TIP3   OH279612   0.362   4.667   4.036  0.5961 -0.0999  0.0388
19374TIP3    H179613   0.311   4.727   4.090 -0.4228 -1.3949  0.5910
19374TIP3    H279614   0.315   4.663   3.953  0.5346 -0.3045  0.0833
19375TIP3   OH279615   3.477   6.857   0.615 -0.4461 -0.1567 -0.2769
19375TIP3    H179616   3.510   6.807   0.689  0.7802  1.9584  0.6813
19375TIP3    H279617   3.542   6.845   0.546 -0.5383 -0.4488 -0.3163
19376TIP3   OH279618   0.533   3.479  15.028 -0.5617  0.3124 -0.3892
19376TIP3    H179619   0.500   3.404  15.078 -0.7862  0.8781  0.3250
19376TIP3    H279620   0.455   3.517  14.988 -0.5998  0.8120  0.1489
19377TIP3   OH279621   5.142   4.337  13.509 -0.7271  0.2942 -0.3888
19377TIP3    H179622   5.124   4.335  13.415 -0.6874 -2.5392 -0.4159
19377TIP3    H279623   5.204   4.409  13.520 -1.7922  1.5881 -2.2899
19378TIP3   OH279624   4.802   3.097  12.341 -0.1904  0.6947 -1.3196
19378TIP3    H179625   4.760   3.034  12.283  1.0397 -0.4053 -1.0602
19378TIP3    H279626   4.736   3.116  12.408 -0.1451 -1.4454 -0.5711
19379TIP3   OH279627   2.303   6.766  15.131 -0.2183  0.1120 -0.1982
19379TIP3    H179628   2.300   6.856  15.099 -0.7717  0.2506  0.2321
19379TIP3    H279629   2.214   6.748  15.161  0.2087 -0.1028  0.9937
19380TIP3   OH279630   5.450   4.673  16.515  0.4169 -0.3780 -0.6132
19380TIP3    H179631   5.470   4.657  16.607  0.6574 -1.1323 -0.7823
19380TIP3    H279632   5.450   4.768  16.506  1.8600 -0.3088 -0.1415
19381TIP3   OH279633   3.811   6.549   1.648  0.0855  0.1861 -0.4175
19381TIP3    H179634   3.850   6.469   1.613 -0.3507 -0.0542 -0.3620
19381TIP3    H279635   3.729   6.559   1.599  0.5480  1.0807 -1.0484
19382TIP3   OH279636   2.942   5.609   0.617 -0.6265  0.1190 -0.0198
19382TIP3    H179637   2.892   5.590   0.537 -0.5317 -1.6067  0.2736
19382TIP3    H279638   2.910   5.694   0.646 -2.4435 -0.3232 -0.5785
19383TIP3   OH279639   3.793   0.266   3.384  0.4310 -0.2905  0.2236
19383TIP3    H179640   3.755   0.347   3.351  1.2056 -0.2752 -0.6769
19383TIP3    H279641   3.728   0.198   3.363  0.0484  0.0106  0.4392
19384TIP3   OH279642   5.883   2.211   5.409 -0.4191  0.1460 -0.2067
19384TIP3    H179643   5.798   2.166   5.404 -1.5755  1.9678  1.4035
19384TIP3    H279644   5.861   2.303   5.396  1.5831  0.5011 -1.3800
19385TIP3   OH279645   5.819   6.814   2.566 -0.0231 -0.2180  0.5477
19385TIP3    H179646   5.824   6.880   2.497 -0.1482 -0.2432  0.5145
19385TIP3    H279647   5.849   6.859   2.645  0.8308 -0.3941  0.3290
19386TIP3   OH279648   0.034   2.492  15.808  0.1746  0.0675 -0.4235
19386TIP3    H179649   0.060   2.557  15.743  0.4334  0.0806 -0.3106
19386TIP3    H279650  -0.060   2.506  15.820  0.2645  0.5631 -0.2484
19387TIP3   OH279651   3.067   2.824  14.182 -0.4532  0.2686 -0.0139
19387TIP3    H179652   3.095   2.888  14.248 -0.5881 -0.4035  0.7082
19387TIP3    H279653   3.050   2.744  14.232  0.0963 -0.4531 -0.9501
19388TIP3   OH279654   1.564   6.846  12.872  0.0967  0.0591 -0.0152
19388TIP3    H179655   1.652   6.881  12.863 -0.3613  1.3370  0.2168
19388TIP3    H279656   1.546   6.848  12.966 -1.2156  2.6092 -0.2477
19389TIP3   OH279657   3.622   4.102   3.335 -0.1236  0.2495  0.3803
19389TIP3    H179658   3.606   4.107   3.429 -0.5403 -1.7788  0.4609
19389TIP3    H279659   3.541   4.134   3.295 -0.2426  0.3636  0.7123
19390TIP3   OH279660   3.002   2.754   0.890 -0.1104 -1.0374  0.3885
19390TIP3    H179661   3.008   2.819   0.821  0.7067 -1.7196 -0.2036
19390TIP3    H279662   2.927   2.781   0.943  1.5024  1.6736  1.5145
19391TIP3   OH279663   1.947   3.936  16.726 -0.3777 -0.0145 -0.2719
19391TIP3    H179664   2.008   3.971  16.660 -0.2735  0.4267  0.0544
19391TIP3    H279665   1.953   3.997  16.799 -0.9854 -0.1391 -0.1129
19392TIP3   OH279666   1.916   3.025   2.207 -0.1393 -0.3787  0.0877
19392TIP3    H179667   2.003   3.047   2.240 -0.3559  0.0860  0.3502
19392TIP3    H279668   1.933   2.961   2.137  0.6018  1.5562 -1.5980
19393TIP3   OH279669   6.220   5.569  15.327  0.1463 -0.7262  0.2314
19393TIP3    H179670   6.160   5.500  15.356 -0.2055  0.2681  2.0378
19393TIP3    H279671   6.259   5.602  15.408  0.0550  1.4150 -0.5389
19394TIP3   OH279672   2.848   4.795  15.054  0.5900  0.3050 -0.0617
19394TIP3    H179673   2.867   4.853  15.128  1.5614 -1.5350  1.2056
19394TIP3    H279674   2.933   4.777  15.015  0.0646  1.4178 -1.8074
19395TIP3   OH279675   0.010   2.909  13.063  0.4193  0.1802 -0.5083
19395TIP3    H179676  -0.014   3.000  13.045  1.2296  0.1303 -1.9717
19395TIP3    H279677  -0.061   2.858  13.024 -1.0908  0.1570  2.0289
19396TIP3   OH279678   1.393   5.938  16.032 -0.4840  0.1819  0.0980
19396TIP3    H179679   1.319   5.998  16.043 -1.6890 -1.1281 -0.5050
19396TIP3    H279680   1.356   5.851  16.048  0.8518 -0.5412 -0.5362
19397TIP3   OH279681   4.958   5.289  10.697  0.4749  0.1891  0.5058
19397TIP3    H179682   4.959   5.371  10.647  1.6149 -0.5040 -0.6653
19397TIP3    H279683   4.945   5.317  10.788 -2.0223  1.4707 -0.1409
19398TIP3   OH279684   3.873   4.219   3.356  0.4384 -0.4501  0.0420
19398TIP3    H179685   3.790   4.177   3.334  1.2942 -1.5447 -1.2922
19398TIP3    H279686   3.848   4.297   3.405 -1.2681 -2.0260  1.8496
19399TIP3   OH279687   5.997   0.064  12.286 -0.6286 -1.0676 -0.0527
19399TIP3    H179688   6.059  -0.006  12.264 -1.5056 -1.8497 -0.0961
19399TIP3    H279689   5.987   0.114  12.205  0.9668 -0.1019  0.3128
19400TIP3   OH279690   6.524   3.049  13.852  0.0839  0.0082 -0.1047
19400TIP3    H179691   6.512   3.021  13.943  1.4871 -1.0706 -0.2285
19400TIP3    H279692   6.537   2.967  13.803 -0.8756  0.5550 -1.3265
19401TIP3   OH279693   0.071   0.019   3.474 -0.5117  0.2879 -0.1848
19401TIP3    H179694  -0.023   0.033   3.471 -0.9924 -0.5566  4.3834
19401TIP3    H279695   0.083  -0.071   3.444 -1.3200 -0.0508  0.4946
19402TIP3   OH279696   4.332   6.651   1.384 -0.4241 -0.7408 -0.3606
19402TIP3    H179697   4.411   6.670   1.435 -0.0175  0.0871 -1.2609
19402TIP3    H279698   4.291   6.578   1.430  1.0632 -1.4394 -0.0817
19403TIP3   OH279699   4.236   6.263  16.394  0.4542  0.5741 -0.1650
19403TIP3    H179700   4.150   6.301  16.415  0.8727  1.9575 -0.7971
19403TIP3    H279701   4.269   6.231  16.478 -1.1937 -1.1692 -0.1094
19404TIP3   OH279702   4.042   4.133   3.644  0.8176  0.0689 -0.0998
19404TIP3    H179703   4.008   4.072   3.579 -2.7793  2.4341 -0.7029
19404TIP3    H279704   4.001   4.106   3.727 -1.8956  2.1803 -0.6005
19405TIP3   OH279705   3.925   1.761   2.698 -0.0496  0.2164 -0.6685
19405TIP3    H179706   3.863   1.688   2.700 -1.6316  1.4833  0.9336
19405TIP3    H279707   4.006   1.726   2.735 -0.9296 -0.6283  0.5234
19406TIP3   OH279708   6.128   1.206  15.216  0.1966 -0.0914  0.1314
19406TIP3    H179709   6.094   1.235  15.301 -0.7725 -1.6508  0.3084
19406TIP3    H279710   6.051   1.205  15.158  0.4181 -1.1579 -0.1647
19407TIP3   OH279711   2.032   1.001   2.879  0.2010 -0.3642  0.1893
19407TIP3    H179712   2.030   1.096   2.874  0.3704 -0.4125 -1.2262
19407TIP3    H279713   1.940   0.975   2.870 -0.0730 -0.3110  2.2880
19408TIP3   OH279714   0.516   2.779  15.449 -0.0577  0.3895 -0.0390
19408TIP3    H179715   0.515   2.829  15.531 -0.0700 -0.1665  0.3065
19408TIP3    H279716   0.552   2.839  15.384 -0.2022  0.8883  0.3433
19409TIP3   OH279717   0.234   2.741   0.251 -0.3733 -0.4267 -0.0231
19409TIP3    H179718   0.208   2.797   0.178  0.1365 -0.1950 -0.0310
19409TIP3    H279719   0.235   2.653   0.215 -0.6996 -0.3797 -0.1418
19410TIP3   OH279720   2.339   2.960  14.726  0.3760 -0.3733  0.5402
19410TIP3    H179721   2.400   3.030  14.702 -0.3410  0.3710  0.8544
19410TIP3    H279722   2.395   2.888  14.754  1.1238  0.1164  0.3274
19411TIP3   OH279723   6.067   1.699   3.681 -0.2853 -0.2904  0.7619
19411TIP3    H179724   6.083   1.640   3.608  0.0635 -0.7589  1.2068
19411TIP3    H279725   6.153   1.713   3.721 -0.0738  1.9229 -0.3580
19412TIP3   OH279726   2.794   4.421  10.746 -0.1165  0.1414 -0.6158
19412TIP3    H179727   2.712   4.470  10.757  0.7695  1.5254  0.1414
19412TIP3    H279728   2.858   4.471  10.797  1.0685 -1.2613 -0.6787
19413TIP3   OH279729   6.266   3.290   1.203 -0.4834  0.2257  0.6215
19413TIP3    H179730   6.298   3.362   1.257 -1.5657 -0.4011  2.1802
19413TIP3    H279731   6.233   3.331   1.123 -1.0616  1.4530  1.4760
19414TIP3   OH279732   4.731   4.238  16.188  0.1520  0.4017  0.2613
19414TIP3    H179733   4.753   4.288  16.266 -0.9173  2.8054 -0.8607
19414TIP3    H279734   4.678   4.164  16.220  1.6443  0.0181  1.9703
19415TIP3   OH279735   5.775   0.110  15.870 -0.2010 -0.3504 -0.1735
19415TIP3    H179736   5.808   0.199  15.883  0.0132  0.0490 -2.8094
19415TIP3    H279737   5.802   0.088  15.781 -2.7525 -1.9553 -0.6428
19416TIP3   OH279738   0.617   2.337  13.599 -0.0147  0.0207  0.4033
19416TIP3    H179739   0.639   2.417  13.550 -0.6856  0.4427  0.7652
19416TIP3    H279740   0.630   2.361  13.690 -5.2280  1.5854  1.0754
19417TIP3   OH279741   4.427   4.634  13.892 -0.3355 -0.4839 -0.1295
19417TIP3    H179742   4.456   4.698  13.827  0.2753 -1.0814 -0.4473
19417TIP3    H279743   4.388   4.563  13.841  0.4253 -1.0972  0.1369
19418TIP3   OH279744   1.947   3.932  16.003  0.0915  0.2007 -0.0159
19418TIP3    H179745   1.903   3.873  16.065  0.1082  0.3506  0.1387
19418TIP3    H279746   1.880   3.996  15.979  0.4633  0.9583  0.8979
19419TIP3   OH279747   0.979   2.369   2.190  0.1400 -0.0680  0.1137
19419TIP3    H179748   0.923   2.446   2.190  0.7622  0.3888 -0.0249
19419TIP3    H279749   1.044   2.386   2.121 -0.9450 -1.6143 -1.3609
19420TIP3   OH279750   0.108   3.006  15.739  0.2990  0.0650  1.0178
19420TIP3    H179751   0.109   3.066  15.664  0.8126 -1.1863 -0.0148
19420TIP3    H279752   0.109   3.064  15.815  0.6077  1.3715  0.0697
19421TIP3   OH279753   4.274   1.080   2.265  0.4888 -0.0194  0.5857
19421TIP3    H179754   4.233   1.149   2.213 -0.7150 -0.5480  0.7929
19421TIP3    H279755   4.356   1.062   2.219 -0.7135 -0.7580 -1.4403
19422TIP3   OH279756   0.141   6.659   1.808 -0.2072  0.3848  0.2192
19422TIP3    H179757   0.099   6.679   1.723 -0.7828  2.5606  0.9369
19422TIP3    H279758   0.193   6.581   1.791 -2.9655 -1.3097 -1.2623
19423TIP3   OH279759   2.581   2.571   4.701  1.1737  0.4230 -0.4905
19423TIP3    H179760   2.641   2.551   4.629  0.6231 -0.8296 -0.6326
19423TIP3    H279761   2.517   2.631   4.663  0.7746 -0.3810 -1.1167
19424TIP3   OH279762   4.527   0.505   6.375  0.1422  0.0539  0.0636
19424TIP3    H179763   4.434   0.521   6.385  0.1484 -0.4604  1.1391
19424TIP3    H279764   4.569   0.576   6.424  0.3370  0.5636 -0.8235
19425TIP3   OH279765   5.704   6.764  13.440 -0.0861  0.1824  0.0552
19425TIP3    H179766   5.786   6.756  13.490  0.7439 -0.0487 -1.3054
19425TIP3    H279767   5.678   6.855  13.452 -0.5152 -0.1188  1.7923
19426TIP3   OH279768   4.172   3.201   5.415 -0.1771 -0.1378 -0.5338
19426TIP3    H179769   4.237   3.261   5.451  0.0985 -1.2047  0.8660
19426TIP3    H279770   4.201   3.114   5.444 -1.6169 -0.7455 -0.8152
19427TIP3   OH279771   3.934   0.084  11.093 -0.6919  0.5602 -0.4537
19427TIP3    H179772   3.967   0.159  11.043  0.2223  0.5466  0.0928
19427TIP3    H279773   3.983   0.010  11.058 -2.3356  0.0157 -1.7134
19428TIP3   OH279774   0.186   1.347   1.344 -0.0370 -0.1769 -0.1912
19428TIP3    H179775   0.186   1.436   1.309  0.5245  0.0167  0.2744
19428TIP3    H279776   0.110   1.305   1.304 -0.6066  0.6684 -0.0135
19429TIP3   OH279777   1.606   1.557   1.314 -0.3964  0.0550  0.7958
19429TIP3    H179778   1.680   1.519   1.361  0.0193  1.7551  1.6043
19429TIP3    H279779   1.535   1.559   1.378 -0.5127  0.3206  0.6608
19430TIP3   OH279780   0.340   3.281  14.007  0.0625  0.6765  0.0877
19430TIP3    H179781   0.354   3.189  14.031 -1.2952  0.6310  0.7814
19430TIP3    H279782   0.427   3.320  14.012  0.7515 -0.6638 -0.6955
19431TIP3   OH279783   3.397   4.943   5.192 -0.0064 -0.2904  0.2202
19431TIP3    H179784   3.422   4.872   5.250 -2.0634 -1.2752  0.0209
19431TIP3    H279785   3.312   4.973   5.226  0.5162  1.6644 -0.0749
19432TIP3   OH279786   4.111   1.131  16.003  0.0399  0.4561  0.1327
19432TIP3    H179787   4.184   1.170  16.052 -0.0286 -0.9238  1.3953
19432TIP3    H279788   4.107   1.182  15.922  3.0785 -0.0561 -0.4691
19433TIP3   OH279789   3.779   1.614   5.344  0.5483 -0.0457  0.3352
19433TIP3    H179790   3.724   1.687   5.373 -0.5831 -0.8433  0.2649
19433TIP3    H279791   3.806   1.638   5.256 -0.6792 -0.1757 -0.0877
19434TIP3   OH279792   4.618   6.236   2.621 -0.3639 -0.1702  0.7417
19434TIP3    H179793   4.711   6.252   2.640 -0.5733  2.9633 -0.4136
19434TIP3    H279794   4.601   6.284   2.541 -2.8461 -1.3884  0.4414
19435TIP3   OH279795   1.725   1.836   0.650  0.2747 -0.6956  0.6542
19435TIP3    H179796   1.651   1.872   0.602 -0.1741 -1.1161  1.0286
19435TIP3    H279797   1.798   1.838   0.587 -0.1869 -0.8049  0.1148
19436TIP3   OH279798   4.125   0.927   2.425 -0.4781 -0.0037 -0.4794
19436TIP3    H179799   4.207   0.949   2.380 -0.2960 -3.4728 -2.1769
19436TIP3    H279800   4.148   0.856   2.484 -1.9139  0.3155  0.5072
19437TIP3   OH279801   0.205   0.471   3.173 -0.0168  0.3146  0.2745
19437TIP3    H179802   0.121   0.427   3.163 -0.6340  1.6207 -0.5186
19437TIP3    H279803   0.266   0.402   3.200 -1.0907 -0.8557 -0.2432
19438TIP3   OH279804   0.781   4.393  11.396 -0.0387 -0.3932  0.4766
19438TIP3    H179805   0.860   4.446  11.409 -0.0802 -0.3782  0.6756
19438TIP3    H279806   0.713   4.439  11.445 -0.3014 -0.1110 -0.1401
19439TIP3   OH279807   4.261   0.040   2.866 -0.3811 -0.3051 -0.0024
19439TIP3    H179808   4.299  -0.034   2.819  1.9238 -0.1989  1.4865
19439TIP3    H279809   4.337   0.089   2.897 -1.8288  1.3692  1.0663
19440TIP3   OH279810   4.658   1.010   3.289 -0.2026  0.1777 -0.1280
19440TIP3    H179811   4.605   0.949   3.239  0.0940 -0.0786 -0.1324
19440TIP3    H279812   4.632   0.997   3.380  0.6491 -0.7598 -0.0001
19441TIP3   OH279813   6.030   1.600  14.228  0.0096  0.0600  0.1791
19441TIP3    H179814   6.073   1.669  14.278 -1.1807  1.0157 -0.0502
19441TIP3    H279815   5.965   1.647  14.175 -0.9528 -1.2694  0.1485
19442TIP3   OH279816   4.959   1.558   3.158 -0.2575  0.0395 -0.2593
19442TIP3    H179817   4.969   1.629   3.222 -0.4055  0.0552 -0.2519
19442TIP3    H279818   5.041   1.509   3.163 -0.2716  0.0339 -0.0495
19443TIP3   OH279819   6.410   0.120   6.092  0.1521 -0.8263  0.1044
19443TIP3    H179820   6.492   0.169   6.082  0.2896 -0.9836  0.4362
19443TIP3    H279821   6.424   0.066   6.170 -0.2300 -0.9312  0.1016
19444TIP3   OH279822   0.854   2.423  15.158 -0.1898 -0.6864 -0.2944
19444TIP3    H179823   0.908   2.383  15.090 -0.6931  0.1102 -1.1768
19444TIP3    H279824   0.772   2.373  15.154 -0.6631  0.1308 -1.1105
19445TIP3   OH279825   1.074   2.437  11.540  0.2763  0.7036 -0.2171
19445TIP3    H179826   1.098   2.393  11.459 -0.5645 -3.4788  1.5446
19445TIP3    H279827   1.157   2.459  11.582  0.7327  1.1231 -1.3308
19446TIP3   OH279828   2.236   5.597  12.837 -0.3923  0.3063 -0.3787
19446TIP3    H179829   2.326   5.565  12.838 -0.5409 -0.1405 -0.9642
19446TIP3    H279830   2.215   5.613  12.929  0.3530  0.6116 -0.2577
19447TIP3   OH279831   4.799   0.892   3.601 -0.4331 -0.2889  0.1997
19447TIP3    H179832   4.814   0.984   3.622 -0.1633  0.0404 -1.2617
19447TIP3    H279833   4.887   0.856   3.585 -0.6674 -0.1681 -1.5430
19448TIP3   OH279834   0.083   3.156   6.045 -0.1096 -0.5173  0.1126
19448TIP3    H179835   0.168   3.129   6.078 -0.3135  0.1650  1.2744
19448TIP3    H279836   0.091   3.251   6.032 -1.1127 -0.1901  1.6518
19449TIP3   OH279837   4.516   1.232  14.181 -0.6651 -0.3265  0.0155
19449TIP3    H179838   4.474   1.153  14.212 -1.0200  1.1659  3.8522
19449TIP3    H279839   4.601   1.203  14.147 -0.8584 -2.3568  1.1529
19450TIP3   OH279840   1.579   0.423  12.910 -0.0743  0.1431  0.2012
19450TIP3    H179841   1.583   0.517  12.891  2.1786 -0.0962 -0.8040
19450TIP3    H279842   1.613   0.381  12.832  0.4397 -1.4430  1.2336
19451TIP3   OH279843   5.285   1.894   4.439  1.2783  0.3548 -0.7318
19451TIP3    H179844   5.212   1.948   4.410  1.4823  1.5061  0.8317
19451TIP3    H279845   5.269   1.878   4.532  1.4105 -2.0159 -1.0511
19452TIP3   OH279846   4.097   6.542   0.982 -0.4161 -0.0608 -0.0742
19452TIP3    H179847   4.165   6.576   0.924 -1.2957 -0.8426 -1.6487
19452TIP3    H279848   4.143   6.487   1.045  0.3724 -1.0560 -1.4727
19453TIP3   OH279849   2.444   4.873  13.409 -0.6067  0.6648 -0.2555
19453TIP3    H179850   2.460   4.945  13.348 -2.9997  2.3334  0.9476
19453TIP3    H279851   2.482   4.903  13.492 -1.3896  0.4478  0.1888
19454TIP3   OH279852   5.354   2.716   4.179  0.1201  0.2020 -0.3572
19454TIP3    H179853   5.309   2.796   4.152  0.3115  0.9549  1.4134
19454TIP3    H279854   5.294   2.645   4.156 -0.4263  0.8984 -1.1599
19455TIP3   OH279855   4.162   4.174   0.191 -0.2415 -0.2445  0.3827
19455TIP3    H179856   4.191   4.229   0.118  0.3769  1.2356  1.6977
19455TIP3    H279857   4.078   4.138   0.162 -0.4302  1.0186 -0.7157
19456TIP3   OH279858   3.689   6.799  14.797 -0.7070  0.0301  0.0589
19456TIP3    H179859   3.660   6.871  14.741  1.5031 -0.6039 -2.0228
19456TIP3    H279860   3.664   6.827  14.885 -1.9009  2.3105 -0.9090
19457TIP3   OH279861   1.597   5.074  15.986 -0.4562  0.2778  0.1460
19457TIP3    H179862   1.548   4.992  15.993  0.7552 -0.3901  1.5263
19457TIP3    H279863   1.681   5.048  15.947  0.3788  0.6154  1.6360
19458TIP3   OH279864   2.675   4.381  16.252 -0.7819  0.9870 -0.1229
19458TIP3    H179865   2.748   4.341  16.204  0.7473  2.6715  0.6771
19458TIP3    H279866   2.614   4.409  16.183  0.6921  2.0860 -1.0445
19459TIP3   OH279867   4.704   4.683   4.814 -0.2151 -0.7379  0.9316
19459TIP3    H179868   4.763   4.647   4.748 -1.6286 -1.0249 -0.2321
19459TIP3    H279869   4.750   4.671   4.897  2.0608  0.5373 -0.0488
19460TIP3   OH279870   4.284   2.614   1.834 -1.0842  0.3910 -0.4232
19460TIP3    H179871   4.372   2.579   1.821 -0.5798  1.5906 -0.3724
19460TIP3    H279872   4.242   2.552   1.894 -0.2136 -0.0917 -0.2963
19461TIP3   OH279873   4.998   1.321  12.509 -0.2531 -0.4709  0.2064
19461TIP3    H179874   4.942   1.259  12.555 -1.2437  1.3719  1.6367
19461TIP3    H279875   4.970   1.317  12.418 -2.0613 -0.2967  0.7272
19462TIP3   OH279876   4.333   1.177   2.519 -0.3274  0.4120 -0.2502
19462TIP3    H179877   4.309   1.156   2.428  0.3699  0.4182 -0.4370
19462TIP3    H279878   4.312   1.098   2.568  0.7043 -0.1411 -0.6699
19463TIP3   OH279879   6.090   4.799  13.683 -0.1757  0.0325  0.3849
19463TIP3    H179880   6.019   4.774  13.741  1.0664  0.2454  2.0620
19463TIP3    H279881   6.140   4.865  13.732  0.9278  0.2174 -0.9163
19464TIP3   OH279882   3.064   5.478   5.591  0.1449  0.6043  0.4138
19464TIP3    H179883   3.002   5.531   5.540  1.0388  2.8376  1.5218
19464TIP3    H279884   3.147   5.487   5.545  0.2191 -0.2056  0.3810
19465TIP3   OH279885   6.843   2.654  10.499  0.3634  0.6598 -0.0741
19465TIP3    H179886   6.922   2.601  10.494  0.2471  0.6132 -1.8460
19465TIP3    H279887   6.834   2.674  10.592  0.6597 -2.0048  0.5951
19466TIP3   OH279888   4.330   2.127  13.073 -0.4332 -0.5030 -0.2056
19466TIP3    H179889   4.255   2.095  13.022 -0.3705 -0.3327 -0.4053
19466TIP3    H279890   4.374   2.189  13.015 -0.0054 -0.7673 -0.1678
19467TIP3   OH279891   2.630   4.325  16.522  1.1983 -0.0077  0.1247
19467TIP3    H179892   2.644   4.352  16.431  3.0349  0.6814  0.5473
19467TIP3    H279893   2.598   4.404  16.566 -1.1270 -0.7283 -0.1757
19468TIP3   OH279894   2.277   6.718  10.708  0.2666  0.2713 -0.0716
19468TIP3    H179895   2.250   6.725  10.800  3.0100  0.7433  0.8030
19468TIP3    H279896   2.198   6.690  10.662 -1.3859  0.6574  2.3072
19469TIP3   OH279897   0.384   5.143   2.571  0.3583 -0.3749  1.2330
19469TIP3    H179898   0.475   5.114   2.562  0.3340 -0.0110 -0.6089
19469TIP3    H279899   0.333   5.078   2.522  0.2765  2.3188 -2.7866
19470TIP3   OH279900   1.377   1.654   0.003  0.3790 -0.3349  0.4422
19470TIP3    H179901   1.429   1.575   0.020 -0.8268 -1.2762 -0.1274
19470TIP3    H279902   1.347   1.682   0.089  0.0305 -1.0476  0.5565
19471TIP3   OH279903   3.960   3.428  11.522 -0.7696 -0.2801 -0.2059
19471TIP3    H179904   3.981   3.475  11.441 -0.9602 -0.8896 -0.6152
19471TIP3    H279905   3.914   3.493  11.576  2.7641  1.4227  1.1079
19472TIP3   OH279906   3.530   1.356   1.751 -0.1504  0.0495 -0.5390
19472TIP3    H179907   3.448   1.353   1.801  1.0141  0.0531  1.4796
19472TIP3    H279908   3.591   1.303   1.803  1.1174 -0.0315 -2.0474
19473TIP3   OH279909   5.250   5.333   0.140 -0.0662  0.0555  0.5034
19473TIP3    H179910   5.273   5.243   0.165  1.0371 -0.0131 -0.6349
19473TIP3    H279911   5.210   5.324   0.054 -1.3126  0.5393  1.0146
19474TIP3   OH279912   4.992   2.216  15.582  0.3451  0.0477  0.9889
19474TIP3    H179913   4.929   2.287  15.588 -0.5246 -0.7202  1.0749
19474TIP3    H279914   5.076   2.259  15.565 -0.5765  0.9563 -1.6540
19475TIP3   OH279915   6.468   0.641   3.374 -0.3681 -0.2042  0.1552
19475TIP3    H179916   6.523   0.563   3.369 -0.9627 -0.7779  1.8883
19475TIP3    H279917   6.391   0.618   3.322  0.5650  0.2494 -1.4982
19476TIP3   OH279918   1.987   1.204  13.091  0.4257  0.3468  0.2623
19476TIP3    H179919   1.904   1.249  13.104  0.6084  0.9322 -0.5402
19476TIP3    H279920   1.963   1.120  13.051  0.1227 -0.1003  1.3444
19477TIP3   OH279921   2.604   3.053  16.504 -0.0146  0.0541  0.2937
19477TIP3    H179922   2.652   3.061  16.586  0.0573  1.9441  0.1232
19477TIP3    H279923   2.548   2.976  16.516 -0.8060  0.8789  2.5601
19478TIP3   OH279924   4.966   2.391   3.844 -0.0410 -0.2648 -0.6252
19478TIP3    H179925   4.910   2.463   3.817 -0.3601  1.0683  2.9422
19478TIP3    H279926   5.055   2.427   3.842 -0.2728  0.6511  1.9200
19479TIP3   OH279927   2.690   1.971   2.297  0.0203 -0.3786  0.1408
19479TIP3    H179928   2.639   1.989   2.217  1.2788  1.2591 -0.3478
19479TIP3    H279929   2.761   1.914   2.268 -0.2430 -0.8286  0.3681
19480TIP3   OH279930   5.430   0.411  13.798 -0.4085 -0.2499 -0.0024
19480TIP3    H179931   5.425   0.360  13.716  1.0559  0.5633 -0.6258
19480TIP3    H279932   5.515   0.454  13.794 -0.0341 -0.6812  2.2709
19481TIP3   OH279933   5.319   4.725  13.045  0.2908 -0.1923  0.1507
19481TIP3    H179934   5.370   4.655  13.087  2.2141  1.5546  0.8991
19481TIP3    H279935   5.290   4.780  13.118  0.2842  0.7281 -0.5333
19482TIP3   OH279936   5.489   6.397   6.239 -0.1020 -0.1687 -0.2369
19482TIP3    H179937   5.573   6.357   6.220 -0.7465 -0.6677 -2.2986
19482TIP3    H279938   5.492   6.482   6.195 -1.9293 -1.6708 -3.6607
19483TIP3   OH279939   3.443   0.280  12.226  0.3085 -0.1671 -0.5146
19483TIP3    H179940   3.392   0.359  12.244 -0.5336 -0.6549 -0.6939
19483TIP3    H279941   3.432   0.227  12.305  1.1733  0.0433 -0.2448
19484TIP3   OH279942   6.473   6.155   2.379 -0.1184 -0.3821  0.6471
19484TIP3    H179943   6.547   6.161   2.439 -1.5257 -0.8162  2.5035
19484TIP3    H279944   6.502   6.202   2.301  2.2369 -0.8605  1.1468
19485TIP3   OH279945   5.595   3.061  14.061  0.4941  0.0031 -0.0765
19485TIP3    H179946   5.690   3.060  14.074  0.8590  1.5246 -2.1402
19485TIP3    H279947   5.582   3.114  13.983 -2.1092  0.1188  0.3510
19486TIP3   OH279948   2.434   2.353  10.724 -0.5601  0.2496 -0.1985
19486TIP3    H179949   2.346   2.386  10.707 -1.5442 -2.5727 -0.9541
19486TIP3    H279950   2.426   2.258  10.720  2.4026 -0.1183  0.4192
19487TIP3   OH279951   5.765   1.648   5.231 -0.0395 -0.1434  0.3222
19487TIP3    H179952   5.774   1.577   5.294 -0.0445  0.8792  1.4989
19487TIP3    H279953   5.692   1.622   5.175 -0.1283 -0.9922  0.8291
19488TIP3   OH279954   2.993   5.114  11.983 -0.1726 -0.6233 -0.3178
19488TIP3    H179955   2.969   5.022  11.969  1.5553 -1.0392 -0.8443
19488TIP3    H279956   3.020   5.145  11.897 -0.6542  0.3689 -0.1247
19489TIP3   OH279957   6.292   0.288   3.924 -0.6020 -0.6098 -0.3161
19489TIP3    H179958   6.306   0.323   3.836  0.6783 -1.4078 -0.4479
19489TIP3    H279959   6.334   0.202   3.923  1.1704  0.1516  1.6480
19490TIP3   OH279960   6.266   2.524   1.740 -0.7405  0.1612 -0.2237
19490TIP3    H179961   6.228   2.441   1.769 -0.5129  0.0265 -0.3104
19490TIP3    H279962   6.348   2.531   1.789 -1.0138  0.5906  0.1793
19491TIP3   OH279963   0.560   2.290   0.637 -0.0197 -0.2150 -0.2289
19491TIP3    H179964   0.593   2.204   0.662  0.6164 -0.1976 -0.9498
19491TIP3    H279965   0.624   2.322   0.573 -1.2086  0.0063 -1.3627
19492TIP3   OH279966   6.606   0.905   5.644  0.3043  0.2960 -0.0487
19492TIP3    H179967   6.658   0.851   5.703  0.7390 -0.5543 -1.1759
19492TIP3    H279968   6.529   0.929   5.695  1.1487  0.4434  1.1938
19493TIP3   OH279969   5.865   4.633  15.646 -0.6353 -0.2095 -0.0300
19493TIP3    H179970   5.932   4.687  15.687 -1.1666  0.7814 -0.4292
19493TIP3    H279971   5.813   4.600  15.719  0.8633 -1.8358  0.3625
19494TIP3   OH279972   1.300   5.947   5.314 -0.3743 -0.5855  0.4796
19494TIP3    H179973   1.234   6.011   5.288  1.0032  1.5470  1.8759
19494TIP3    H279974   1.268   5.912   5.397  0.4608  0.9570  1.5143
19495TIP3   OH279975   5.869   2.908   6.049 -0.1852 -0.5502  0.6747
19495TIP3    H179976   5.948   2.856   6.034 -0.1615 -0.1684 -0.6882
19495TIP3    H279977   5.797   2.854   6.017 -0.2210 -0.0224 -0.1904
19496TIP3   OH279978   6.867   3.919   0.696 -0.1625  0.1890 -0.2509
19496TIP3    H179979   6.804   3.934   0.767  1.2005  0.2468  0.9883
19496TIP3    H279980   6.864   4.000   0.644 -0.2995  0.6413  0.4499
19497TIP3   OH279981   6.024   3.039  15.457 -0.6979  0.1157 -0.2775
19497TIP3    H179982   5.963   2.965  15.460  0.8432 -1.3383 -1.8999
19497TIP3    H279983   5.971   3.115  15.478 -2.9951 -1.1059 -1.2605
19498TIP3   OH279984   1.778   4.045   2.771  1.2578  0.0087 -0.2730
19498TIP3    H179985   1.824   4.117   2.815 -0.4384  1.7017 -1.1460
19498TIP3    H279986   1.731   4.000   2.842  3.2213 -1.0463  0.4536
19499TIP3   OH279987   0.143   3.668  15.375 -0.3618 -0.4240 -0.1310
19499TIP3    H179988   0.160   3.575  15.387 -0.7894 -0.4342  0.4787
19499TIP3    H279989   0.105   3.696  15.458  0.2152  0.4052 -0.1355
19500TIP3   OH279990   4.702   5.796   0.510 -0.4511  0.5764 -0.2374
19500TIP3    H179991   4.723   5.707   0.483 -1.5970  0.3879 -0.5704
19500TIP3    H279992   4.749   5.808   0.592  0.4530 -0.0006 -0.6590
19501TIP3   OH279993   6.396   0.459   2.982 -0.1524  0.1761 -0.3221
19501TIP3    H179994   6.350   0.472   3.065 -0.2950 -1.7030 -0.0760
19501TIP3    H279995   6.327   0.434   2.920  0.2392 -0.5358 -0.4793
19502TIP3   OH279996   3.497   3.474  14.273  0.2417  0.6448  0.0138
19502TIP3    H179997   3.541   3.558  14.277  1.1633  0.3174 -2.0370
19502TIP3    H279998   3.414   3.488  14.319 -0.4783  3.2362 -1.8392
19503TIP3   OH279999   5.374   2.402   2.756 -0.0181  0.3977  0.1815
19503TIP3    H180000   5.439   2.332   2.759 -0.8675 -0.4096  0.4132
19503TIP3    H280001   5.425   2.482   2.744  0.9484 -0.3205 -0.7628
19504TIP3   OH280002   6.642   4.550  10.780 -0.3941 -0.0859  0.2839
19504TIP3    H180003   6.726   4.511  10.806  0.6857  2.2391  0.5719
19504TIP3    H280004   6.664   4.605  10.705 -1.6764  0.5536  0.3610
19505TIP3   OH280005   6.540   6.201  13.075 -0.2352  0.3694 -0.3243
19505TIP3    H180006   6.457   6.180  13.034 -0.4882  0.7773 -0.0296
19505TIP3    H280007   6.517   6.235  13.162  0.1675  1.4325 -0.6174
19506TIP3   OH280008   0.112   4.584  11.045  0.4641 -0.6729 -0.1950
19506TIP3    H180009   0.101   4.534  10.965  0.4585 -2.0554  0.6434
19506TIP3    H280010   0.046   4.550  11.105  0.3199  0.4858  0.3443
19507TIP3   OH280011   0.590   5.273  10.184  0.0333 -0.2661  0.8093
19507TIP3    H180012   0.540   5.293  10.263  1.1884  1.1377  1.2136
19507TIP3    H280013   0.524   5.266  10.115 -0.7753  1.2518  1.3880
19508TIP3   OH280014   3.038   6.000   5.438  0.0361 -0.1627  0.3426
19508TIP3    H180015   3.044   6.068   5.505  1.3554 -0.7775  0.8970
19508TIP3    H280016   3.023   6.048   5.356 -1.2023  0.6263  0.9970
19509TIP3   OH280017   5.853   5.436   4.302 -0.1065 -0.4064  0.2052
19509TIP3    H180018   5.885   5.366   4.358  0.2163  0.5590  1.2591
19509TIP3    H280019   5.761   5.415   4.287 -0.0843 -0.9041  0.7376
19510TIP3   OH280020   3.913   3.208  16.325  0.2211  0.1578 -0.1472
19510TIP3    H180021   3.922   3.302  16.338 -1.5226  0.2793  0.3691
19510TIP3    H280022   3.906   3.172  16.413 -0.8413 -0.2551 -0.3927
19511TIP3   OH280023   0.374   5.161  15.602  0.2499 -0.4339  0.6489
19511TIP3    H180024   0.468   5.178  15.601  0.4583 -1.3920 -1.5671
19511TIP3    H280025   0.343   5.202  15.683  2.1842  1.9707  0.2935
19512TIP3   OH280026   3.516   4.279  13.022  0.4214 -0.3617  0.4704
19512TIP3    H180027   3.468   4.313  12.947 -1.0316 -1.3056  0.9298
19512TIP3    H280028   3.459   4.212  13.060  0.8287  0.4963  2.7809
19513TIP3   OH280029   3.599   3.648  12.701 -0.0530  0.0194 -0.0470
19513TIP3    H180030   3.588   3.580  12.767  0.5520  1.4054  1.5386
19513TIP3    H280031   3.633   3.723  12.749  1.1043  0.8605 -2.0598
19514TIP3   OH280032   2.898   3.586   5.309 -0.2855  0.0938 -0.1209
19514TIP3    H180033   2.909   3.510   5.253  0.6291 -0.1724  0.4002
19514TIP3    H280034   2.828   3.562   5.369  1.1208 -1.0254  1.1340
19515TIP3   OH280035   1.995   5.288   3.219  0.0110 -0.5173  0.0254
19515TIP3    H180036   1.929   5.311   3.285 -0.1909  0.3066 -0.4420
19515TIP3    H280037   2.012   5.195   3.233 -0.6242 -0.5397  0.7126
19516TIP3   OH280038   6.172   0.408  10.843 -0.4096 -0.0251 -0.7276
19516TIP3    H180039   6.107   0.387  10.776  0.2823 -1.1973 -1.0583
19516TIP3    H280040   6.190   0.325  10.886 -0.9304  0.7167  1.0400
19517TIP3   OH280041   4.793   0.644   2.184 -0.0033  0.2121 -0.5654
19517TIP3    H180042   4.781   0.693   2.265 -0.5230 -1.5305  0.4644
19517TIP3    H280043   4.790   0.710   2.115 -0.3087  1.6464  0.7732
19518TIP3   OH280044   2.455   1.846   1.380 -0.5753  0.2931 -0.5465
19518TIP3    H180045   2.442   1.941   1.387  0.4981  0.3475  1.5408
19518TIP3    H280046   2.379   1.815   1.331 -2.3637  1.9234  1.0117
19519TIP3   OH280047   6.744   4.816  13.680 -0.1123  0.4843  0.1549
19519TIP3    H180048   6.655   4.811  13.646 -0.4846  0.9881  1.0096
19519TIP3    H280049   6.791   4.869  13.615 -0.2556 -0.3295 -0.6308
19520TIP3   OH280050   5.785   4.702   5.451  0.5656  0.2173 -0.4964
19520TIP3    H180051   5.717   4.769   5.463 -0.2422 -0.4079 -1.4555
19520TIP3    H280052   5.864   4.742   5.488  0.0096  1.5407 -0.6775
19521TIP3   OH280053   4.936   4.533  11.384 -0.3762 -0.2302 -0.1915
19521TIP3    H180054   4.852   4.567  11.415 -0.1988 -1.0080  1.2379
19521TIP3    H280055   5.002   4.587  11.428 -0.0987  0.2928 -1.2067
19522TIP3   OH280056   6.803   6.431   3.623 -0.9373 -0.0095  0.2175
19522TIP3    H180057   6.750   6.505   3.593 -1.9654 -0.4980  0.7836
19522TIP3    H280058   6.805   6.371   3.548 -0.6136  0.3126 -0.0339
19523TIP3   OH280059   0.644   3.472   3.486  0.7338 -0.9086  0.3740
19523TIP3    H180060   0.691   3.555   3.493 -0.7657 -0.0539  0.7182
19523TIP3    H280061   0.593   3.480   3.406 -1.2488 -0.4773  1.6106
19524TIP3   OH280062   0.499   0.497   0.031  0.6779  0.0857 -0.3734
19524TIP3    H180063   0.522   0.584   0.000  0.8948  0.1610  0.0041
19524TIP3    H280064   0.525   0.439  -0.041 -1.2304  0.4879 -1.4622
19525TIP3   OH280065   6.231   2.765  15.917 -0.0008  0.2896  0.4083
19525TIP3    H180066   6.253   2.849  15.878 -2.0301  0.7028  0.0433
19525TIP3    H280067   6.237   2.780  16.012 -1.1427  1.1215  0.3752
19526TIP3   OH280068   0.898   5.644  10.134 -0.3180 -0.3575 -0.6965
19526TIP3    H180069   0.823   5.698  10.159  0.4861 -0.3377  1.9692
19526TIP3    H280070   0.874   5.555  10.159  0.4199 -0.3801 -0.0003
19527TIP3   OH280071   6.646   3.523   0.532 -0.3781 -0.3690  0.0035
19527TIP3    H180072   6.673   3.550   0.620  1.3257 -0.7049 -0.3741
19527TIP3    H280073   6.663   3.428   0.531 -2.0880 -0.6999 -0.1249
19528TIP3   OH280074   3.183   6.547   3.540  0.3672 -0.0706  0.5024
19528TIP3    H180075   3.101   6.517   3.580 -1.1590  1.6542 -1.1489
19528TIP3    H280076   3.205   6.626   3.589 -0.2224  0.7304 -0.5002
19529TIP3   OH280077   1.044   6.265   2.594  0.4956 -0.0564  0.4691
19529TIP3    H180078   0.983   6.191   2.593  0.2803  0.1169 -1.4709
19529TIP3    H280079   1.058   6.282   2.688 -1.1938 -1.1039  0.9650
19530TIP3   OH280080   4.323   0.039  15.013  0.8332 -0.7583  0.0611
19530TIP3    H180081   4.408  -0.003  15.027 -1.0561 -3.9631  3.7136
19530TIP3    H280082   4.262  -0.033  15.000 -1.7294  1.2477  0.0980
19531TIP3   OH280083   6.727   2.256  15.805  0.0621  0.0818 -0.0009
19531TIP3    H180084   6.641   2.290  15.779  0.2522  0.8868  0.3671
19531TIP3    H280085   6.761   2.213  15.727 -0.1248  0.9096 -0.5559
19532TIP3   OH280086   1.049   1.583   0.570 -0.4268 -0.0230 -0.2824
19532TIP3    H180087   1.113   1.522   0.606 -0.5775 -1.1446 -1.7977
19532TIP3    H280088   1.009   1.625   0.647  0.6171 -0.8518  0.7452
19533TIP3   OH280089   5.570   3.628   3.906 -0.3994  0.0283 -0.1569
19533TIP3    H180090   5.656   3.595   3.879 -0.3958  0.3615 -0.5591
19533TIP3    H280091   5.589   3.688   3.979 -0.2864  0.1374 -0.2760
19534TIP3   OH280092   4.808   1.247  12.869  0.2203 -0.2833  0.7209
19534TIP3    H180093   4.753   1.173  12.844 -0.2676 -0.4697  2.2140
19534TIP3    H280094   4.761   1.324  12.837 -0.1159 -0.5264  0.6250
19535TIP3   OH280095   2.266   1.841  15.936  0.1169  0.1538 -0.1168
19535TIP3    H180096   2.203   1.909  15.962  0.5095  0.3643  0.2885
19535TIP3    H280097   2.216   1.785  15.876 -0.7330 -0.1991  0.8834
19536TIP3   OH280098   6.643   4.053   2.243 -0.0259 -0.2745 -0.3768
19536TIP3    H180099   6.597   4.082   2.164  1.6372  0.8708 -0.9750
19536TIP3    H280100   6.647   4.131   2.298  3.3757  0.4307 -1.4437
19537TIP3   OH280101   6.679   5.791  12.838  0.2247 -0.4569 -0.0110
19537TIP3    H180102   6.707   5.830  12.921  0.5636  0.8449 -0.7113
19537TIP3    H280103   6.600   5.839  12.814  0.5472 -0.3124 -0.8128
19538TIP3   OH280104   5.776   6.630  13.691  0.1897 -0.3102  0.6228
19538TIP3    H180105   5.801   6.635  13.783 -0.3335  1.3341  0.6939
19538TIP3    H280106   5.859   6.642  13.644  0.2432  0.4120  0.8839
19539TIP3   OH280107   4.009   0.406   3.414  0.2184 -0.2560  0.0751
19539TIP3    H180108   3.921   0.369   3.400 -0.8753  2.1575  0.0633
19539TIP3    H280109   4.061   0.372   3.341 -0.9134 -1.0676 -0.3908
19540TIP3   OH280110   6.001   6.221  11.306 -0.0795 -0.4979 -0.4676
19540TIP3    H180111   6.031   6.204  11.217 -0.0946 -1.0224 -0.3725
19540TIP3    H280112   5.921   6.170  11.315 -0.8763  0.6758 -0.6294
19541TIP3   OH280113   3.398   3.981   5.138 -1.0518 -0.7892  0.8214
19541TIP3    H180114   3.346   3.971   5.059 -1.8957  0.5351  1.1803
19541TIP3    H280115   3.354   3.926   5.203 -1.8142  0.0376  1.0221
19542TIP3   OH280116   1.848   2.871  10.032  0.3772 -0.6196 -0.2860
19542TIP3    H180117   1.789   2.946  10.024  0.2861 -0.2386  2.8775
19542TIP3    H280118   1.791   2.795  10.029  0.1037 -0.4117 -0.3583
19543TIP3   OH280119   0.486   1.226  14.569 -0.0824 -0.1967  0.1742
19543TIP3    H180120   0.488   1.307  14.619 -0.7195 -0.2755  0.3365
19543TIP3    H280121   0.411   1.178  14.604  0.8398 -1.2821  0.7375
19544TIP3   OH280122   4.445   2.067  14.434 -0.4675 -0.8018  0.3537
19544TIP3    H180123   4.375   2.073  14.370  0.6369  1.6483 -0.7551
19544TIP3    H280124   4.517   2.023  14.389 -0.6548 -1.7244  0.9174
19545TIP3   OH280125   0.781   1.586   3.274 -0.1825  0.3042  0.5771
19545TIP3    H180126   0.820   1.549   3.196  1.2169  2.3470  0.2150
19545TIP3    H280127   0.840   1.561   3.345 -0.8072 -0.5515  0.8053
19546TIP3   OH280128   4.192   0.852   1.894  0.3572 -0.3764  0.2308
19546TIP3    H180129   4.118   0.793   1.910  0.2634 -0.4682 -0.5008
19546TIP3    H280130   4.269   0.797   1.905  0.2983 -0.4195  0.4325
19547TIP3   OH280131   2.672   4.603   4.322  0.1815  0.1214  0.2313
19547TIP3    H180132   2.583   4.584   4.292  0.2561 -2.1139  1.2024
19547TIP3    H280133   2.668   4.593   4.417  1.3863  0.4084  0.3223
19548TIP3   OH280134   1.524   3.537   3.563  0.3432  0.2134 -0.4204
19548TIP3    H180135   1.488   3.448   3.569  1.1318 -0.0400  2.4604
19548TIP3    H280136   1.448   3.593   3.546 -0.8107 -0.7011  1.4013
19549TIP3   OH280137   5.665   4.371  12.880  0.2498 -0.3877 -0.2195
19549TIP3    H180138   5.643   4.287  12.920  1.3883 -0.6329 -0.0710
19549TIP3    H280139   5.678   4.430  12.954 -1.9703  0.3359 -0.3406
19550TIP3   OH280140   6.166   5.788  11.729  0.3565  0.3277  0.4523
19550TIP3    H180141   6.171   5.702  11.772  0.9940 -0.9381 -1.9513
19550TIP3    H280142   6.078   5.790  11.691  0.6809  0.2750 -0.3259
19551TIP3   OH280143   2.909   5.784   4.669 -0.3005 -0.2404  0.3024
19551TIP3    H180144   2.904   5.689   4.665  0.8498 -0.4510  2.3289
19551TIP3    H280145   2.933   5.811   4.581  2.8440 -2.1437  0.4122
19552TIP3   OH280146   0.403   6.672   0.259 -0.0470  0.0858 -0.2233
19552TIP3    H180147   0.308   6.672   0.249 -0.6084 -0.7929  3.5474
19552TIP3    H280148   0.431   6.585   0.231 -0.6577 -0.3017  0.3434
19553TIP3   OH280149   1.970   5.364   4.524 -0.0417  0.2536 -0.3577
19553TIP3    H180150   1.918   5.311   4.463  0.2407  0.9430 -1.2134
19553TIP3    H280151   2.047   5.390   4.474 -0.3393  1.7674 -0.0632
19554TIP3   OH280152   2.938   5.749   3.351 -0.5141 -0.0937  0.0517
19554TIP3    H180153   2.872   5.700   3.302 -0.5110 -0.9505  0.8771
19554TIP3    H280154   3.017   5.696   3.346  0.4174  1.3581 -1.6918
19555TIP3   OH280155   4.771   5.238  14.597 -0.2066 -0.6036  0.3481
19555TIP3    H180156   4.745   5.196  14.678 -0.5669 -1.8078 -0.3714
19555TIP3    H280157   4.738   5.327  14.604  0.8759 -0.2942  2.0521
19556TIP3   OH280158   4.283   6.461   0.085 -0.1721  0.3322 -0.1655
19556TIP3    H180159   4.241   6.434   0.004  0.3726 -1.0865 -0.0128
19556TIP3    H280160   4.360   6.510   0.057 -0.3943  0.5050 -0.4825
19557TIP3   OH280161   4.778   2.363  15.277  0.0106  0.1521 -0.4258
19557TIP3    H180162   4.774   2.419  15.199  2.3886 -0.7407 -1.2712
19557TIP3    H280163   4.868   2.332  15.280 -0.3858 -0.9849  1.9124
19558TIP3   OH280164   4.353   0.145   3.660  0.3714 -0.2980  0.2368
19558TIP3    H180165   4.325   0.175   3.746 -2.3678  2.2882 -1.3612
19558TIP3    H280166   4.359   0.225   3.607  0.0373 -1.9177 -2.4647
19559TIP3   OH280167   2.964   4.467   0.840 -0.1128  0.0389  0.1501
19559TIP3    H180168   3.011   4.384   0.851  0.3055  0.2804  0.1983
19559TIP3    H280169   2.942   4.469   0.747 -1.8743 -1.0488  0.4913
19560TIP3   OH280170   5.555   6.889  15.062  0.0853  0.3464 -0.0998
19560TIP3    H180171   5.483   6.889  14.999 -0.1935  0.4709  0.2147
19560TIP3    H280172   5.632   6.912  15.011 -0.3423  1.6924 -0.1776
19561TIP3   OH280173   0.960   4.074  11.017  0.4131 -0.3551  0.0275
19561TIP3    H180174   0.886   4.112  10.969  1.1339  1.6391  0.3697
19561TIP3    H280175   1.007   4.022  10.952  0.0017  0.2757 -0.7962
19562TIP3   OH280176   5.919   4.930  14.614 -0.2131  0.3159 -0.5456
19562TIP3    H180177   5.844   4.871  14.612  0.9636 -1.2404 -0.7657
19562TIP3    H280178   5.960   4.915  14.699 -1.0777  2.4261  0.3070
19563TIP3   OH280179   4.020   5.976   0.291  0.3116  0.3895  0.2774
19563TIP3    H180180   3.998   5.926   0.212  0.9311 -0.2450  0.4975
19563TIP3    H280181   4.099   6.024   0.267 -0.1206  1.0424  0.1612
19564TIP3   OH280182   4.361   2.209   1.532 -0.0039  0.0774  0.2220
19564TIP3    H180183   4.411   2.140   1.487  0.6753  0.4763  0.3633
19564TIP3    H280184   4.338   2.270   1.462 -0.2194 -0.0569  0.1735
19565TIP3   OH280185   5.232   0.518  12.771 -0.0393  0.4616 -0.0752
19565TIP3    H180186   5.304   0.466  12.805  0.0995  1.4426  1.2112
19565TIP3    H280187   5.253   0.531  12.679  1.1557  0.2968  0.1589
19566TIP3   OH280188   2.254   2.972  10.905  0.2211 -0.1728 -0.1558
19566TIP3    H180189   2.285   2.953  10.817 -1.0858  0.3101 -0.7310
19566TIP3    H280190   2.335   2.976  10.958  0.9250 -1.8717 -1.0140
19567TIP3   OH280191   0.401   0.603   1.471  0.3127 -0.2042  0.0238
19567TIP3    H180192   0.350   0.588   1.392  0.6052 -0.3047 -0.1466
19567TIP3    H280193   0.439   0.518   1.492  2.1560  0.2814 -1.0788
19568TIP3   OH280194   6.213   6.839  13.769 -0.0856  0.1799 -0.1590
19568TIP3    H180195   6.201   6.849  13.675  0.0365  0.5349 -0.1352
19568TIP3    H280196   6.124   6.825  13.803  0.0705 -2.6737 -0.6357
19569TIP3   OH280197   2.262   1.948   5.930  0.4039 -0.2063  0.2056
19569TIP3    H180198   2.357   1.939   5.937  0.6484  1.0164 -1.1982
19569TIP3    H280199   2.244   2.037   5.961 -0.3882 -0.6886  1.1775
19570TIP3   OH280200   4.443   1.327  11.502 -0.8327 -0.5352 -0.2510
19570TIP3    H180201   4.455   1.237  11.530 -0.2334 -0.2530  0.4076
19570TIP3    H280202   4.481   1.380  11.571 -2.8889  0.3074  0.3155
19571TIP3   OH280203   6.598   5.483  14.696  0.4685 -0.2212  0.5788
19571TIP3    H180204   6.690   5.511  14.702  0.7275 -1.2028  1.5233
19571TIP3    H280205   6.557   5.522  14.773  0.3050 -0.5381  0.6522
19572TIP3   OH280206   5.696   2.835   3.443  0.1828 -0.2262 -0.2615
19572TIP3    H180207   5.723   2.921   3.475 -0.4806 -0.7846  2.0238
19572TIP3    H280208   5.769   2.777   3.464  0.6906 -0.2315 -1.9260
19573TIP3   OH280209   2.428   4.800   0.730  0.1191 -0.3346 -0.0967
19573TIP3    H180210   2.415   4.784   0.823  0.6229 -0.9625 -0.1243
19573TIP3    H280211   2.356   4.857   0.705  0.8273  1.0948  0.9895
19574TIP3   OH280212   5.823   2.304   4.445  0.0588  0.1385  0.1001
19574TIP3    H180213   5.870   2.234   4.400 -0.6162 -0.8916  0.9506
19574TIP3    H280214   5.821   2.376   4.381  0.6632 -0.6452 -0.8369
19575TIP3   OH280215   3.427   3.967   2.354 -0.1391  0.7870 -0.6738
19575TIP3    H180216   3.477   4.049   2.365 -0.6592  1.0571 -0.2768
19575TIP3    H280217   3.350   3.979   2.410  1.9680 -1.8346  3.2921
19576TIP3   OH280218   0.850   0.348   0.753  0.9134 -0.0078  0.0466
19576TIP3    H180219   0.773   0.368   0.806  0.2420  0.5641 -1.0970
19576TIP3    H280220   0.921   0.396   0.795  0.2469  1.0321  0.0400
19577TIP3   OH280221   6.457   0.894   2.140  0.1532 -0.1015  0.0430
19577TIP3    H180222   6.404   0.883   2.220  0.0343  1.1912  0.1569
19577TIP3    H280223   6.536   0.938   2.170 -1.4735  3.9938 -0.9905
19578TIP3   OH280224   4.440   3.321   5.464  0.0898  0.5682 -0.6233
19578TIP3    H180225   4.528   3.314   5.501 -0.4892  0.1098  0.7191
19578TIP3    H280226   4.395   3.384   5.521 -0.6909  0.1830 -0.8007
19579TIP3   OH280227   4.570   5.243  11.383 -0.0632 -0.3618 -0.1735
19579TIP3    H180228   4.635   5.215  11.447  0.3334  2.9341  1.0869
19579TIP3    H280229   4.487   5.238  11.429 -0.0711 -0.1303 -0.1609
19580TIP3   OH280230   3.471   4.057  15.692  0.6822 -0.9730  0.7393
19580TIP3    H180231   3.375   4.060  15.697  0.6004 -0.6474 -0.6454
19580TIP3    H280232   3.491   3.963  15.692  0.2174 -1.1028 -0.8334
19581TIP3   OH280233   4.565   6.838   5.548 -0.1257  0.0542 -0.4147
19581TIP3    H180234   4.614   6.898   5.603 -2.3862 -0.2730  2.1934
19581TIP3    H280235   4.574   6.753   5.591 -2.4441 -0.1078 -0.0984
19582TIP3   OH280236   5.570   1.275   3.032  0.9117  0.3107 -0.3783
19582TIP3    H180237   5.533   1.193   3.065  3.2484 -0.0271  1.7315
19582TIP3    H280238   5.598   1.255   2.943  1.5425 -1.2565  0.1395
19583TIP3   OH280239   0.567   5.102   2.206  0.0503  0.7267 -0.1716
19583TIP3    H180240   0.541   5.042   2.136 -1.6757  1.3501 -0.1062
19583TIP3    H280241   0.559   5.049   2.286 -0.8713  0.8517 -0.1731
19584TIP3   OH280242   6.427   2.107   2.061  0.1510  0.1595  0.0452
19584TIP3    H180243   6.404   2.115   2.153 -2.9478  2.1498 -0.7408
19584TIP3    H280244   6.469   2.191   2.040 -2.7417  1.4551 -1.0952
19585TIP3   OH280245   4.308   3.974  15.149  0.3341 -0.1685 -0.3624
19585TIP3    H180246   4.239   4.011  15.203  1.0297 -0.4178  0.7159
19585TIP3    H280247   4.354   3.913  15.206  0.8394 -0.7351 -1.3496
19586TIP3   OH280248   0.567   5.124   0.140  0.5097 -0.0953 -0.5043
19586TIP3    H180249   0.626   5.198   0.123  2.3700 -0.8999  1.8791
19586TIP3    H280250   0.612   5.049   0.100 -0.0561 -0.3593 -0.6451
19587TIP3   OH280251   2.634   4.458   4.868  0.6123 -0.2292  0.5470
19587TIP3    H180252   2.565   4.507   4.913  1.1114 -0.3737  1.4999
19587TIP3    H280253   2.590   4.418   4.793 -0.2086  0.1622  0.8084
19588TIP3   OH280254   5.788   5.743  15.005 -0.1176  0.0949  0.3734
19588TIP3    H180255   5.696   5.715  15.008 -0.2480  0.3168 -0.8502
19588TIP3    H280256   5.792   5.799  14.927  1.1120 -0.1180  0.2759
19589TIP3   OH280257   0.545   6.060   3.408  0.2615  0.8636  0.6122
19589TIP3    H180258   0.494   6.030   3.483  0.7446 -0.2683  0.5083
19589TIP3    H280259   0.631   6.020   3.420 -0.3698 -1.4726 -1.8398
19590TIP3   OH280260   4.549   5.669  16.517  0.0103 -0.1984  0.5676
19590TIP3    H180261   4.597   5.716  16.586 -0.5035  0.7365  0.3120
19590TIP3    H280262   4.604   5.679  16.439 -0.6752  1.1092  0.2087
19591TIP3   OH280263   4.990   3.180   1.436 -0.2019  0.5954  0.7991
19591TIP3    H180264   5.051   3.246   1.467  0.8799 -0.6330  1.3836
19591TIP3    H280265   5.014   3.101   1.484 -1.3476 -0.2707 -0.0012
19592TIP3   OH280266   0.370   4.461   1.441 -0.5159 -0.1857  0.3561
19592TIP3    H180267   0.315   4.539   1.446  0.5505  0.6418 -0.2710
19592TIP3    H280268   0.401   4.459   1.350 -1.4125 -1.9924  0.0521
19593TIP3   OH280269   3.549   2.147   0.886  0.2974 -0.2588 -0.1547
19593TIP3    H180270   3.583   2.189   0.807  0.1565 -0.5008 -0.3467
19593TIP3    H280271   3.626   2.106   0.926  0.5589  0.7453  0.3987
19594TIP3   OH280272   0.454   1.798   1.480  0.0114  0.4578  0.2494
19594TIP3    H180273   0.535   1.843   1.455  0.3056  0.1312  0.6045
19594TIP3    H280274   0.388   1.867   1.481  0.2805  0.7246 -0.0540
19595TIP3   OH280275   6.284   5.176   1.014 -0.2385  0.7554 -1.0376
19595TIP3    H180276   6.244   5.161   1.100 -0.1597  1.6184 -0.8384
19595TIP3    H280277   6.335   5.096   0.998 -0.4160  0.4959 -0.3767
19596TIP3   OH280278   6.608   6.227  16.449 -0.5511  0.0101 -0.4215
19596TIP3    H180279   6.594   6.319  16.471 -1.2506 -0.5100  1.5045
19596TIP3    H280280   6.524   6.185  16.467 -0.2358 -1.0124 -1.2628
19597TIP3   OH280281   2.889   0.003   4.449  0.1038  0.0738 -0.2186
19597TIP3    H180282   2.917  -0.088   4.465  1.2231 -0.1116 -2.8094
19597TIP3    H280283   2.952   0.037   4.386 -1.7563  1.8407 -1.2558
19598TIP3   OH280284   5.616   2.296  14.714  0.0204 -0.0412  0.3337
19598TIP3    H180285   5.635   2.385  14.683 -0.8319 -0.1311 -0.4724
19598TIP3    H280286   5.657   2.239  14.649  0.9045 -0.2709  1.0517
19599TIP3   OH280287   1.507   2.189   3.645 -0.0498  0.3344 -0.1499
19599TIP3    H180288   1.439   2.143   3.696  0.0770 -0.4101 -0.6271
19599TIP3    H280289   1.515   2.274   3.687 -1.2037  0.3943 -0.0114
19600TIP3   OH280290   0.583   4.198  15.174 -0.1017  0.0813  0.4508
19600TIP3    H180291   0.636   4.233  15.102 -0.0684 -1.2099 -0.1795
19600TIP3    H280292   0.595   4.103  15.169 -0.8490 -0.0967  1.5851
19601TIP3   OH280293   0.146   2.934  13.482 -0.0288  0.1068 -0.2789
19601TIP3    H180294   0.168   2.920  13.390 -0.7443  0.3547 -0.4965
19601TIP3    H280295   0.076   2.871  13.499  1.8970 -1.8504  0.8596
19602TIP3   OH280296   1.965   1.430  13.517  0.3756 -0.8079 -0.3679
19602TIP3    H180297   1.986   1.523  13.510 -1.6095 -0.2711  0.2243
19602TIP3    H280298   2.043   1.391  13.555  0.9720  0.7517  0.0909
19603TIP3   OH280299   5.102   0.008   4.854 -0.3306  0.4087 -0.3002
19603TIP3    H180300   5.042  -0.064   4.837 -0.2736  0.7900 -2.3629
19603TIP3    H280301   5.052   0.087   4.831 -0.0445  0.9656  0.9104
19604TIP3   OH280302   3.012   3.316  16.227 -0.9132 -0.4972 -0.6957
19604TIP3    H180303   2.931   3.362  16.203 -0.2615  1.4282  0.5364
19604TIP3    H280304   2.984   3.250  16.290 -1.6322 -0.4586 -0.9649
19605TIP3   OH280305   2.304   1.504   4.354 -0.9479 -0.2155  0.4037
19605TIP3    H180306   2.216   1.518   4.318 -0.8394  0.0842  0.2544
19605TIP3    H280307   2.288   1.476   4.444 -1.1539  3.5144  1.6897
19606TIP3   OH280308   2.913   6.146   6.561  0.3735  0.3262 -0.0359
19606TIP3    H180309   2.916   6.056   6.593  1.3734  1.1030  2.2451
19606TIP3    H280310   2.947   6.141   6.471 -0.1064 -1.6175 -0.1471
19607TIP3   OH280311   5.287   6.870  14.965  0.3345  0.4627 -0.2287
19607TIP3    H180312   5.220   6.807  14.992  2.4241 -1.9294 -0.1757
19607TIP3    H280313   5.265   6.892  14.875 -1.1441  0.6655  0.1539
19608TIP3   OH280314   3.765   4.759  14.876  0.5799 -0.2893  1.0299
19608TIP3    H180315   3.858   4.773  14.863  0.8654 -2.5348  0.1398
19608TIP3    H280316   3.726   4.765  14.789 -0.2179  1.0723  1.4465
19609TIP3   OH280317   6.468   1.646   3.568 -0.2455 -0.1786  0.0308
19609TIP3    H180318   6.559   1.668   3.588  0.1837 -1.1330 -0.8274
19609TIP3    H280319   6.443   1.708   3.500 -0.3828  0.3516  0.5521
19610TIP3   OH280320   6.656   5.837   3.731 -0.4681 -0.1146 -0.1900
19610TIP3    H180321   6.589   5.852   3.798 -0.7629  1.4379 -0.8061
19610TIP3    H280322   6.718   5.777   3.773 -1.7531 -0.8568  0.7130
19611TIP3   OH280323   2.685   2.555  10.968  0.5120  0.7128  0.3672
19611TIP3    H180324   2.641   2.556  10.883  2.0518 -0.4441 -0.4937
19611TIP3    H280325   2.701   2.462  10.985  1.2138  1.0095  1.3871
19612TIP3   OH280326   4.818   0.988  14.880  0.1041 -0.2256 -0.6469
19612TIP3    H180327   4.770   1.044  14.941 -1.4741 -1.0051 -1.1470
19612TIP3    H280328   4.791   0.899  14.903  0.4989 -0.6111 -1.6367
19613TIP3   OH280329   3.875   6.583   2.910  0.1042  0.3620  0.0004
19613TIP3    H180330   3.879   6.567   3.004  0.3392  1.6585  0.2379
19613TIP3    H280331   3.967   6.599   2.885 -0.0092  0.4756 -0.3499
19614TIP3   OH280332   6.861   3.972  13.689  0.0099 -0.5228  0.4510
19614TIP3    H180333   6.796   4.005  13.751  1.0034  0.1641  1.1493
19614TIP3    H280334   6.840   4.016  13.606  0.6832  1.1504  1.1151
19615TIP3   OH280335   3.626   5.761  14.047 -0.2613  0.5729  0.0935
19615TIP3    H180336   3.717   5.736  14.028 -0.5913  0.6051 -1.7429
19615TIP3    H280337   3.587   5.776  13.961 -1.5125  2.3973  0.9171
19616TIP3   OH280338   6.405   5.066   4.697 -0.6161  0.1791  0.2847
19616TIP3    H180339   6.454   5.148   4.703  1.2328 -0.9404  1.1941
19616TIP3    H280340   6.316   5.094   4.674  0.5922  2.2460 -2.6274
19617TIP3   OH280341   2.684   1.940  11.219 -0.0630  0.0810 -0.2168
19617TIP3    H180342   2.740   2.003  11.173  1.0644  0.0478  1.0642
19617TIP3    H280343   2.685   1.862  11.163 -0.2203  0.6616 -1.0465
19618TIP3   OH280344   2.550   1.422   2.373 -0.7029 -0.2035 -0.8689
19618TIP3    H180345   2.476   1.391   2.321 -2.2895  1.1393  0.4712
19618TIP3    H280346   2.574   1.506   2.333 -2.2869  1.1065  0.7591
19619TIP3   OH280347   2.958   2.902   4.962 -0.2422  0.1671 -0.3546
19619TIP3    H180348   2.985   2.812   4.943 -0.3508 -0.7630  3.0913
19619TIP3    H280349   3.039   2.949   4.980 -0.2820  0.2741 -0.4510
19620TIP3   OH280350   3.101   1.636   5.072  0.6289  0.1657  0.6409
19620TIP3    H180351   3.057   1.658   5.154 -0.0657  0.3570  0.2223
19620TIP3    H280352   3.058   1.556   5.042  1.6570 -0.5522  1.0335
19621TIP3   OH280353   1.784   5.261  11.666 -0.8697  0.1226 -0.4763
19621TIP3    H180354   1.731   5.238  11.743 -1.0163  3.6476  0.6369
19621TIP3    H280355   1.755   5.349  11.642  0.8302  0.0601 -3.1792
19622TIP3   OH280356   3.215   5.098  10.155 -0.1231  0.7204  0.5199
19622TIP3    H180357   3.126   5.131  10.145  0.2579  1.5255 -0.3804
19622TIP3    H280358   3.268   5.154  10.098  0.9382  0.1639  0.9286
19623TIP3   OH280359   6.172   5.603  12.899  0.7816 -0.1337 -0.0262
19623TIP3    H180360   6.218   5.535  12.850  0.1704 -0.0541 -0.7359
19623TIP3    H280361   6.142   5.664  12.832 -1.5550 -0.9106  0.2272
19624TIP3   OH280362   1.049   1.933  15.707 -0.4550  0.6862 -0.0548
19624TIP3    H180363   1.052   1.904  15.615  0.7402 -0.1026  0.2063
19624TIP3    H280364   1.101   2.014  15.708 -0.5012  0.7162 -0.0861
19625TIP3   OH280365   5.823   4.473   3.422 -0.3221  0.4122  0.2197
19625TIP3    H180366   5.863   4.554   3.453 -0.4638  0.0649  1.3659
19625TIP3    H280367   5.778   4.497   3.341  0.2912  1.2968  0.1289
19626TIP3   OH280368   4.550   3.803   4.414 -0.2966 -0.2708  0.2450
19626TIP3    H180369   4.456   3.802   4.431 -0.3890  0.5687 -0.1334
19626TIP3    H280370   4.556   3.812   4.319  0.1409  0.8658  0.3623
19627TIP3   OH280371   0.446   4.302   1.136  0.3696  0.2333  0.2754
19627TIP3    H180372   0.392   4.345   1.070 -0.9605  1.3148  1.9797
19627TIP3    H280373   0.533   4.295   1.095 -1.0126 -1.7793 -2.6191
19628TIP3   OH280374   2.123   4.603   4.250 -0.2821  0.3077  0.9170
19628TIP3    H180375   2.119   4.675   4.314 -0.7709  0.0938  1.1369
19628TIP3    H280376   2.031   4.579   4.237 -0.0867 -0.6685  1.2898
19629TIP3   OH280377   4.524   2.802   2.264 -0.1309  0.2938 -0.1981
19629TIP3    H180378   4.579   2.733   2.225 -2.2664 -0.4647 -2.0965
19629TIP3    H280379   4.440   2.759   2.279 -1.1442  2.1568 -0.2486
19630TIP3   OH280380   6.359   2.812  14.335  0.0938  0.3104 -0.3529
19630TIP3    H180381   6.380   2.904  14.351 -0.3376  0.3102  0.2681
19630TIP3    H280382   6.434   2.777  14.287  1.5276  0.3006  1.7591
19631TIP3   OH280383   4.513   1.280  14.617 -0.1198 -0.0215 -0.4273
19631TIP3    H180384   4.487   1.191  14.592  0.0385  0.3319 -1.9827
19631TIP3    H280385   4.601   1.269  14.654  0.2477 -0.4402 -1.3793
19632TIP3   OH280386   2.587   5.241  16.141  0.4703 -0.0378 -0.0304
19632TIP3    H180387   2.578   5.170  16.077 -1.8430  0.2073 -0.0503
19632TIP3    H280388   2.525   5.218  16.210  1.1393  0.9816  0.9357
19633TIP3   OH280389   5.705   1.267  11.775  0.7415 -0.1123  0.3604
19633TIP3    H180390   5.622   1.303  11.806  1.3379  0.9475  0.7837
19633TIP3    H280391   5.709   1.179  11.813 -0.3961 -0.3687 -0.0759
19634TIP3   OH280392   5.659   6.316  14.378  0.3651  0.5246  0.1422
19634TIP3    H180393   5.664   6.305  14.473  2.2101  0.7045  0.1150
19634TIP3    H280394   5.676   6.229  14.343  0.9662  0.6956 -0.0089
19635TIP3   OH280395   6.131   0.277   0.164  0.3756 -0.1912  0.5762
19635TIP3    H180396   6.195   0.344   0.138 -0.3912  0.6508  0.8168
19635TIP3    H280397   6.070   0.272   0.091  0.6072 -0.8769  0.4185
19636TIP3   OH280398   0.377   5.574  16.615  0.3107 -0.2916 -0.1867
19636TIP3    H180399   0.421   5.646  16.659  0.1326 -1.4163  1.9411
19636TIP3    H280400   0.322   5.616  16.549  1.5104  1.3752 -0.1751
19637TIP3   OH280401   1.372   6.424   5.582 -0.4672  0.0923  0.5735
19637TIP3    H180402   1.288   6.381   5.594 -0.4385  0.4880  2.5546
19637TIP3    H280403   1.433   6.374   5.637 -0.2364  1.9737  2.1601
19638TIP3   OH280404   4.933   1.717  15.432  0.1026 -0.5856  0.0633
19638TIP3    H180405   4.961   1.675  15.351 -0.5863  0.7357 -0.8876
19638TIP3    H280406   4.860   1.773  15.406  1.5534  1.9235  1.0956
19639TIP3   OH280407   2.649   4.013  12.304 -0.0735 -0.4360  0.0575
19639TIP3    H180408   2.742   4.035  12.303 -0.5634  1.8642 -0.2574
19639TIP3    H280409   2.631   3.982  12.215 -0.3196  2.8115 -1.1552
19640TIP3   OH280410   0.948   0.080   2.761  0.0796  0.0979 -0.7676
19640TIP3    H180411   1.003   0.149   2.800 -0.6403  0.2415  0.0276
19640TIP3    H280412   0.867   0.083   2.811 -0.8075  0.1227 -2.1519
19641TIP3   OH280413   3.506   0.276   2.617 -0.4063  0.5183 -0.1892
19641TIP3    H180414   3.561   0.200   2.599  0.4887  0.8433  1.0984
19641TIP3    H280415   3.537   0.343   2.556  1.9789  1.3122  1.7477
19642TIP3   OH280416   3.608   5.091  11.204 -0.2038 -0.3221  0.3771
19642TIP3    H180417   3.692   5.129  11.229 -0.5003 -0.6707  2.0259
19642TIP3    H280418   3.605   5.100  11.108  1.1520  0.8009  0.4070
19643TIP3   OH280419   1.187   6.618   3.674  0.4469 -0.2718  0.3625
19643TIP3    H180420   1.237   6.538   3.657  0.0418 -0.3939 -0.2845
19643TIP3    H280421   1.098   6.596   3.649  0.8617  1.3718 -3.0554
19644TIP3   OH280422   3.471   4.892  16.306 -0.1165 -0.4744 -0.4431
19644TIP3    H180423   3.531   4.959  16.339  0.1476 -0.1501 -1.5508
19644TIP3    H280424   3.393   4.901  16.361 -0.2167  0.9710 -0.7761
19645TIP3   OH280425   1.772   6.528   1.183 -0.5408 -0.3517 -0.1751
19645TIP3    H180426   1.763   6.540   1.089  0.8345 -0.3457 -0.3203
19645TIP3    H280427   1.831   6.597   1.211 -1.4632  0.0616  0.8169
19646TIP3   OH280428   5.702   0.055  12.159  0.1258 -0.5453 -0.6844
19646TIP3    H180429   5.776  -0.001  12.180 -0.2776 -1.2586 -1.1230
19646TIP3    H280430   5.739   0.143  12.154  0.9299 -0.8860 -0.8574
19647TIP3   OH280431   3.190   4.215   4.434  0.2976  0.5055 -0.1040
19647TIP3    H180432   3.236   4.134   4.412 -0.8882 -0.1976 -0.0742
19647TIP3    H280433   3.216   4.233   4.525  0.2831 -0.0451  0.0135
19648TIP3   OH280434   6.800   1.199   1.958  0.4675 -0.1973 -0.2799
19648TIP3    H180435   6.845   1.247   1.889  0.4739 -0.7186 -0.6512
19648TIP3    H280436   6.756   1.266   2.010  1.6104  0.3187  0.0567
19649TIP3   OH280437   0.018   0.721  16.237  0.4723 -0.0660  0.8571
19649TIP3    H180438   0.010   0.741  16.144 -1.6422 -0.6117  0.8660
19649TIP3    H280439   0.096   0.665  16.242  1.1594  0.7175 -0.4342
19650TIP3   OH280440   6.245   0.648  10.938  0.1936  0.6538  0.2462
19650TIP3    H180441   6.226   0.558  10.911  0.5278  0.3600  0.9571
19650TIP3    H280442   6.168   0.698  10.911 -0.5465 -0.0728  0.9488
19651TIP3   OH280443   3.894   2.134   5.336  0.4850 -0.3636  0.5703
19651TIP3    H180444   3.941   2.091   5.408  0.2931 -0.7855  0.4472
19651TIP3    H280445   3.813   2.167   5.376  0.5296 -0.3105  0.6173
19652TIP3   OH280446   3.578   4.186   4.840  0.4533 -0.0561  0.5728
19652TIP3    H180447   3.546   4.159   4.755  0.9938 -1.1653  0.7082
19652TIP3    H280448   3.511   4.247   4.873 -0.0145 -0.0297 -0.4048
19653TIP3   OH280449   3.916   0.738  11.662  0.0589  0.2106 -0.4483
19653TIP3    H180450   3.905   0.795  11.738  2.9356  1.6674 -0.9638
19653TIP3    H280451   4.003   0.761  11.628 -0.0761 -2.1785 -2.6924
19654TIP3   OH280452   6.765   0.316  13.067 -0.4188  0.6165  0.2924
19654TIP3    H180453   6.698   0.278  13.011 -0.7456  0.0977  1.0282
19654TIP3    H280454   6.805   0.384  13.012 -1.9209  1.3410  0.0308
19655TIP3   OH280455   2.733   5.968  15.153  0.2216  0.1329 -0.3354
19655TIP3    H180456   2.705   6.034  15.217  0.9924 -0.0725  0.2305
19655TIP3    H280457   2.811   5.928  15.192  0.1393 -0.6707 -0.9671
19656TIP3   OH280458   2.210   0.594   4.532 -0.0090 -0.7217 -0.4611
19656TIP3    H180459   2.119   0.603   4.560 -0.5201 -2.3008 -1.4232
19656TIP3    H280460   2.247   0.529   4.591 -0.0449 -1.3679 -1.1209
19657TIP3   OH280461   0.191   1.354  14.073 -0.1262 -0.2426 -0.0413
19657TIP3    H180462   0.257   1.352  14.003 -0.1235  1.6485 -0.1588
19657TIP3    H280463   0.240   1.340  14.153  0.2870  0.1635 -0.2169
19658TIP3   OH280464   1.445   0.059  14.716  0.0206  0.2695 -0.3946
19658TIP3    H180465   1.435   0.010  14.797  1.3142  0.8451  0.1471
19658TIP3    H280466   1.482  -0.004  14.654 -0.0059  0.0932 -0.2323
19659TIP3   OH280467   6.195   3.076   5.240 -0.4993 -0.5418  0.0029
19659TIP3    H180468   6.215   3.010   5.307  0.5614 -0.3033 -0.0688
19659TIP3    H280469   6.221   3.159   5.279 -0.9196 -0.2727 -0.2843
19660TIP3   OH280470   3.585   6.625  12.365  0.5667 -0.1656  0.3161
19660TIP3    H180471   3.628   6.545  12.335  0.5224 -0.0091 -0.1608
19660TIP3    H280472   3.507   6.594  12.411  2.1296 -0.5734  2.9151
19661TIP3   OH280473   0.008   3.140   4.666  0.7465 -0.1938 -0.3951
19661TIP3    H180474  -0.014   3.232   4.679 -1.1062 -0.6286 -0.2647
19661TIP3    H280475  -0.072   3.099   4.634  1.6306 -1.7009 -0.8141
19662TIP3   OH280476   5.840   3.468   4.465  0.1025  0.0580  0.6380
19662TIP3    H180477   5.779   3.475   4.538  0.9874  0.3914  1.3737
19662TIP3    H280478   5.795   3.510   4.392 -0.2350  1.0340  1.3733
19663TIP3   OH280479   6.051   3.564  16.526  0.1779 -0.1799  0.0213
19663TIP3    H180480   5.982   3.517  16.574 -0.6576  0.5283 -0.4678
19663TIP3    H280481   6.043   3.533  16.436  1.2853 -0.9733  0.1693
19664TIP3   OH280482   0.923   3.115  16.231  0.0387 -0.4381  0.6001
19664TIP3    H180483   0.981   3.185  16.200 -0.4365 -1.1445 -2.0683
19664TIP3    H280484   0.956   3.036  16.189 -2.3184 -1.0001 -0.3460
19665TIP3   OH280485   2.442   4.958   2.440  0.0814  0.5838  0.1466
19665TIP3    H180486   2.497   5.011   2.384  0.7498 -1.6718 -1.4556
19665TIP3    H280487   2.496   4.941   2.517  1.1225 -0.4062 -0.7674
19666TIP3   OH280488   4.535   2.442   1.354  0.3877 -0.4039 -0.2264
19666TIP3    H180489   4.474   2.473   1.422  0.2142 -0.8793 -0.1616
19666TIP3    H280490   4.550   2.519   1.299 -0.4711 -0.3386 -0.3909
19667TIP3   OH280491   3.394   4.462   1.462 -0.2444  0.2840  0.2306
19667TIP3    H180492   3.359   4.376   1.436 -0.4850  0.6649 -0.7466
19667TIP3    H280493   3.465   4.478   1.399 -0.9731  1.3220 -0.3463
19668TIP3   OH280494   3.758   0.391  12.711 -0.1649 -0.3220  0.6434
19668TIP3    H180495   3.822   0.459  12.733  0.5083  0.1826 -2.4378
19668TIP3    H280496   3.796   0.310  12.746  0.4773  0.4387  1.7737
19669TIP3   OH280497   6.068   5.788  12.750 -0.3470  0.0447 -0.1239
19669TIP3    H180498   6.117   5.870  12.749 -2.0691  1.1329 -0.1170
19669TIP3    H280499   5.977   5.815  12.762 -1.0279 -1.8498 -0.6671
19670TIP3   OH280500   3.677   1.764  11.257 -0.0206 -0.0287  0.1623
19670TIP3    H180501   3.671   1.749  11.163 -1.1699  0.0815  0.2018
19670TIP3    H280502   3.610   1.706  11.294 -0.5171  0.9273  0.7948
19671TIP3   OH280503   6.078   1.735   5.498  0.8014 -0.5475 -0.0535
19671TIP3    H180504   6.025   1.771   5.427 -1.9776 -0.7939  1.7693
19671TIP3    H280505   6.136   1.672   5.454 -2.5067 -2.5751 -1.9109
19672TIP3   OH280506   2.219   5.632   9.764 -0.0099 -0.2994  0.0830
19672TIP3    H180507   2.228   5.688   9.842 -1.0489 -0.8404  0.6263
19672TIP3    H280508   2.124   5.629   9.749  0.1599 -0.4899 -1.0001
19673TIP3   OH280509   3.494   6.482  12.103 -0.0390  0.3042  0.0234
19673TIP3    H180510   3.537   6.396  12.100  0.5122  0.5918 -0.7778
19673TIP3    H280511   3.540   6.534  12.037 -0.1254  1.3391  0.7502
19674TIP3   OH280512   2.039   0.061  14.804 -0.5451  0.4568 -0.0509
19674TIP3    H180513   1.972  -0.004  14.825 -0.5469  0.5369  0.2029
19674TIP3    H280514   2.072   0.089  14.890  2.3688 -2.1907 -0.1300
19675TIP3   OH280515   1.063   0.961   6.232 -0.2925 -0.4429  0.2141
19675TIP3    H180516   1.129   0.920   6.175 -0.5273  0.6809 -0.9129
19675TIP3    H280517   1.108   1.034   6.274 -0.5982 -0.1511  0.0455
19676TIP3   OH280518   6.019   3.879   4.864  0.8637 -0.6223 -0.7041
19676TIP3    H180519   5.985   3.800   4.822  0.8639 -0.0411 -1.8573
19676TIP3    H280520   6.108   3.887   4.831  1.0673 -0.4569 -0.1254
19677TIP3   OH280521   0.619   4.880  13.037  0.9484  0.2661 -0.4277
19677TIP3    H180522   0.572   4.814  13.088  0.1646  0.9231 -0.2755
19677TIP3    H280523   0.679   4.921  13.100  0.7788  0.3169 -0.2996
19678TIP3   OH280524   2.299   0.434  12.873  0.2055  0.4826  0.6431
19678TIP3    H180525   2.297   0.521  12.834  0.0961  0.1297 -0.1595
19678TIP3    H280526   2.211   0.399  12.861  0.5331 -0.1505 -0.0229
19679TIP3   OH280527   2.389   1.215  12.941  0.0848 -0.4343 -0.1533
19679TIP3    H180528   2.369   1.304  12.968  0.5599 -0.5905  0.7582
19679TIP3    H280529   2.314   1.163  12.968  0.2717 -0.4824  0.2743
19680TIP3   OH280530   5.620   3.757   3.668  0.3458  0.5085 -0.2553
19680TIP3    H180531   5.598   3.767   3.760  0.1553  0.9178 -0.3454
19680TIP3    H280532   5.715   3.744   3.667  0.1058 -1.7167  0.1703
19681TIP3   OH280533   2.837   3.935  15.442 -0.5862  0.1731 -0.2596
19681TIP3    H180534   2.768   3.980  15.491 -0.5107 -0.8851  0.8432
19681TIP3    H280535   2.918   3.980  15.466 -0.1865 -1.8535  2.6108
19682TIP3   OH280536   1.597   6.620   2.497  0.3821  0.2113  0.0341
19682TIP3    H180537   1.673   6.582   2.542  1.6972  2.4492 -0.1238
19682TIP3    H280538   1.521   6.577   2.537  1.6792 -2.3793 -0.0334
19683TIP3   OH280539   5.840   1.826  16.856 -0.1065  0.0569  0.1104
19683TIP3    H180540   5.786   1.903  16.838 -0.7951 -0.3359  0.4762
19683TIP3    H280541   5.877   1.802  16.771 -0.6811  0.1943 -0.1783
19684TIP3   OH280542   4.129   5.958   0.862  0.3042  0.2252  0.3259
19684TIP3    H180543   4.093   6.002   0.939  1.0725 -0.4779  1.1085
19684TIP3    H280544   4.146   6.029   0.799 -1.0452  0.7187  0.4901
19685TIP3   OH280545   2.443   4.309  15.519 -1.1442  0.3347  0.6359
19685TIP3    H180546   2.466   4.328  15.428 -0.3813 -1.5416  0.3893
19685TIP3    H280547   2.354   4.274  15.515 -0.6019 -1.1235  0.3631
19686TIP3   OH280548   6.044   5.287   1.182  0.5531 -0.0845  0.3219
19686TIP3    H180549   6.093   5.369   1.173  0.0914  0.0487 -1.4599
19686TIP3    H280550   5.955   5.314   1.206  0.4762 -0.0665  0.0280
19687TIP3   OH280551   0.055   5.561   2.553  0.2506 -0.2584  0.5692
19687TIP3    H180552   0.081   5.651   2.533  0.2358 -0.2115  0.7627
19687TIP3    H280553   0.138   5.514   2.564  0.2527  0.0074  1.7057
19688TIP3   OH280554   1.218   5.116  11.279  0.1073 -0.5670  0.1060
19688TIP3    H180555   1.285   5.150  11.220  1.2248 -1.0452  1.0496
19688TIP3    H280556   1.191   5.192  11.331 -0.2473 -0.3312 -0.4149
19689TIP3   OH280557   6.824   2.256  12.414  0.2992  0.1927  0.4841
19689TIP3    H180558   6.810   2.199  12.489  1.5552  0.3273  0.8510
19689TIP3    H280559   6.913   2.235  12.385 -0.4989 -0.5770 -1.6090
19690TIP3   OH280560   2.797   1.304  12.288  0.3433 -0.2944 -0.2922
19690TIP3    H180561   2.879   1.286  12.241 -0.1333 -1.9265 -0.5277
19690TIP3    H280562   2.730   1.305  12.220 -0.0826 -0.7354  0.1220
19691TIP3   OH280563   6.043   6.176  10.668 -0.1376  0.2268 -0.1494
19691TIP3    H180564   6.120   6.198  10.615  0.7046  1.7660  1.5916
19691TIP3    H280565   6.073   6.106  10.725  0.4476  1.6361  1.3743
19692TIP3   OH280566   4.071   2.125  12.907  0.0029  0.4545  0.2807
19692TIP3    H180567   4.009   2.053  12.922 -0.5093 -0.0326 -3.2687
19692TIP3    H280568   4.017   2.204  12.914 -0.5254  0.1719 -0.4713
19693TIP3   OH280569   5.460   4.425   1.191 -0.4225 -0.6134 -0.3040
19693TIP3    H180570   5.412   4.502   1.163 -1.0040 -1.0983 -0.6715
19693TIP3    H280571   5.439   4.415   1.283  2.6565  1.8486  0.8519
19694TIP3   OH280572   0.339   2.484   0.556 -0.4062 -0.5940 -0.0410
19694TIP3    H180573   0.283   2.505   0.631 -0.9815 -3.2733  0.3698
19694TIP3    H280574   0.322   2.392   0.538  2.6278 -1.0664 -1.0108
19695TIP3   OH280575   0.258   4.069  16.119  0.1855 -0.7878  0.0779
19695TIP3    H180576   0.211   4.102  16.195 -0.3817 -1.8129  0.1944
19695TIP3    H280577   0.197   4.007  16.078  0.6199 -0.5264 -1.0001
19696TIP3   OH280578   6.343   0.144  10.826 -0.2983 -0.3419  0.1077
19696TIP3    H180579   6.413   0.125  10.888 -0.3433  0.1171  0.3004
19696TIP3    H280580   6.268   0.094  10.858 -0.6713  0.8299  1.1173
19697TIP3   OH280581   5.239   5.367   2.012 -0.3352 -0.0725  0.1543
19697TIP3    H180582   5.311   5.304   2.003 -1.8595 -2.1680  1.6738
19697TIP3    H280583   5.229   5.379   2.106 -3.1586 -1.4129  0.1316
19698TIP3   OH280584   4.540   1.177  15.774  0.7885  0.1411  0.5282
19698TIP3    H180585   4.510   1.267  15.787  0.8317  0.0163  1.5548
19698TIP3    H280586   4.466   1.133  15.732 -0.3942 -0.0741  2.6923
19699TIP3   OH280587   0.851   5.659   2.613 -0.5411  0.6099  0.0858
19699TIP3    H180588   0.902   5.698   2.542  1.2100 -2.0557 -0.2835
19699TIP3    H280589   0.830   5.571   2.582 -0.9353 -0.1539  2.2885
19700TIP3   OH280590   5.248   5.922  12.186 -0.1188 -0.0800  0.2447
19700TIP3    H180591   5.248   6.017  12.191 -0.4882  0.0634 -1.6313
19700TIP3    H280592   5.322   5.901  12.129 -0.7807 -0.8017 -0.3873
19701TIP3   OH280593   3.547   2.285   4.275 -0.4233 -0.0549  0.3154
19701TIP3    H180594   3.641   2.287   4.257 -0.2476 -1.5375  0.9293
19701TIP3    H280595   3.507   2.257   4.192 -0.2654  0.0436  0.2071
19702TIP3   OH280596   1.610   2.056   1.923 -0.7618 -0.1430  0.2641
19702TIP3    H180597   1.696   2.036   1.886 -1.4192  1.1155 -2.1675
19702TIP3    H280598   1.608   2.151   1.929 -2.0221 -0.1469  0.1316
19703TIP3   OH280599   4.513   2.294  11.736 -0.4927  0.2856  0.0428
19703TIP3    H180600   4.553   2.237  11.801 -0.6038 -0.2329 -0.3380
19703TIP3    H280601   4.498   2.377  11.782  0.8779  0.4457  0.2326
19704TIP3   OH280602   5.835   2.499  13.967  0.1175 -0.0571 -0.6440
19704TIP3    H180603   5.833   2.593  13.982  0.7069 -0.1635  0.1767
19704TIP3    H280604   5.745   2.477  13.942  0.3495  0.9621 -2.5046
19705TIP3   OH280605   3.692   0.459  14.960 -0.0889  0.0971 -0.4852
19705TIP3    H180606   3.763   0.397  14.974 -0.6878 -0.9670 -1.8512
19705TIP3    H280607   3.659   0.479  15.048  1.8865  0.6578  0.1775
19706TIP3   OH280608   2.348   2.357   1.503  0.1143 -0.5703 -0.5122
19706TIP3    H180609   2.422   2.348   1.442  0.9773 -1.6242  0.6411
19706TIP3    H280610   2.311   2.269   1.509 -0.5575 -0.2755 -0.2369
19707TIP3   OH280611   4.666   3.729   3.508 -0.1211  0.0791 -0.1808
19707TIP3    H180612   4.656   3.823   3.498  0.7674  0.3510  1.1427
19707TIP3    H280613   4.760   3.717   3.526  0.0599 -1.2093 -1.7210
19708TIP3   OH280614   5.777   3.016  12.545 -0.5303 -0.6690  0.5694
19708TIP3    H180615   5.850   2.962  12.515 -0.0884  0.4024 -0.3588
19708TIP3    H280616   5.699   2.964  12.525 -0.1478 -0.7580 -0.8183
19709TIP3   OH280617   3.897   4.838  11.241 -0.3113 -0.3433 -0.1451
19709TIP3    H180618   3.867   4.779  11.171  1.9935 -0.6697 -0.9798
19709TIP3    H280619   3.985   4.864  11.213  0.4973 -0.0616  2.3889
19710TIP3   OH280620   1.658   4.940   4.975 -0.2929  0.7092  0.0635
19710TIP3    H180621   1.589   4.896   4.924 -0.9556  1.8016 -0.0305
19710TIP3    H280622   1.731   4.947   4.914  0.0416 -0.7486  0.2622
19711TIP3   OH280623   5.588   0.774   0.749  0.1564 -0.0273 -0.3622
19711TIP3    H180624   5.674   0.812   0.761  0.5180 -0.9583  0.0817
19711TIP3    H280625   5.599   0.710   0.679 -0.4822  0.7643 -1.2199
19712TIP3   OH280626   6.882   3.225  10.945  0.2518 -0.0663 -0.2782
19712TIP3    H180627   6.788   3.208  10.950 -0.1922  2.0710 -0.2572
19712TIP3    H280628   6.890   3.303  10.890  2.1032 -0.7112 -1.0108
19713TIP3   OH280629   4.106   3.053   0.765 -0.1225 -0.6025  0.9157
19713TIP3    H180630   4.073   2.991   0.700  2.0501 -1.7129  0.7582
19713TIP3    H280631   4.133   3.129   0.713 -0.0307 -0.7695  0.7142
19714TIP3   OH280632   4.928   6.164   5.084 -0.7146  0.1199  0.2302
19714TIP3    H180633   4.865   6.218   5.131  0.9463  1.1529  1.4006
19714TIP3    H280634   4.956   6.099   5.148  0.1085  0.2896  0.0564
19715TIP3   OH280635   3.158   6.782   0.828 -0.0453  0.2585  0.5084
19715TIP3    H180636   3.172   6.769   0.734 -1.6363  0.9032  0.1484
19715TIP3    H280637   3.192   6.702   0.869 -0.1498 -0.4243 -0.6985
19716TIP3   OH280638   5.898   1.306  11.295  0.2939 -0.0942 -0.1253
19716TIP3    H180639   5.895   1.322  11.389 -1.4783 -0.3722 -0.0959
19716TIP3    H280640   5.897   1.211  11.286 -2.0055 -0.1085 -0.3925
19717TIP3   OH280641   2.129   3.414   0.836 -0.4339 -0.0720 -0.5143
19717TIP3    H180642   2.105   3.384   0.923 -0.2454  1.0756 -0.0517
19717TIP3    H280643   2.224   3.419   0.838 -0.5044  1.6720 -0.1725
19718TIP3   OH280644   6.475   3.525  12.253  0.2461 -0.1662  0.1697
19718TIP3    H180645   6.439   3.442  12.285  0.1921 -0.1601  0.1250
19718TIP3    H280646   6.558   3.535  12.300  1.8996 -1.8570 -2.1561
19719TIP3   OH280647   2.102   1.617   2.834 -0.0603 -0.2585  0.0638
19719TIP3    H180648   2.042   1.581   2.768 -0.6543 -0.3707  0.6611
19719TIP3    H280649   2.148   1.687   2.788 -0.4931 -0.3152 -0.4685
19720TIP3   OH280650   5.931   0.065   2.755  0.3774  0.3388 -0.0750
19720TIP3    H180651   5.926   0.040   2.847  1.8325  2.2566  0.6069
19720TIP3    H280652   6.025   0.067   2.737  0.0837 -1.6136 -2.1207
19721TIP3   OH280653   5.876   1.574  16.212 -0.2205  0.2154 -0.6741
19721TIP3    H180654   5.862   1.484  16.239 -0.2924  0.3199 -0.3653
19721TIP3    H280655   5.818   1.626  16.268  0.5489  0.5454 -0.1707
19722TIP3   OH280656   4.431   3.435  16.105 -0.5180  0.0164  0.4426
19722TIP3    H180657   4.406   3.480  16.024 -1.7420 -0.4213  0.5527
19722TIP3    H280658   4.509   3.481  16.136 -1.5524  1.8793  0.3964
19723TIP3   OH280659   1.666   1.727   6.322 -0.0789  0.0984  0.2628
19723TIP3    H180660   1.604   1.659   6.295  2.0047 -1.5684 -0.6155
19723TIP3    H280661   1.660   1.793   6.253 -0.1499 -0.5317 -0.3461
19724TIP3   OH280662   2.118   2.525  10.158 -0.1909 -0.1644 -0.6782
19724TIP3    H180663   2.176   2.600  10.143  0.3411 -0.4887 -0.2746
19724TIP3    H280664   2.149   2.487  10.239 -2.4261  0.9924  0.8211
19725TIP3   OH280665   5.050   0.894  12.285 -0.2324  0.0875 -0.2067
19725TIP3    H180666   5.023   0.817  12.334  1.9104  0.8792  2.4796
19725TIP3    H280667   5.077   0.957  12.352 -1.5764  3.1177 -2.2634
19726TIP3   OH280668   0.441   4.111   1.345  0.2363  0.5372  0.6890
19726TIP3    H180669   0.530   4.084   1.323  1.1517  2.3556  1.8749
19726TIP3    H280670   0.439   4.204   1.325 -2.2316  0.0988 -1.6450
19727TIP3   OH280671   0.764   2.343  12.146 -0.3528  0.3700 -0.0301
19727TIP3    H180672   0.745   2.381  12.232  2.2639 -1.4268  1.4871
19727TIP3    H280673   0.819   2.409  12.103 -0.6726  0.7744  0.1745
19728TIP3   OH280674   3.695   6.881   1.564 -0.3787 -0.3379  0.3892
19728TIP3    H180675   3.609   6.844   1.544 -0.2588 -0.2050 -0.4122
19728TIP3    H280676   3.685   6.975   1.548  0.0691 -0.3983 -0.2997
19729TIP3   OH280677   6.748   6.220   0.712 -0.0254  0.1505  0.2148
19729TIP3    H180678   6.699   6.139   0.698  0.0894  0.4141 -2.1197
19729TIP3    H280679   6.686   6.289   0.689 -0.0540  0.7527  1.9830
19730TIP3   OH280680   6.309   0.724   0.042  0.4022  0.8241  0.6351
19730TIP3    H180681   6.229   0.744   0.091 -0.1418 -0.1055  0.1669
19730TIP3    H280682   6.351   0.809   0.029 -0.3757  1.2997  1.1198
19731TIP3   OH280683   1.332   3.339  11.353 -0.7222  0.2353 -0.3223
19731TIP3    H180684   1.253   3.296  11.320 -0.4341 -0.3912 -0.2087
19731TIP3    H280685   1.404   3.286  11.320 -0.3993  0.0077  0.7027
19732TIP3   OH280686   4.985   3.359   4.999  0.1191 -0.0039 -0.0950
19732TIP3    H180687   5.025   3.393   4.918 -0.6138  2.2329  0.4166
19732TIP3    H280688   4.987   3.264   4.988  2.3888  0.1319 -1.5984
19733TIP3   OH280689   2.100   3.223  15.673  0.5718 -0.2997 -0.0570
19733TIP3    H180690   2.047   3.193  15.747 -0.3228  2.7572  0.6547
19733TIP3    H280691   2.097   3.150  15.611  1.4614 -3.0708  2.8780
19734TIP3   OH280692   2.514   5.069  15.941  0.0242  0.5293  0.1583
19734TIP3    H180693   2.513   5.003  15.872  2.0487  0.6610 -0.0615
19734TIP3    H280694   2.481   5.148  15.899 -1.1575  0.0045  0.0617
19735TIP3   OH280695   0.282   2.129  11.450  0.1238 -0.3685  0.2576
19735TIP3    H180696   0.269   2.053  11.393 -1.2986 -1.3049  1.7291
19735TIP3    H280697   0.269   2.204  11.392  1.1881 -1.2234 -1.1562
19736TIP3   OH280698   5.541   3.321   3.946 -0.3650  0.1670 -0.0503
19736TIP3    H180699   5.604   3.382   3.984  0.6625 -0.5496 -0.5291
19736TIP3    H280700   5.458   3.367   3.947  0.4371  1.6993 -0.7021
19737TIP3   OH280701   1.565   1.901   4.000  0.1556 -0.0337 -0.1770
19737TIP3    H180702   1.597   1.857   3.922  0.1116 -2.1885  0.9438
19737TIP3    H280703   1.582   1.839   4.071 -1.2680  1.1743  1.2959
19738TIP3   OH280704   3.137   4.486  16.374  0.4697  0.0917  0.4350
19738TIP3    H180705   3.047   4.465  16.397  0.8777 -0.5736  1.4818
19738TIP3    H280706   3.152   4.572  16.413  0.1156  0.4896 -0.2700
19739TIP3   OH280707   2.986   4.577  13.981  0.2926  0.4342 -0.0894
19739TIP3    H180708   3.008   4.653  13.928 -0.0661  0.8878  0.4029
19739TIP3    H280709   2.923   4.609  14.045 -1.0880 -0.6088 -0.8557
19740TIP3   OH280710   5.963   0.668   0.592 -0.0892  0.2513 -0.2457
19740TIP3    H180711   6.013   0.589   0.571  2.0245  0.1107  4.2789
19740TIP3    H280712   6.017   0.740   0.560  0.6483 -0.0456  0.3074
19741TIP3   OH280713   5.700   1.293   6.269 -0.1048  0.7032  0.0151
19741TIP3    H180714   5.608   1.315   6.256 -0.9267 -1.4618  1.5674
19741TIP3    H280715   5.748   1.369   6.235 -2.4040  1.6177 -1.4452
19742TIP3   OH280716   3.092   2.744  14.666  0.4942  0.6842 -0.0057
19742TIP3    H180717   3.159   2.791  14.716 -1.2453  2.9191  0.3978
19742TIP3    H280718   3.099   2.654  14.696  0.3338  1.6752  3.4445
19743TIP3   OH280719   4.636   2.757  15.050 -0.4201  0.3874  0.4178
19743TIP3    H180720   4.542   2.765  15.032 -0.6093  3.0175  2.0830
19743TIP3    H280721   4.677   2.815  14.986  0.0294 -0.2938  0.0841
19744TIP3   OH280722   6.655   4.513   0.579 -0.1601 -0.4690  0.0413
19744TIP3    H180723   6.682   4.603   0.559 -1.0935 -0.1095  0.3888
19744TIP3    H280724   6.692   4.496   0.665  0.5121 -0.6378 -0.2677
19745TIP3   OH280725   0.498   5.689  14.879 -0.6097 -0.2623 -0.3877
19745TIP3    H180726   0.430   5.736  14.831 -1.1815 -1.9122 -1.2640
19745TIP3    H280727   0.516   5.611  14.826 -1.0355 -2.0169  1.8819
19746TIP3   OH280728   2.903   6.792   0.897  0.9601  0.2445 -0.1050
19746TIP3    H180729   2.995   6.801   0.873  0.4511  2.5360 -1.4642
19746TIP3    H280730   2.860   6.758   0.818  0.7202 -1.6734  0.7963
19747TIP3   OH280731   3.019   2.991   3.179 -0.3554 -0.5372 -0.3023
19747TIP3    H180732   2.973   2.921   3.225 -2.0734  2.1177  2.3720
19747TIP3    H280733   2.974   2.996   3.094 -3.2370  0.0424  1.1197
19748TIP3   OH280734   2.174   5.063   1.485  0.0064  0.1345  0.3423
19748TIP3    H180735   2.085   5.065   1.450  0.1266  0.5012  0.0562
19748TIP3    H280736   2.196   5.155   1.500  1.2829  0.2910 -1.9958
19749TIP3   OH280737   4.238   3.550   5.104  0.4468  0.4690  0.4495
19749TIP3    H180738   4.326   3.521   5.128  0.1750 -0.4063  0.4259
19749TIP3    H280739   4.180   3.499   5.161 -0.1282 -0.2565 -0.7436
19750TIP3   OH280740   6.898   2.919  10.331  0.4095 -0.2903  0.1914
19750TIP3    H180741   6.863   2.836  10.364  0.5751 -0.2792  0.3932
19750TIP3    H280742   6.820   2.974  10.319  0.3174 -0.4069  0.2478
19751TIP3   OH280743   0.068   0.725  12.526 -0.2538  0.2331  0.0093
19751TIP3    H180744   0.027   0.649  12.567  2.3493 -0.5959  1.2836
19751TIP3    H280745   0.090   0.695  12.437  0.7972 -0.5827  0.5182
19752TIP3   OH280746   6.082   6.257   3.228  0.4777  0.1805  0.1288
19752TIP3    H180747   6.151   6.222   3.172  0.1424 -0.3051  0.0067
19752TIP3    H280748   6.011   6.279   3.168  0.1211 -0.3293  0.3513
19753TIP3   OH280749   4.282   6.843  10.925  0.4229 -0.6379 -0.2008
19753TIP3    H180750   4.266   6.768  10.983 -0.6342 -0.6678 -0.5086
19753TIP3    H280751   4.301   6.803  10.840  2.0593 -0.5966  0.1277
19754TIP3   OH280752   0.568   0.774   5.533  0.4707 -0.3115 -0.0926
19754TIP3    H180753   0.551   0.681   5.548 -0.5242 -0.1689 -0.3118
19754TIP3    H280754   0.610   0.777   5.447 -3.8428 -0.2100 -2.4452
19755TIP3   OH280755   4.495   6.891  12.765  0.3827  0.1535  0.3341
19755TIP3    H180756   4.533   6.933  12.843  0.2075  1.2374 -0.1471
19755TIP3    H280757   4.491   6.798  12.788  2.1470  0.1658  0.8841
19756TIP3   OH280758   1.845   4.126  11.695 -0.2442  0.2295  0.2889
19756TIP3    H180759   1.810   4.144  11.608 -1.7803  0.0546  0.8388
19756TIP3    H280760   1.890   4.043  11.686  0.9872  0.9791 -0.6877
19757TIP3   OH280761   2.494   4.441  11.892 -0.4233 -0.3136  0.3139
19757TIP3    H180762   2.557   4.369  11.889  0.8012  0.7303 -0.0014
19757TIP3    H280763   2.429   4.413  11.956  1.6343 -0.4742  2.4878
19758TIP3   OH280764   1.665   0.630  13.500 -0.1556  0.0566 -0.3297
19758TIP3    H180765   1.749   0.592  13.473  0.0013 -0.1649  0.4688
19758TIP3    H280766   1.685   0.679  13.580 -0.6999  0.3825 -0.3880
19759TIP3   OH280767   1.409   3.582  15.244 -0.5616 -0.4609 -0.0234
19759TIP3    H180768   1.413   3.492  15.210 -1.5289 -1.0459  1.3354
19759TIP3    H280769   1.346   3.578  15.316  1.6758  0.6008  2.1340
19760TIP3   OH280770   5.696   6.359  13.652 -0.6935 -0.3017  0.4355
19760TIP3    H180771   5.700   6.453  13.668 -0.6340 -0.3066  0.4494
19760TIP3    H280772   5.627   6.348  13.587 -0.8421 -0.2701  0.5886
19761TIP3   OH280773   5.020   0.246  16.232  0.1055 -0.2168  0.2458
19761TIP3    H180774   4.949   0.185  16.212 -0.0546  0.1370 -0.2726
19761TIP3    H280775   5.086   0.191  16.275  0.0148 -0.7819 -0.3189
19762TIP3   OH280776   6.474   0.215  11.401  0.1196 -0.4183  0.1966
19762TIP3    H180777   6.463   0.244  11.311  1.2014  0.6369  0.3729
19762TIP3    H280778   6.565   0.188  11.407  0.5945  1.2440  1.3910
19763TIP3   OH280779   1.416   6.420   5.050  0.6471 -0.0737 -0.0628
19763TIP3    H180780   1.399   6.368   4.972  2.5430 -0.1591 -0.4681
19763TIP3    H280781   1.441   6.356   5.117  2.6725  0.2094 -0.4738
19764TIP3   OH280782   1.496   4.368   1.383  0.2281  0.0213 -0.0444
19764TIP3    H180783   1.517   4.451   1.424 -0.1845  0.7639 -1.2749
19764TIP3    H280784   1.427   4.389   1.320  1.7168 -0.7931 -2.0495
19765TIP3   OH280785   0.233   3.829  10.906  0.1778 -0.1574 -0.4946
19765TIP3    H180786   0.280   3.763  10.855  1.6532  0.8560 -0.4938
19765TIP3    H280787   0.274   3.826  10.992 -0.1186  0.3830 -0.3286
19766TIP3   OH280788   6.555   6.544  15.819 -0.0945  0.3477 -0.0405
19766TIP3    H180789   6.488   6.609  15.840  1.5293  1.5143  2.0013
19766TIP3    H280790   6.535   6.516  15.730 -1.7346  2.5948 -0.4648
19767TIP3   OH280791   1.885   4.594   3.505  0.2667  0.4636  0.1319
19767TIP3    H180792   1.842   4.508   3.507 -0.2454  0.6764 -1.0163
19767TIP3    H280793   1.846   4.638   3.430  1.5515  1.1661 -0.1448
19768TIP3   OH280794   2.623   2.781  11.430 -0.3032  0.1347  0.5751
19768TIP3    H180795   2.565   2.854  11.411 -0.5705  0.0300  0.9794
19768TIP3    H280796   2.656   2.754  11.344 -1.3342 -0.2061  0.2679
19769TIP3   OH280797   1.164   1.259  11.206 -0.4565 -0.4366 -0.2617
19769TIP3    H180798   1.084   1.207  11.208 -1.6004  1.2627  1.3315
19769TIP3    H280799   1.137   1.344  11.173  0.7031  0.1672  0.2725
19770TIP3   OH280800   2.743   3.161  14.584 -0.0094  1.0160  0.6275
19770TIP3    H180801   2.762   3.228  14.520 -0.5248  1.4544  0.9206
19770TIP3    H280802   2.827   3.144  14.628  0.6346 -0.1983 -0.9864
19771TIP3   OH280803   5.120   1.618   5.040  0.2953 -0.3693  0.3636
19771TIP3    H180804   5.192   1.680   5.046  2.1765 -2.1848 -1.4552
19771TIP3    H280805   5.109   1.584   5.129 -0.6571  2.3057  1.3529
19772TIP3   OH280806   3.791   5.405   1.510 -0.1877 -0.0469  0.1387
19772TIP3    H180807   3.829   5.493   1.508 -1.8578  0.8225  2.6434
19772TIP3    H280808   3.819   5.366   1.427  2.5123  1.9868 -0.0558
19773TIP3   OH280809   4.328   3.365  13.787  0.3229  0.1222 -0.2247
19773TIP3    H180810   4.415   3.335  13.764 -0.8225 -4.4014  0.3613
19773TIP3    H280811   4.321   3.350  13.882 -1.5135 -1.2813 -0.5121
19774TIP3   OH280812   5.287   2.436  12.086  0.1679  0.0357 -0.0579
19774TIP3    H180813   5.374   2.398  12.075  0.6561  1.0408  0.1941
19774TIP3    H280814   5.268   2.478  12.002 -1.0317 -2.0151 -0.8764
19775TIP3   OH280815   1.282   4.655  10.480 -0.6071 -0.0463  0.8277
19775TIP3    H180816   1.229   4.657  10.400 -1.6797  2.0462  1.5117
19775TIP3    H280817   1.371   4.636  10.449 -0.7670  1.8157 -1.0587
19776TIP3   OH280818   1.515   6.064   5.440  0.4449 -0.3925  0.7842
19776TIP3    H180819   1.464   6.070   5.521 -0.7428 -0.9027  0.1069
19776TIP3    H280820   1.476   5.991   5.393  0.4216  0.5366 -0.7133
19777TIP3   OH280821   2.892   2.973  10.275 -0.1713 -0.6239  0.2164
19777TIP3    H180822   2.849   2.902  10.227  0.1957 -1.1342  0.6387
19777TIP3    H280823   2.888   3.048  10.215 -0.4545 -1.0296 -0.2790
19778TIP3   OH280824   0.431   6.331  12.575 -0.3792  0.5866  0.4255
19778TIP3    H180825   0.401   6.249  12.534 -1.2946  1.0202  0.1859
19778TIP3    H280826   0.461   6.305  12.662  0.2487 -0.1448  0.0025
19779TIP3   OH280827   4.319   0.744   5.232 -0.1425  0.2973  0.1904
19779TIP3    H180828   4.272   0.789   5.302 -0.1810  0.2840  0.1725
19779TIP3    H280829   4.411   0.745   5.261 -0.0755  0.8120 -0.0308
19780TIP3   OH280830   4.276   3.109   5.775  0.1396 -0.5818  0.2901
19780TIP3    H180831   4.284   3.113   5.870 -0.1044 -0.8583  0.3238
19780TIP3    H280832   4.304   3.020   5.752  0.7207 -0.3437  0.0472
19781TIP3   OH280833   5.309   4.041  13.316  0.0615 -0.0777 -0.2078
19781TIP3    H180834   5.400   4.018  13.336 -0.1798 -0.5488  0.3703
19781TIP3    H280835   5.264   4.038  13.400 -0.7237 -0.9733 -0.6326
19782TIP3   OH280836   0.896   3.441  11.510  0.0472  0.0094  0.1739
19782TIP3    H180837   0.973   3.494  11.530  0.2911  0.1758 -1.1468
19782TIP3    H280838   0.858   3.421  11.596  1.0952  0.6054  0.7967
19783TIP3   OH280839   4.463   5.792  11.864 -0.0293 -1.1186  0.6332
19783TIP3    H180840   4.555   5.808  11.887  0.0703 -0.8983  0.0889
19783TIP3    H280841   4.417   5.870  11.894  0.4325  0.2151 -1.8724
19784TIP3   OH280842   5.668   2.241   5.853 -0.2004 -0.2346 -0.0816
19784TIP3    H180843   5.720   2.173   5.894  1.2958 -0.1145 -1.6938
19784TIP3    H280844   5.661   2.310   5.920 -0.8951 -1.4914  1.1990
19785TIP3   OH280845   0.287   1.181   3.231  0.9882 -0.2559  0.2704
19785TIP3    H180846   0.266   1.192   3.324  0.8899  1.0340  0.1161
19785TIP3    H280847   0.321   1.092   3.225 -0.0995 -0.7860  1.3318
19786TIP3   OH280848   6.390   0.936  16.759  0.2268  0.0487  0.2458
19786TIP3    H180849   6.465   0.973  16.807  0.2397  1.8153 -1.0396
19786TIP3    H280850   6.428   0.865  16.708  1.1771  1.2092 -0.7333
19787TIP3   OH280851   3.806   2.712   4.743 -0.8322 -0.4323  0.0184
19787TIP3    H180852   3.748   2.653   4.791 -2.5451  0.6022 -0.6713
19787TIP3    H280853   3.802   2.682   4.652 -0.3979 -0.2743 -0.0565
19788TIP3   OH280854   6.817   4.701  12.662  0.3962 -0.4493 -0.0830
19788TIP3    H180855   6.806   4.646  12.585 -1.3230  0.6360 -0.6867
19788TIP3    H280856   6.843   4.787  12.627  0.2489 -0.1188  0.5933
19789TIP3   OH280857   2.991   3.493  12.633 -0.1510  0.5166 -0.2440
19789TIP3    H180858   2.973   3.500  12.540  0.2495 -0.9046 -0.4540
19789TIP3    H280859   2.912   3.525  12.676  0.4032  3.1806 -0.9941
19790TIP3   OH280860   1.308   1.085   0.399 -0.1163  0.3270  0.0226
19790TIP3    H180861   1.238   1.033   0.360 -0.5936  1.0882 -0.1628
19790TIP3    H280862   1.324   1.155   0.335  1.2222 -0.1635 -0.2080
19791TIP3   OH280863   2.892   1.754  10.653  0.1147  0.0097 -0.3478
19791TIP3    H180864   2.888   1.834  10.706  1.5268  0.4566 -0.8722
19791TIP3    H280865   2.982   1.724  10.663 -0.7620 -2.3829  1.0387
19792TIP3   OH280866   6.304   0.254   5.773  0.3615  0.2100 -0.0119
19792TIP3    H180867   6.396   0.270   5.791  0.3714  0.1268  0.0111
19792TIP3    H280868   6.266   0.341   5.760  0.2976  0.2999  0.6871
19793TIP3   OH280869   3.189   0.346  14.195  0.6258 -0.4067  0.5155
19793TIP3    H180870   3.099   0.333  14.223  0.4797  0.3654  0.4383
19793TIP3    H280871   3.240   0.342  14.276  0.4373 -0.1424  0.6482
19794TIP3   OH280872   5.829   3.242  14.013  0.1493  0.0649  0.2893
19794TIP3    H180873   5.899   3.251  14.077  1.7206  1.8661 -1.5636
19794TIP3    H280874   5.869   3.195  13.940 -2.0287 -3.4342  1.0583
19795TIP3   OH280875   6.166   1.391   1.385 -0.3328 -0.1135 -0.3885
19795TIP3    H180876   6.185   1.297   1.391 -0.8894 -0.3428 -1.7727
19795TIP3    H280877   6.226   1.423   1.318  0.1338  0.6126  0.3609
19796TIP3   OH280878   4.644   2.931  14.706  0.8109 -0.0330  0.1333
19796TIP3    H180879   4.569   2.990  14.704 -0.2244 -1.2947  0.5376
19796TIP3    H280880   4.708   2.976  14.760  0.0136  0.6889  0.5034
19797TIP3   OH280881   2.981   0.149  13.577  0.0704 -0.6174 -0.7173
19797TIP3    H180882   2.968   0.164  13.670  0.8969  1.8282 -0.9235
19797TIP3    H280883   2.951   0.060  13.563 -4.2465  0.2844  1.0587
19798TIP3   OH280884   1.761   2.909  11.479  0.1407 -0.2178 -0.3811
19798TIP3    H180885   1.829   2.965  11.516  0.0412  0.0391 -0.5848
19798TIP3    H280886   1.710   2.880  11.555 -0.2939  0.6162 -0.3416
19799TIP3   OH280887   2.755   3.764   5.526  0.2269  0.4050  0.6737
19799TIP3    H180888   2.809   3.796   5.598 -0.0971  1.7170  0.3466
19799TIP3    H280889   2.777   3.820   5.452 -0.3124 -0.1696  0.0638
19800TIP3   OH280890   6.313   1.063  15.394 -0.2471 -0.3551  0.3292
19800TIP3    H180891   6.231   1.040  15.351 -0.7625 -2.3299  2.1827
19800TIP3    H280892   6.309   1.018  15.479  1.9195  1.0551  1.2657
19801TIP3   OH280893   6.818   5.329   1.224  0.2292  0.1960  0.0323
19801TIP3    H180894   6.766   5.318   1.304  0.2851  1.3653  0.2562
19801TIP3    H280895   6.773   5.276   1.158 -0.8428  0.6047  0.4091
19802TIP3   OH280896   2.901   2.433  14.162 -0.4087  0.3368  0.6849
19802TIP3    H180897   2.900   2.472  14.074  0.2353 -0.8800  0.1012
19802TIP3    H280898   2.838   2.484  14.212  0.5118  2.2147  0.0401
19803TIP3   OH280899   5.716   3.435  11.034 -0.0163 -0.0742  0.4441
19803TIP3    H180900   5.719   3.364  11.097 -0.4479 -0.2006  0.3270
19803TIP3    H280901   5.643   3.413  10.976 -0.5601  0.7813  0.7876
19804TIP3   OH280902   1.216   5.667   2.291  0.0794  0.1908 -0.6122
19804TIP3    H180903   1.280   5.602   2.262  0.1357 -0.4534  0.8196
19804TIP3    H280904   1.269   5.736   2.330 -0.0574 -0.7763  1.4265
19805TIP3   OH280905   1.442   0.807  13.802 -0.4084  0.4807  0.2009
19805TIP3    H180906   1.460   0.814  13.896  0.0529  2.1095  0.0287
19805TIP3    H280907   1.519   0.764  13.765  0.2197  1.4177  0.3673
19806TIP3   OH280908   6.353   5.261  15.538  0.2429 -0.1099 -0.6662
19806TIP3    H180909   6.359   5.197  15.467 -1.2514 -3.1539  1.7172
19806TIP3    H280910   6.270   5.306  15.523 -0.9075 -1.9172 -0.0839
19807TIP3   OH280911   2.465   3.198  11.898 -0.4379  0.0628  0.2652
19807TIP3    H180912   2.461   3.102  11.894 -2.5021  0.1159 -0.4434
19807TIP3    H280913   2.424   3.220  11.982  0.9948  0.3176  0.9191
19808TIP3   OH280914   6.693   4.936  14.708 -0.7798 -0.6521  0.8822
19808TIP3    H180915   6.721   4.988  14.633  0.5486 -0.0418  1.7621
19808TIP3    H280916   6.746   4.857  14.703  0.4503  0.0574  1.9838
19809TIP3   OH280917   1.259   3.903   5.945 -0.2086  0.1662 -0.3477
19809TIP3    H180918   1.224   3.822   5.906  0.0957  0.2684 -0.8289
19809TIP3    H280919   1.293   3.875   6.030 -0.9436 -0.0414 -0.1147
19810TIP3   OH280920   6.596   6.841   1.770  0.5882 -0.3455 -0.1892
19810TIP3    H180921   6.539   6.817   1.843  2.3796 -0.6525  1.1549
19810TIP3    H280922   6.626   6.757   1.734 -0.0998 -0.1941 -1.1902
19811TIP3   OH280923   3.382   4.185  15.285  0.0874 -0.0616  0.7229
19811TIP3    H180924   3.361   4.270  15.323 -1.2243  0.1527 -0.4285
19811TIP3    H280925   3.426   4.205  15.202  0.7569 -0.5198  0.9557
19812TIP3   OH280926   1.628   6.140  10.556 -0.8250  0.1155 -0.4592
19812TIP3    H180927   1.673   6.210  10.603 -0.6628  0.3319 -0.9380
19812TIP3    H280928   1.539   6.140  10.593 -0.0652 -1.2891  1.5472
19813TIP3   OH280929   1.535   5.192   1.398  0.4097  0.1167  0.3310
19813TIP3    H180930   1.548   5.261   1.463  0.6200  1.5631 -1.1927
19813TIP3    H280931   1.446   5.205   1.366  0.2180 -0.7438  0.4741
19814TIP3   OH280932   0.217   0.849  11.036  0.3213 -0.1186 -0.1499
19814TIP3    H180933   0.228   0.759  11.004  0.5878 -0.1278 -0.0310
19814TIP3    H280934   0.240   0.903  10.960  2.8187 -0.0982  0.5191
19815TIP3   OH280935   2.254   6.421  11.343  0.2308 -0.0601  0.0287
19815TIP3    H180936   2.175   6.420  11.398  0.5839  2.2715  0.6907
19815TIP3    H280937   2.324   6.390  11.401  0.0938 -0.5262 -0.0515
19816TIP3   OH280938   4.439   4.348  15.637 -0.0634 -0.9001 -0.0141
19816TIP3    H180939   4.372   4.370  15.702  0.8852 -3.0307  1.8165
19816TIP3    H280940   4.429   4.415  15.570 -1.8032  0.8269  1.7949
19817TIP3   OH280941   1.508   1.782  11.986 -0.0608  0.5372 -0.6567
19817TIP3    H180942   1.584   1.724  11.986 -0.5581 -0.1310  0.0080
19817TIP3    H280943   1.437   1.727  11.951 -0.1431  1.2970 -1.7322
19818TIP3   OH280944   5.179   5.830  10.250 -0.3964  0.0368 -0.4054
19818TIP3    H180945   5.092   5.846  10.213  0.0253  0.4041 -1.2685
19818TIP3    H280946   5.229   5.790  10.179  0.8518  2.0162 -0.7340
19819TIP3   OH280947   6.372   0.271  12.524  0.3980  0.0863 -0.0080
19819TIP3    H180948   6.463   0.275  12.554 -0.3398  0.3767  2.4056
19819TIP3    H280949   6.324   0.237  12.599 -1.1982 -2.4377 -2.0167
19820TIP3   OH280950   6.444   4.330   4.214  0.1462  0.1941 -0.1302
19820TIP3    H180951   6.359   4.312   4.255  0.7791 -2.6302  0.1430
19820TIP3    H280952   6.434   4.297   4.124  0.6103  0.9197 -0.4537
19821TIP3   OH280953   6.260   1.924   5.635 -0.5968  0.1336 -0.7729
19821TIP3    H180954   6.318   1.969   5.574 -0.3916  0.8194 -0.0836
19821TIP3    H280955   6.202   1.872   5.579 -0.6614  1.0426 -1.5648
19822TIP3   OH280956   3.502   6.056  13.582  0.1631  0.0787 -0.0361
19822TIP3    H180957   3.559   5.980  13.595 -0.1931 -0.2092 -0.1486
19822TIP3    H280958   3.449   6.034  13.506 -1.1061 -0.2867  0.9097
19823TIP3   OH280959   1.927   0.930   5.448 -0.2347 -0.0926  0.2323
19823TIP3    H180960   1.978   0.858   5.486 -0.7083 -0.5747 -0.0214
19823TIP3    H280961   1.986   1.005   5.449  0.4421 -0.6097  0.0542
19824TIP3   OH280962   4.212   2.011  12.685 -0.3991 -0.2125  0.0707
19824TIP3    H180963   4.168   2.038  12.766  0.7417 -1.2680  1.0893
19824TIP3    H280964   4.166   1.930  12.660 -2.4040  1.3775 -1.7908
19825TIP3   OH280965   4.714   2.935   1.023  0.5285  0.0494  0.0507
19825TIP3    H180966   4.654   3.005   1.047 -0.9520 -0.4091 -2.0468
19825TIP3    H280967   4.665   2.854   1.039  2.1727 -0.6048  2.3625
19826TIP3   OH280968   2.482   4.554  13.855 -0.1895 -0.4575 -0.1186
19826TIP3    H180969   2.522   4.558  13.768 -1.9210  0.9650 -0.8995
19826TIP3    H280970   2.485   4.461  13.877  3.0926 -0.5069 -0.2687
19827TIP3   OH280971   3.602   5.289  16.425 -0.5404 -0.2173  0.1599
19827TIP3    H180972   3.601   5.343  16.504  1.4114 -0.1653  0.2046
19827TIP3    H280973   3.510   5.276  16.403 -1.1198  2.8159  0.3819
19828TIP3   OH280974   5.834   2.168   3.118 -0.1095  0.0394  0.2929
19828TIP3    H180975   5.802   2.255   3.094  1.0980  0.7754  1.2321
19828TIP3    H280976   5.802   2.155   3.208  2.1137  0.7976  1.2606
19829TIP3   OH280977   3.583   4.841   3.981  0.0063  0.6695  0.5942
19829TIP3    H180978   3.498   4.824   4.022 -0.8709  2.8770 -0.1480
19829TIP3    H280979   3.576   4.802   3.894 -0.2047  0.6955  0.5988
19830TIP3   OH280980   0.909   1.986  12.824 -0.0390 -0.5579 -0.5229
19830TIP3    H180981   0.886   2.074  12.855  1.5611  0.0215 -0.8995
19830TIP3    H280982   0.837   1.931  12.855 -1.3712  0.9522 -0.7506
19831TIP3   OH280983   0.635   2.393  16.716 -0.1025 -0.4030  0.0134
19831TIP3    H180984   0.641   2.326  16.785  2.8014  0.4292  0.7064
19831TIP3    H280985   0.648   2.345  16.635 -2.2484 -1.2138  0.1005
19832TIP3   OH280986   4.721   5.589  13.508  0.0366  0.1183 -0.0515
19832TIP3    H180987   4.637   5.546  13.494  0.4361 -0.3966 -0.9398
19832TIP3    H280988   4.779   5.552  13.441  0.6517  1.3324 -0.2179
19833TIP3   OH280989   5.876   6.094   5.594  0.0670 -0.7901  0.0579
19833TIP3    H180990   5.903   6.004   5.612 -0.9625 -1.3103 -0.8926
19833TIP3    H280991   5.788   6.100   5.630 -0.3342 -0.5369 -0.9377
19834TIP3   OH280992   6.305   5.283  11.762 -0.0381  0.4069  0.6951
19834TIP3    H180993   6.397   5.309  11.761  0.7004 -1.9360  1.1349
19834TIP3    H280994   6.301   5.206  11.705 -1.6498  0.2054  1.0207
19835TIP3   OH280995   2.146   5.198  12.355  0.7040  0.2981 -0.5584
19835TIP3    H180996   2.087   5.148  12.410 -0.2713  3.4857  1.5978
19835TIP3    H280997   2.227   5.204  12.406  0.2499  2.1509  0.0254
19836TIP3   OH280998   6.498   1.176   5.166 -0.3582  0.5074  0.3481
19836TIP3    H180999   6.465   1.100   5.214  0.7236 -0.0261  0.2883
19836TIP3    H281000   6.593   1.162   5.163 -0.2986  1.1028 -0.9589
19837TIP3   OH281001   0.155   3.814  16.656  0.4795  0.6720 -0.4017
19837TIP3    H181002   0.098   3.871  16.604 -0.4267  0.3473  0.2127
19837TIP3    H281003   0.208   3.767  16.591  1.9636  2.8773 -0.9126
19838TIP3   OH281004   2.842   3.379   2.802 -0.2768 -0.2260  0.1490
19838TIP3    H181005   2.893   3.401   2.880  0.0515 -0.0748 -0.1033
19838TIP3    H281006   2.751   3.397   2.826 -0.1428  0.1475  0.3865
19839TIP3   OH281007   0.172   0.341   5.191 -0.0397 -0.8273 -0.5190
19839TIP3    H181008   0.239   0.285   5.152 -0.4248 -1.8052  0.2057
19839TIP3    H281009   0.141   0.395   5.117 -0.2577 -2.1502 -1.4252
19840TIP3   OH281010   4.657   5.501  14.620  0.0676 -0.0073  0.0279
19840TIP3    H181011   4.687   5.578  14.571 -1.4343 -0.6616 -2.0297
19840TIP3    H281012   4.584   5.533  14.673 -0.8397 -0.0641 -1.1548
19841TIP3   OH281013   3.930   2.098  10.917  0.0566  0.0682  0.0962
19841TIP3    H181014   3.852   2.049  10.892 -0.0511  0.1199  0.3213
19841TIP3    H281015   3.919   2.183  10.873 -0.6600  0.5469  1.1515
19842TIP3   OH281016   2.318   5.763  13.106  0.5433  0.1377 -0.4036
19842TIP3    H181017   2.386   5.754  13.040  0.7592  0.6405 -0.2558
19842TIP3    H281018   2.325   5.684  13.159  1.8524  0.7444  0.3759
19843TIP3   OH281019   2.735   2.900  13.434 -0.1937 -0.0354  0.5108
19843TIP3    H181020   2.672   2.841  13.474 -0.2875  0.6692  1.4480
19843TIP3    H281021   2.798   2.919  13.504 -0.1294  0.9028  0.2157
19844TIP3   OH281022   0.977   1.546   5.196 -0.2146  0.2864 -0.2067
19844TIP3    H181023   0.992   1.540   5.291  0.5583  0.4682 -0.3056
19844TIP3    H281024   1.051   1.499   5.158 -1.2832 -1.0565 -0.7086
19845TIP3   OH281025   5.015   6.487   1.070  0.1603  0.2054 -0.0808
19845TIP3    H181026   5.097   6.498   1.022 -0.3005  0.8930 -0.7418
19845TIP3    H281027   5.040   6.440   1.150  1.2808  0.8504 -0.0251
19846TIP3   OH281028   3.807   2.833  10.633  0.4096  0.3293 -0.1592
19846TIP3    H181029   3.798   2.928  10.638 -0.6008  0.1935  1.5966
19846TIP3    H281030   3.734   2.800  10.685  0.9842 -1.4036 -0.3965
19847TIP3   OH281031   0.757   3.740  10.618  0.3358 -0.2953 -0.2656
19847TIP3    H181032   0.718   3.673  10.561 -0.5524  1.3134 -1.6372
19847TIP3    H281033   0.722   3.823  10.585 -0.5905  0.7414  2.9137
19848TIP3   OH281034   3.504   2.302   2.765 -0.1085 -0.4665 -0.3098
19848TIP3    H181035   3.506   2.299   2.669  0.2172 -2.0325 -0.2787
19848TIP3    H281036   3.584   2.257   2.792  1.0900  2.0626  0.7299
19849TIP3   OH281037   5.906   5.242   3.328 -0.1319 -0.2353 -0.1623
19849TIP3    H181038   5.893   5.246   3.423 -2.5959  0.0390 -0.4578
19849TIP3    H281039   5.826   5.202   3.295  0.6933 -0.3340 -2.1559
19850TIP3   OH281040   3.001   5.341   9.910 -0.2279  0.5656 -0.0157
19850TIP3    H181041   2.976   5.288   9.985 -0.6116  0.5243 -0.1724
19850TIP3    H281042   3.097   5.339   9.910 -0.2081  1.0239  0.7978
19851TIP3   OH281043   0.420   1.639  16.417 -0.2706 -0.4463  0.1518
19851TIP3    H181044   0.395   1.562  16.468 -1.8044 -0.2313 -0.2131
19851TIP3    H281045   0.342   1.659  16.366  0.3372  0.9544 -0.2557
19852TIP3   OH281046   4.551   4.598   3.303  0.2123  0.1775  0.5282
19852TIP3    H181047   4.512   4.677   3.267  0.5974 -0.0494 -0.4121
19852TIP3    H281048   4.483   4.531   3.295  0.1508  0.2308  0.6127
19853TIP3   OH281049   1.495   2.861   0.189  0.4435 -0.6586 -0.0183
19853TIP3    H181050   1.508   2.770   0.218  0.1638 -0.4046  0.9655
19853TIP3    H281051   1.528   2.914   0.261 -0.6570  0.0095  0.0321
19854TIP3   OH281052   6.539   3.367  14.191  0.2581  0.0823 -0.4457
19854TIP3    H181053   6.521   3.403  14.278  2.6563  0.5753 -0.0866
19854TIP3    H281054   6.492   3.425  14.131 -2.0514 -0.7045  0.5015
19855TIP3   OH281055   0.730   4.044  13.145  0.0223  0.0122 -0.0942
19855TIP3    H181056   0.662   4.072  13.084  0.3634 -2.3786 -1.6972
19855TIP3    H281057   0.808   4.091  13.116 -0.3630  0.7875  0.1061
19856TIP3   OH281058   6.880   3.337  12.814  0.2887  0.1147 -0.2388
19856TIP3    H181059   6.819   3.267  12.839  0.6187 -0.6894 -1.5761
19856TIP3    H281060   6.905   3.377  12.897  0.4585 -1.6659  0.6359
19857TIP3   OH281061   4.749   6.597  15.111  0.2998 -0.6452  0.0142
19857TIP3    H181062   4.833   6.553  15.129 -0.4521 -2.1167  0.0857
19857TIP3    H281063   4.687   6.525  15.099 -1.3392  0.4306  1.7051
19858TIP3   OH281064   6.475   3.749  14.034 -0.8284 -0.0421  0.3177
19858TIP3    H181065   6.405   3.786  14.089 -0.6842 -0.5127  0.8187
19858TIP3    H281066   6.443   3.761  13.944 -0.2744  2.3739  0.3673
19859TIP3   OH281067   4.226   4.413  15.822 -0.5922  0.8133 -0.4480
19859TIP3    H181068   4.239   4.465  15.901 -0.1180 -1.2115  0.8910
19859TIP3    H281069   4.132   4.392  15.823 -0.0798 -2.0098  1.5702
19860TIP3   OH281070   5.988   3.575   5.595  1.1295 -0.6207  0.0571
19860TIP3    H181071   5.951   3.653   5.553 -0.4498 -0.5494  1.4500
19860TIP3    H281072   6.083   3.587   5.592  0.9086  2.1542  1.6301
19861TIP3   OH281073   6.178   2.738  16.459  0.1159  0.2077 -0.3292
19861TIP3    H181074   6.107   2.749  16.396  0.1989  2.8591 -0.0716
19861TIP3    H281075   6.249   2.793  16.425  1.2332 -0.6273  0.5789
19862TIP3   OH281076   5.608   0.748  10.138 -0.0706  0.5563 -0.0423
19862TIP3    H181077   5.528   0.785  10.175 -0.6964  0.6183 -1.3850
19862TIP3    H281078   5.603   0.654  10.155 -0.7038  0.4870 -0.5843
19863TIP3   OH281079   1.747   0.115  12.619  0.5975  0.1200  0.1801
19863TIP3    H181080   1.700   0.040  12.581  0.7317 -0.1028  0.4503
19863TIP3    H281081   1.834   0.111  12.579  0.5374  0.2601  0.0331
19864TIP3   OH281082   3.673   2.243  13.972 -0.1936 -0.0821 -0.3491
19864TIP3    H181083   3.705   2.235  14.062 -1.1265 -0.0015  0.0010
19864TIP3    H281084   3.579   2.254  13.981 -0.3212 -0.2525 -1.3497
19865TIP3   OH281085   3.915   0.168  12.764 -0.0870  0.3237  0.0804
19865TIP3    H181086   3.999   0.213  12.750 -0.5823  1.3963  0.4760
19865TIP3    H281087   3.919   0.092  12.706  2.4736 -1.4741  2.3452
19866TIP3   OH281088   2.820   1.313   1.710  0.1296 -0.1229 -0.3551
19866TIP3    H181089   2.765   1.278   1.640 -0.5620  2.1611 -1.0341
19866TIP3    H281090   2.788   1.270   1.790 -0.6465 -1.0004 -1.1148
19867TIP3   OH281091   4.105   1.943   1.541 -0.5179  0.6331 -0.4724
19867TIP3    H181092   4.067   1.944   1.629  0.5306 -0.0686  0.0124
19867TIP3    H281093   4.096   2.033   1.511 -0.6108  0.9635  0.4915
19868TIP3   OH281094   4.573   5.739   0.009  0.3700 -0.1910 -0.7694
19868TIP3    H181095   4.552   5.796  -0.065 -1.1504  0.6540  0.2749
19868TIP3    H281096   4.489   5.718   0.048  1.2083  0.2469  1.3729
19869TIP3   OH281097   6.450   5.979  12.856 -0.4640  0.1803 -0.2452
19869TIP3    H181098   6.519   6.045  12.867 -0.8649  0.5493  0.0700
19869TIP3    H281099   6.433   5.947  12.944  0.3095 -0.9461 -0.4920
19870TIP3   OH281100   6.047   4.535  13.220  0.1598  0.3080  0.0162
19870TIP3    H181101   6.036   4.578  13.305 -0.1682 -0.5620  0.4253
19870TIP3    H281102   6.056   4.607  13.157 -1.6552  0.9867  0.4942
19871TIP3   OH281103   6.092   5.912   4.940  0.7936 -0.0519  0.1791
19871TIP3    H181104   6.179   5.871   4.939  0.9984  0.3785 -0.8614
19871TIP3    H281105   6.110   6.006   4.948  0.4367  0.0570 -0.2736
19872TIP3   OH281106   6.430   1.959  16.473  0.1698 -0.1681 -0.2388
19872TIP3    H181107   6.511   1.998  16.439 -0.2707  0.3576 -0.7028
19872TIP3    H281108   6.441   1.961  16.568 -0.4815  2.6209 -0.1230
19873TIP3   OH281109   2.973   4.842  14.611  0.5590 -0.1402 -0.0765
19873TIP3    H181110   2.989   4.931  14.643 -0.7385 -0.1113  0.5525
19873TIP3    H281111   3.042   4.790  14.651  1.0669  0.5001 -0.0964
19874TIP3   OH281112   0.144   0.764  15.289 -0.9415  0.5426 -0.4097
19874TIP3    H181113   0.195   0.792  15.366  1.7672  2.9378 -2.8219
19874TIP3    H281114   0.075   0.830  15.282 -2.0342 -0.4531  0.6596
19875TIP3   OH281115   1.747   6.857  11.905  0.1379 -0.8586  1.0294
19875TIP3    H181116   1.747   6.902  11.821 -0.5113 -0.4030  1.2648
19875TIP3    H281117   1.766   6.765  11.883 -1.6156 -1.0590  0.2068
19876TIP3   OH281118   4.815   6.399  14.812  0.0288 -0.4172  1.0479
19876TIP3    H181119   4.825   6.325  14.752  3.0989  1.9409 -1.7392
19876TIP3    H281120   4.879   6.382  14.882  0.3170 -0.6416  0.7329
19877TIP3   OH281121   2.764   1.843   2.940 -0.0766  0.2151 -0.9380
19877TIP3    H181122   2.752   1.817   2.849  0.8492  0.4514 -1.1378
19877TIP3    H281123   2.844   1.798   2.967 -0.9900 -0.8420  0.1467
19878TIP3   OH281124   2.048   5.995   1.534  0.1425 -0.2188  0.3049
19878TIP3    H181125   2.031   6.052   1.609 -0.1022  0.1214 -0.0085
19878TIP3    H281126   2.090   6.052   1.469 -0.0977 -0.3962 -0.0058
19879TIP3   OH281127   1.076   5.259   0.509  0.7322  0.1724  0.0847
19879TIP3    H181128   1.092   5.211   0.428 -0.4335 -1.3899  0.7440
19879TIP3    H281129   1.163   5.289   0.536  1.1847  0.4748 -1.5539
19880TIP3   OH281130   4.199   4.683  13.019  0.6273  0.1639 -0.3486
19880TIP3    H181131   4.237   4.614  12.964  0.9742  0.7038 -0.7973
19880TIP3    H281132   4.134   4.724  12.962  0.1720 -0.0144  0.0357
19881TIP3   OH281133   3.661   1.975   0.675  0.0169 -0.0640 -0.1970
19881TIP3    H181134   3.579   1.928   0.660  0.6472 -1.0494 -0.7140
19881TIP3    H281135   3.659   2.048   0.614 -0.6966  0.2101  0.1520
19882TIP3   OH281136   1.938   4.575   3.766  0.1160  0.5650  0.5841
19882TIP3    H181137   2.001   4.621   3.820 -0.4712 -0.3578  2.1093
19882TIP3    H281138   1.951   4.611   3.678  2.4451  0.6849  0.9322
19883TIP3   OH281139   3.642   0.559  15.240 -0.0647 -0.1539  0.2971
19883TIP3    H181140   3.678   0.640  15.274  0.1254 -0.3365  0.5302
19883TIP3    H281141   3.639   0.500  15.315 -1.2755  0.0065  0.3968
19884TIP3   OH281142   3.805   1.406  13.205  0.4109  0.2302 -0.4914
19884TIP3    H181143   3.768   1.348  13.139  0.4769 -0.0468 -0.2884
19884TIP3    H281144   3.799   1.493  13.167 -0.4376  0.1886 -0.4689
19885TIP3   OH281145   4.918   4.120   4.596  0.2790 -0.4467  0.5237
19885TIP3    H181146   4.850   4.052   4.597  0.2420 -0.4065  1.6273
19885TIP3    H281147   4.931   4.142   4.688  2.7380 -1.3890  0.4828
19886TIP3   OH281148   1.205   4.177   4.324  0.4411 -0.4139 -0.2161
19886TIP3    H181149   1.187   4.093   4.366 -1.8181  0.4093  0.6225
19886TIP3    H281150   1.147   4.178   4.248 -1.2724  1.2366  1.0225
19887TIP3   OH281151   6.741   1.987   2.828  0.0127  0.1048 -0.3592
19887TIP3    H181152   6.746   2.059   2.892  1.0458 -1.3978  1.3446
19887TIP3    H281153   6.805   1.923   2.860 -1.9599 -2.2639 -0.9193
19888TIP3   OH281154   6.276   5.265  14.485  0.1169 -0.4026  0.3663
19888TIP3    H181155   6.360   5.231  14.516  1.5579  1.0920 -1.6561
19888TIP3    H281156   6.232   5.188  14.448  2.3454 -0.6328 -2.0876
19889TIP3   OH281157   5.008   1.135   5.330 -0.5087 -0.3174  0.2558
19889TIP3    H181158   4.943   1.085   5.378 -1.9124  0.7351 -0.5028
19889TIP3    H281159   4.989   1.226   5.349  1.7605  0.0192  1.2829
19890TIP3   OH281160   4.088   2.528  16.251 -0.3454 -0.0167  0.3681
19890TIP3    H181161   4.143   2.602  16.223  0.1037 -0.5211 -0.1173
19890TIP3    H281162   4.151   2.462  16.282 -0.4701 -1.4154 -2.0658
19891TIP3   OH281163   1.034   3.288   1.003  1.0364 -0.4830  0.2478
19891TIP3    H181164   0.950   3.309   0.963  2.0977  1.0485 -1.3482
19891TIP3    H281165   1.017   3.211   1.057 -1.7351  0.7702  1.3401
19892TIP3   OH281166   5.447   4.605  11.675 -0.5666  0.5775 -0.1144
19892TIP3    H181167   5.514   4.566  11.619 -0.9962  0.7181 -0.7440
19892TIP3    H281168   5.368   4.554  11.656 -0.4295 -0.2371  1.3520
19893TIP3   OH281169   1.023   2.789   1.188 -0.2191  0.3359 -0.1915
19893TIP3    H181170   0.953   2.742   1.143 -0.7550 -1.3073  2.1799
19893TIP3    H281171   1.017   2.760   1.280  0.8007  3.4423  0.9948
19894TIP3   OH281172   0.094   1.157  13.590  0.1261 -0.4517 -0.1646
19894TIP3    H181173   0.011   1.117  13.565  0.6653 -2.1729  0.6483
19894TIP3    H281174   0.158   1.086  13.582  1.2297  0.4146  0.7623
19895TIP3   OH281175   5.453   3.235   4.336  0.6952  0.7159  0.2343
19895TIP3    H181176   5.477   3.321   4.301 -0.3669  1.5375  1.4313
19895TIP3    H281177   5.442   3.250   4.430 -1.2392 -0.3039  0.2221
19896TIP3   OH281178   6.639   3.158   4.490 -0.1570 -0.2063 -0.0918
19896TIP3    H181179   6.686   3.223   4.438  0.1870  0.5357  1.1219
19896TIP3    H281180   6.607   3.095   4.425 -0.5327  1.1681 -1.2896
19897TIP3   OH281181   6.814   2.042  11.430  0.2676  0.1969  0.4732
19897TIP3    H181182   6.738   2.049  11.372  0.2891 -1.2898  0.2437
19897TIP3    H281183   6.780   2.068  11.516 -0.7256 -1.2213  0.5399
19898TIP3   OH281184   1.176   1.713  14.424 -0.3607  0.1423 -0.2939
19898TIP3    H181185   1.256   1.764  14.431 -0.9570  0.9174  1.3139
19898TIP3    H281186   1.168   1.693  14.331  2.1522 -0.7206 -0.3958
19899TIP3   OH281187   3.968   2.587   5.207 -0.2704  0.2593 -0.4458
19899TIP3    H181188   3.968   2.597   5.112 -1.7167  0.6468 -0.4261
19899TIP3    H281189   3.996   2.496   5.221 -1.2996 -0.2116 -1.3141
19900TIP3   OH281190   1.511   5.494  13.758 -0.3536 -0.0112  0.1599
19900TIP3    H181191   1.429   5.473  13.713  0.1384 -1.2742 -0.1710
19900TIP3    H281192   1.518   5.429  13.827  0.5820 -0.1782 -0.0804
19901TIP3   OH281193   4.370   1.515   0.588 -0.8585  0.2130 -0.8502
19901TIP3    H181194   4.278   1.502   0.608 -0.7325  2.9093  2.4282
19901TIP3    H281195   4.376   1.608   0.564  1.0739  0.3560  0.0000
19902TIP3   OH281196   0.743   4.067  11.936  0.6503  0.2617 -0.3585
19902TIP3    H181197   0.749   4.143  11.878  1.9096  0.4003 -0.0984
19902TIP3    H281198   0.793   3.998  11.891 -0.4187 -0.3997 -0.5571
19903TIP3   OH281199   2.358   0.615   1.128 -0.4272 -0.2218  0.2962
19903TIP3    H181200   2.309   0.632   1.048  0.8030  0.5449 -0.3127
19903TIP3    H281201   2.430   0.558   1.101 -0.9155 -1.2842  1.1684
19904TIP3   OH281202   1.691   0.702  10.498 -0.0555  0.1960 -0.3226
19904TIP3    H181203   1.691   0.607  10.483 -1.4971 -0.1303  1.3031
19904TIP3    H281204   1.677   0.711  10.593 -1.3524  2.0197 -0.6251
19905TIP3   OH281205   5.902   6.074  15.584 -0.1874  0.4143  0.2909
19905TIP3    H181206   5.909   6.042  15.494  1.0810  0.2312  0.4326
19905TIP3    H281207   5.870   6.163  15.575  1.0682  0.8266 -0.4456
19906TIP3   OH281208   3.692   6.172   4.427  0.0028  0.2469 -0.8295
19906TIP3    H181209   3.629   6.167   4.499  0.4213  1.1053 -0.4017
19906TIP3    H281210   3.707   6.080   4.403 -0.2941 -0.0343  0.0325
19907TIP3   OH281211   0.573   4.853   4.522 -0.1648 -0.6740 -0.2398
19907TIP3    H181212   0.579   4.897   4.437  2.6288 -0.3130  0.0363
19907TIP3    H281213   0.603   4.764   4.505  1.9178 -0.1761  0.5716
19908TIP3   OH281214   3.738   0.895   3.740 -0.0518 -0.2858 -0.5940
19908TIP3    H181215   3.731   0.813   3.692 -2.0228 -1.4905  1.5490
19908TIP3    H281216   3.648   0.925   3.750  0.2500 -0.0492  2.1237
19909TIP3   OH281217   1.000   4.304   1.919  0.4809  0.1140  0.0566
19909TIP3    H181218   1.060   4.229   1.917  1.0744  0.5775 -0.1494
19909TIP3    H281219   0.915   4.267   1.941  0.6247 -0.7162 -0.7078
19910TIP3   OH281220   2.694   3.547  10.489  0.1327 -0.2725 -0.1953
19910TIP3    H181221   2.686   3.566  10.396  1.4022 -0.6994 -0.4033
19910TIP3    H281222   2.626   3.601  10.530  0.0821  0.5209 -1.2831
19911TIP3   OH281223   6.042   1.177  16.215  0.1355 -0.3925  0.3140
19911TIP3    H181224   6.018   1.109  16.153  1.4913 -0.7833  0.1904
19911TIP3    H281225   5.958   1.213  16.244 -0.5400 -0.0600 -1.8602
19912TIP3   OH281226   0.997   2.905   2.671  0.2369 -0.3476 -0.1621
19912TIP3    H181227   0.972   2.925   2.761 -2.3655 -0.0590 -0.8462
19912TIP3    H281228   0.922   2.855   2.637  1.1288 -0.3977 -2.1707
19913TIP3   OH281229   5.913   6.343  13.087  0.3420 -0.1816  0.2060
19913TIP3    H181230   5.864   6.398  13.148 -0.8824  0.0723 -0.9649
19913TIP3    H281231   5.885   6.254  13.107  2.6474 -0.5065  2.3939
19914TIP3   OH281232   6.421   2.429   4.492 -0.0583 -0.0220 -0.2029
19914TIP3    H181233   6.461   2.383   4.418  2.0409  0.3640  0.6296
19914TIP3    H281234   6.330   2.399   4.491  0.5336 -2.0404 -1.3562
19915TIP3   OH281235   5.485   1.025  14.350 -0.2875 -0.7604  0.0800
19915TIP3    H181236   5.503   0.977  14.270 -0.8580 -1.7505  0.5316
19915TIP3    H281237   5.391   1.017  14.362 -0.3988  0.4454  0.1983
19916TIP3   OH281238   3.807   5.704   0.992 -0.0884 -0.2909 -0.1082
19916TIP3    H181239   3.739   5.641   1.015  1.0601 -1.3417  0.5414
19916TIP3    H281240   3.853   5.663   0.919 -0.7497  0.8746 -1.2158
19917TIP3   OH281241   1.197   4.563   4.656  0.1603 -0.0582 -0.6296
19917TIP3    H181242   1.196   4.625   4.729  1.1120  0.8834 -1.3958
19917TIP3    H281243   1.151   4.608   4.585  0.7009 -0.2936 -1.1361
19918TIP3   OH281244   1.915   3.098   1.280 -0.6855  0.2065 -1.1294
19918TIP3    H181245   1.836   3.120   1.328 -0.8437 -2.1703 -0.1662
19918TIP3    H281246   1.903   3.007   1.253  0.9676  0.3379 -2.5354
19919TIP3   OH281247   6.483   1.664   1.345  0.2452 -1.1297 -0.4411
19919TIP3    H181248   6.463   1.600   1.414  0.7006 -0.1091  0.6782
19919TIP3    H281249   6.565   1.633   1.306  0.7046 -0.9942  0.3985
19920TIP3   OH281250   6.014   5.489  15.688  0.2067  0.4241 -0.4389
19920TIP3    H181251   5.985   5.452  15.772 -2.2014 -0.0464 -1.3904
19920TIP3    H281252   6.109   5.487  15.693  0.1862  1.4911  2.7444
19921TIP3   OH281253   4.872   1.108   5.048  0.3812 -0.4728 -0.2143
19921TIP3    H181254   4.906   1.093   5.137  0.6640 -1.3629 -0.4548
19921TIP3    H281255   4.799   1.168   5.060 -0.1958 -1.3223  0.7483
19922TIP3   OH281256   4.580   2.771   1.607  0.2532  0.8406 -0.1122
19922TIP3    H181257   4.567   2.842   1.671  1.7478  0.2209  0.9392
19922TIP3    H281258   4.523   2.795   1.534 -1.3328  1.7146  1.3225
19923TIP3   OH281259   2.519   0.616   4.710  0.2674  0.1990 -0.2058
19923TIP3    H181260   2.511   0.711   4.706  1.5044  0.3799  0.8524
19923TIP3    H281261   2.448   0.588   4.767 -0.0893  0.4809 -0.5046
19924TIP3   OH281262   2.945   4.137   2.677  0.4153 -0.0531  0.1657
19924TIP3    H181263   2.959   4.216   2.625 -0.5542  0.0755  0.0833
19924TIP3    H281264   2.968   4.065   2.619 -0.3600  0.1027 -0.3318
19925TIP3   OH281265   3.689   6.601   5.115 -0.2628  0.4465 -0.4797
19925TIP3    H181266   3.618   6.665   5.113  0.6421  1.5804  0.9157
19925TIP3    H281267   3.649   6.521   5.149 -1.0790  0.7741 -0.6422
19926TIP3   OH281268   1.921   4.542   2.914 -0.1046 -0.2205 -0.1533
19926TIP3    H181269   1.974   4.559   2.992 -1.3308  0.7302  0.5149
19926TIP3    H281270   1.860   4.474   2.941 -0.5665  0.1456 -0.2541
19927TIP3   OH281271   0.647   0.285   4.829  0.1729  0.2607 -0.2904
19927TIP3    H181272   0.713   0.225   4.864 -0.3146 -0.0061  0.1913
19927TIP3    H281273   0.679   0.372   4.853 -1.0859  0.0352  2.6281
19928TIP3   OH281274   3.967   2.593  14.601  0.0889 -0.1492  0.3880
19928TIP3    H181275   4.029   2.522  14.585 -0.3905 -0.4609 -0.1264
19928TIP3    H281276   3.944   2.625  14.514  1.8356  2.0125  0.6355
19929TIP3   OH281277   6.542   3.045  14.803 -0.1718  0.1099 -0.7898
19929TIP3    H181278   6.524   3.034  14.897  0.7185 -1.3031 -0.7586
19929TIP3    H281279   6.460   3.080  14.767 -1.1378 -0.9699  0.2357
19930TIP3   OH281280   5.090   4.790  16.228 -0.0921 -0.0334 -0.4888
19930TIP3    H181281   5.038   4.771  16.306  0.0154 -0.6178 -0.5580
19930TIP3    H281282   5.133   4.707  16.206  2.0056  0.7496  0.4116
19931TIP3   OH281283   3.402   3.942  13.083 -0.8053  0.1952  0.0586
19931TIP3    H181284   3.409   3.962  13.176 -2.4087 -0.0825  0.2623
19931TIP3    H281285   3.313   3.910  13.071 -0.9659  1.1757 -1.7658
19932TIP3   OH281286   0.510   4.765   5.296  0.5830 -0.1852 -0.0582
19932TIP3    H181287   0.494   4.704   5.224 -0.1599  0.3448 -0.3482
19932TIP3    H281288   0.436   4.751   5.356  1.0713 -0.4547  0.4957
19933TIP3   OH281289   6.098   1.560  11.909 -0.1090 -0.0874  0.1900
19933TIP3    H181290   6.073   1.467  11.907 -0.7904 -0.0051 -3.7585
19933TIP3    H281291   6.022   1.604  11.948 -0.4201 -1.0569  0.7085
19934TIP3   OH281292   0.387   2.616  12.851  0.6922 -0.2809 -0.6426
19934TIP3    H181293   0.307   2.564  12.838  1.4314 -1.2033 -1.6607
19934TIP3    H281294   0.373   2.660  12.935  0.1001 -2.2589  0.3595
19935TIP3   OH281295   2.679   2.256   0.702 -0.3035 -0.0490  0.2342
19935TIP3    H181296   2.607   2.269   0.641 -0.3726 -0.6581  0.1891
19935TIP3    H281297   2.714   2.344   0.716 -1.2782  0.3060  0.5381
19936TIP3   OH281298   2.375   6.282   2.226 -0.1474  0.1376 -0.1114
19936TIP3    H181299   2.423   6.334   2.161 -0.0840  1.1006  0.6730
19936TIP3    H281300   2.366   6.341   2.301 -0.4527 -0.8584  0.6506
19937TIP3   OH281301   3.031   2.596   4.930  0.1706 -0.0107 -0.5868
19937TIP3    H181302   3.086   2.581   4.853  1.5937  1.5513  0.0531
19937TIP3    H281303   3.088   2.578   5.004 -0.2618  1.3270  0.1030
19938TIP3   OH281304   1.221   1.958  12.264 -0.5241  0.7092 -0.0297
19938TIP3    H181305   1.291   2.012  12.228  1.1701 -1.6119 -0.5238
19938TIP3    H281306   1.235   1.962  12.359 -0.0322  0.6772 -0.0959
19939TIP3   OH281307   0.229   2.919  13.228 -0.3923  0.1868 -0.1039
19939TIP3    H181308   0.289   2.992  13.211 -1.5372  1.5788  1.4020
19939TIP3    H281309   0.169   2.920  13.153  1.1445 -0.9403 -1.3993
19940TIP3   OH281310   3.606   5.328   5.277 -0.4823 -0.6627  0.1437
19940TIP3    H181311   3.519   5.295   5.299 -0.5870 -0.3893  0.1529
19940TIP3    H281312   3.636   5.369   5.359 -0.0968 -1.2851  0.3123
19941TIP3   OH281313   3.292   2.391   4.447  0.4052 -0.2344  0.2436
19941TIP3    H181314   3.296   2.334   4.370  1.4096 -0.0971  0.1806
19941TIP3    H281315   3.258   2.334   4.516  3.0079 -1.4983  0.6262
19942TIP3   OH281316   1.485   5.888  16.282  0.1055  0.1513 -0.0384
19942TIP3    H181317   1.455   5.896  16.191 -0.2117  0.6960  0.1139
19942TIP3    H281318   1.578   5.866  16.274 -0.0867 -0.5597 -0.5034
19943TIP3   OH281319   5.164   2.407   3.492 -0.4594  0.0639  0.4314
19943TIP3    H181320   5.165   2.319   3.531 -0.7270 -0.5775 -0.9458
19943TIP3    H281321   5.074   2.437   3.505 -0.6691 -0.3305 -0.0718
19944TIP3   OH281322   3.653   1.162  11.802 -0.3927  0.0271  0.2716
19944TIP3    H181323   3.669   1.080  11.756 -0.1285 -0.2058  0.7774
19944TIP3    H281324   3.677   1.144  11.893 -3.0464 -0.2079  1.0043
19945TIP3   OH281325   6.644   1.691  15.865 -0.2664 -0.0480  0.1693
19945TIP3    H181326   6.635   1.741  15.783 -0.2990  3.1074  1.9123
19945TIP3    H281327   6.669   1.603  15.837  3.0791  1.6728 -3.1721
19946TIP3   OH281328   3.786   5.650  16.534 -0.6052 -0.6895 -0.4046
19946TIP3    H181329   3.859   5.624  16.477 -1.1002  0.0243 -1.3844
19946TIP3    H281330   3.825   5.712  16.595 -0.2162 -0.9409 -0.3889
19947TIP3   OH281331   6.561   3.818  11.098 -0.2196 -0.3004  0.3782
19947TIP3    H181332   6.551   3.905  11.059 -1.9859 -0.4857  0.3322
19947TIP3    H281333   6.619   3.771  11.038  0.5037  0.7283  0.2414
19948TIP3   OH281334   0.875   2.876   0.179  0.0245  0.1049  0.4081
19948TIP3    H181335   0.875   2.933   0.102  1.1912 -0.9909 -0.4390
19948TIP3    H281336   0.802   2.816   0.165 -1.8391  1.9012  1.7710
19949TIP3   OH281337   4.526   4.594   2.434  0.4647 -0.4442  0.0475
19949TIP3    H181338   4.582   4.529   2.476  0.0622  0.2503  1.7450
19949TIP3    H281339   4.440   4.581   2.474  0.0346  0.2082 -0.6297
19950TIP3   OH281340   5.456   0.139  14.214 -0.0801  0.0412 -0.1695
19950TIP3    H181341   5.403   0.199  14.265  0.5712  0.2164  0.3211
19950TIP3    H281342   5.501   0.085  14.279 -1.8749 -2.1062 -0.5939
19951TIP3   OH281343   1.717   5.980  13.311 -0.4138 -0.0118  0.6575
19951TIP3    H181344   1.803   5.955  13.277 -1.0810 -0.1674 -0.9682
19951TIP3    H281345   1.725   6.074  13.329 -0.4871  0.4363 -1.4192
19952TIP3   OH281346   0.402   5.615   3.200 -0.1860 -0.3831 -0.2906
19952TIP3    H181347   0.320   5.588   3.160 -0.1375  1.1413 -1.5189
19952TIP3    H281348   0.442   5.673   3.135  1.2244 -0.0393  0.8407
19953TIP3   OH281349   2.411   1.015  13.447  0.1660 -0.1610 -0.1910
19953TIP3    H181350   2.379   1.106  13.450 -1.1347 -0.6115  0.7905
19953TIP3    H281351   2.452   1.006  13.361  0.3522  1.3688 -0.2862
19954TIP3   OH281352   5.690   3.364  10.452 -0.0437  0.7193  0.5629
19954TIP3    H181353   5.762   3.333  10.399 -0.7105  0.4910 -0.2287
19954TIP3    H281354   5.623   3.295  10.445 -0.2261  0.7818  1.5195
19955TIP3   OH281355   5.164   0.409  13.428  0.0187  0.6039 -0.1624
19955TIP3    H181356   5.119   0.325  13.418 -0.3122  0.6166  1.0957
19955TIP3    H281357   5.249   0.396  13.384 -0.1980 -0.2407 -0.3514
19956TIP3   OH281358   2.423   5.012   1.694 -0.5129 -0.1529 -0.2263
19956TIP3    H181359   2.420   4.926   1.735 -0.7021  0.5525  1.3116
19956TIP3    H281360   2.332   5.029   1.666 -0.3137 -0.7860 -1.2916
19957TIP3   OH281361   4.890   4.631  16.850 -0.1302 -0.8171  0.0437
19957TIP3    H181362   4.832   4.627  16.926 -0.0587 -0.5211  0.1125
19957TIP3    H281363   4.960   4.690  16.876 -0.5788  0.0034 -0.5809
19958TIP3   OH281364   5.890   6.122   2.674 -0.6496  0.4501 -0.4974
19958TIP3    H181365   5.880   6.059   2.602  2.0058 -0.1568 -0.4306
19958TIP3    H281366   5.966   6.090   2.723 -0.7276  2.3868  0.9689
19959TIP3   OH281367   1.922   5.145  15.382  0.1521 -0.0864 -1.0016
19959TIP3    H181368   1.878   5.096  15.451 -0.3701  1.3702 -0.2650
19959TIP3    H281369   1.989   5.085  15.349  0.9279 -0.5641  1.2766
19960TIP3   OH281370   1.812   4.264   4.797  0.4274 -0.0882 -0.4150
19960TIP3    H181371   1.782   4.205   4.727 -0.5294 -0.8915  0.6329
19960TIP3    H281372   1.759   4.343   4.786 -0.4524 -0.6105  0.0163
19961TIP3   OH281373   0.558   3.614   5.213  0.0751 -0.1042  0.3854
19961TIP3    H181374   0.537   3.522   5.205  1.1108 -0.4613  1.4258
19961TIP3    H281375   0.620   3.618   5.286 -0.0397  1.4233  0.4315
19962TIP3   OH281376   0.996   2.303  14.979 -0.5390  0.3953  0.3378
19962TIP3    H181377   1.044   2.373  14.934 -0.5442 -0.2420 -0.6854
19962TIP3    H281378   1.052   2.226  14.971 -1.3124 -0.1411 -0.0949
19963TIP3   OH281379   1.319   0.164   0.170  0.0686 -0.0087  0.0039
19963TIP3    H181380   1.351   0.200   0.088  2.3695  0.9208  1.2356
19963TIP3    H281381   1.295   0.073   0.148  1.1214  0.0465 -1.5756
19964TIP3   OH281382   2.274   2.638   3.098  0.8848  0.1063  0.1906
19964TIP3    H181383   2.190   2.597   3.119  0.4732  1.2167  0.8067
19964TIP3    H281384   2.274   2.645   3.003  0.0897  0.4350  0.2054
19965TIP3   OH281385   6.023   5.801   2.776  0.0464  0.3954 -0.1163
19965TIP3    H181386   6.046   5.876   2.830  1.6678  0.4237 -0.8097
19965TIP3    H281387   5.958   5.834   2.715 -0.3146  0.8569  0.5079
19966TIP3   OH281388   6.375   6.614   2.328  0.8154  0.0736 -0.0253
19966TIP3    H181389   6.305   6.563   2.369 -0.2252  0.6109 -1.0950
19966TIP3    H281390   6.349   6.705   2.340  1.3536  0.2830 -0.4137
19967TIP3   OH281391   1.913   0.424  15.511  0.0428 -0.1854  0.9680
19967TIP3    H181392   1.947   0.511  15.532  2.7914 -0.9772  0.2347
19967TIP3    H281393   1.912   0.421  15.415 -2.1821 -0.2451  0.9436
19968TIP3   OH281394   2.780   3.520   4.562  0.2957 -0.1004 -0.0979
19968TIP3    H181395   2.859   3.546   4.513  0.2004 -1.6613 -1.1898
19968TIP3    H281396   2.807   3.439   4.607 -1.0182 -1.4550 -1.6132
19969TIP3   OH281397   3.851   5.283  16.720  0.0299  0.0589  0.2436
19969TIP3    H181398   3.920   5.336  16.681 -0.0536  0.7737  1.0485
19969TIP3    H281399   3.772   5.304  16.670  0.0812  0.3914  0.3047
19970TIP3   OH281400   3.246   2.488   5.971 -0.2519 -0.0065  0.0038
19970TIP3    H181401   3.335   2.505   6.002 -0.0807 -1.6559  0.4869
19970TIP3    H281402   3.190   2.535   6.034  0.2514  0.7827 -0.1263
19971TIP3   OH281403   1.448   5.733   0.419  0.2475  0.0249  0.4058
19971TIP3    H181404   1.354   5.717   0.427  0.3980 -1.5090 -0.4164
19971TIP3    H281405   1.479   5.741   0.509 -0.3121 -1.9827  0.8262
19972TIP3   OH281406   4.942   1.797  11.827 -0.3348  0.2682 -0.0117
19972TIP3    H181407   4.957   1.892  11.824 -0.8654  0.3581  0.0792
19972TIP3    H281408   4.943   1.770  11.736  1.0073  0.1616  0.0140
19973TIP3   OH281409   0.713   2.539   4.208  0.5120  0.1765 -0.1895
19973TIP3    H181410   0.747   2.484   4.279 -0.1067  0.5458  0.4108
19973TIP3    H281411   0.642   2.487   4.170 -0.5774  0.8191  0.8655
19974TIP3   OH281412   3.104   4.147   2.137 -0.1971 -0.4598 -0.2609
19974TIP3    H181413   3.148   4.203   2.200  2.1555 -0.6138 -1.6628
19974TIP3    H281414   3.128   4.182   2.051  0.4523 -2.8968 -1.1592
19975TIP3   OH281415   3.807   2.140   2.188 -0.6048 -0.4220  0.4446
19975TIP3    H181416   3.781   2.133   2.280 -2.0765 -0.6093  0.0519
19975TIP3    H281417   3.871   2.071   2.175 -0.9523 -0.8839  1.1512
19976TIP3   OH281418   0.400   1.407  16.014 -0.1022  0.3695 -0.1670
19976TIP3    H181419   0.384   1.416  16.108  1.4786  1.6639  0.0127
19976TIP3    H281420   0.441   1.489  15.988 -0.6870  0.1148 -2.0502
19977TIP3   OH281421   6.705   1.990  12.334  0.2827 -0.4768 -0.2747
19977TIP3    H181422   6.782   1.950  12.292  0.8789  0.1007  0.2505
19977TIP3    H281423   6.729   2.081  12.347 -0.0112 -0.5541  1.0098
19978TIP3   OH281424   2.942   0.293   5.597 -0.0569 -0.0034 -0.0748
19978TIP3    H181425   2.916   0.360   5.534  1.1439 -0.4387 -1.0646
19978TIP3    H281426   2.973   0.342   5.673 -2.1404  0.5275  0.5004
19979TIP3   OH281427   3.092   6.208  16.090  0.8445  0.2842 -0.6121
19979TIP3    H181428   3.065   6.255  16.169  1.6419 -0.2638  0.0089
19979TIP3    H281429   3.027   6.232  16.024  0.2919  0.9306  0.1489
19980TIP3   OH281430   6.519   5.434  11.416  0.2351 -0.4032  0.0679
19980TIP3    H181431   6.529   5.376  11.492 -0.3892  0.5670  0.9257
19980TIP3    H281432   6.468   5.382  11.354  2.3569 -1.9218 -0.5219
19981TIP3   OH281433   6.650   3.377   5.572 -0.3756  0.2935  0.0677
19981TIP3    H181434   6.577   3.350   5.517 -0.1594 -0.0995 -0.0239
19981TIP3    H281435   6.688   3.296   5.605  0.2100  0.4827 -0.1302
19982TIP3   OH281436   4.863   2.159   1.185 -0.4031 -0.3253  0.2244
19982TIP3    H181437   4.821   2.108   1.115 -2.2073  0.7624  0.4477
19982TIP3    H281438   4.833   2.117   1.266 -1.1688  0.5028  0.3884
19983TIP3   OH281439   4.835   0.159   5.464 -0.2027 -0.5705  0.1946
19983TIP3    H181440   4.911   0.205   5.501  0.3940 -1.6285  0.3269
19983TIP3    H281441   4.867   0.070   5.446 -1.7968 -1.4685  1.5419
19984TIP3   OH281442   1.890   2.446  13.790  0.0855 -0.0160  0.3975
19984TIP3    H181443   1.953   2.498  13.739  0.2581  0.2257  0.8578
19984TIP3    H281444   1.939   2.368  13.816  0.1991  0.1818  0.7730
19985TIP3   OH281445   1.738   2.175   5.699 -0.3527 -0.2708  0.0347
19985TIP3    H181446   1.715   2.119   5.773 -2.8210 -0.9049 -1.0912
19985TIP3    H281447   1.805   2.234   5.733 -0.0671 -1.7342  2.2091
19986TIP3   OH281448   1.496   1.180  11.566  0.3020 -0.5710 -0.1559
19986TIP3    H181449   1.521   1.130  11.643  2.2740 -0.6251 -0.7871
19986TIP3    H281450   1.476   1.113  11.500 -0.3571 -0.5167 -0.0202
19987TIP3   OH281451   1.885   6.185  14.993  0.4115 -0.7280  0.0589
19987TIP3    H181452   1.937   6.209  15.070  0.1530 -0.8875  0.2878
19987TIP3    H281453   1.796   6.215  15.014  0.4529 -0.2470 -0.4278
19988TIP3   OH281454   6.126   1.546  15.233 -0.0998  0.1088 -0.1707
19988TIP3    H181455   6.036   1.517  15.248  0.2007  0.0213  1.7452
19988TIP3    H281456   6.161   1.485  15.168 -0.5993 -1.5558  1.0705
19989TIP3   OH281457   1.549   2.129   0.138 -0.1137 -0.3635 -0.0842
19989TIP3    H181458   1.491   2.201   0.112 -0.6089 -0.9878 -0.7220
19989TIP3    H281459   1.627   2.139   0.083  1.1407  1.4150  1.8378
19990TIP3   OH281460   6.805   2.832   3.551  0.0803  0.4361 -0.0098
19990TIP3    H181461   6.788   2.766   3.618 -0.1585  0.3134 -0.1910
19990TIP3    H281462   6.880   2.881   3.585  0.3125  0.0226  0.0889
19991TIP3   OH281463   0.687   2.999  13.647 -0.3854  0.1603 -0.3085
19991TIP3    H181464   0.606   2.967  13.606 -0.1291 -0.6742 -0.1912
19991TIP3    H281465   0.720   2.924  13.697 -1.6297  1.6027  2.9981
19992TIP3   OH281466   3.896   4.421  14.543  0.1464  0.3055 -0.0235
19992TIP3    H181467   3.917   4.417  14.450  0.2737  1.3496 -0.0592
19992TIP3    H281468   3.981   4.410  14.587  0.3232  1.2627 -0.0862
19993TIP3   OH281469   2.614   3.848   2.535 -0.6844 -0.3448 -0.0604
19993TIP3    H181470   2.688   3.790   2.551 -0.3758 -0.4871 -1.7698
19993TIP3    H281471   2.651   3.936   2.537 -0.7915 -0.3117  0.6738
19994TIP3   OH281472   6.150   5.817  15.975 -0.0576 -0.1747  0.3731
19994TIP3    H181473   6.064   5.787  15.944 -1.1216  2.7960  0.0627
19994TIP3    H281474   6.133   5.849  16.064  0.4774  1.1934  0.0126
19995TIP3   OH281475   2.136   2.182  12.272 -0.2975 -0.0804 -0.4238
19995TIP3    H181476   2.174   2.266  12.299  0.8513 -0.8884  0.5104
19995TIP3    H281477   2.199   2.116  12.301 -1.9097 -1.3952  0.2279
19996TIP3   OH281478   0.669   1.661   1.999  0.0028  0.2180 -0.3288
19996TIP3    H181479   0.662   1.753   1.973  1.8050  0.7986  0.9960
19996TIP3    H281480   0.732   1.623   1.938  0.2555  0.2109 -0.0647
19997TIP3   OH281481   5.949   2.416  11.709  0.7190 -0.4062 -0.5239
19997TIP3    H181482   5.991   2.442  11.791 -1.3389  0.3045  0.3558
19997TIP3    H281483   5.981   2.479  11.645 -0.8770  1.7720  0.6779
19998TIP3   OH281484   3.632   3.824  10.525  0.6265 -0.0120 -0.1968
19998TIP3    H181485   3.540   3.819  10.498  0.9148  0.1236 -1.2629
19998TIP3    H281486   3.637   3.905  10.577 -0.1058 -0.6857  0.9761
19999TIP3   OH281487   5.755   2.512   2.388  0.0497  0.0700 -0.3165
19999TIP3    H181488   5.823   2.491   2.324  0.2779 -1.5947  0.4315
19999TIP3    H281489   5.674   2.510   2.338  0.4498  1.2709 -1.0478
20000TIP3   OH281490   3.071   4.652   4.828  0.3436 -0.5479 -0.5528
20000TIP3    H181491   3.097   4.735   4.868  0.8983 -1.2862  0.6738
20000TIP3    H281492   3.112   4.653   4.742 -0.7777  1.0369 -1.1175
20001TIP3   OH281493   1.367   0.927  12.762  0.2615 -0.1113  0.1713
20001TIP3    H181494   1.329   0.878  12.689  0.1313  0.0458  0.1318
20001TIP3    H281495   1.335   0.881  12.840 -1.5195  1.0646  0.1948
20002TIP3   OH281496   4.274   1.348  14.102  0.0831 -0.0546 -0.1889
20002TIP3    H181497   4.253   1.411  14.171  0.8207  1.4432 -1.2643
20002TIP3    H281498   4.363   1.319  14.123  0.6685  1.0996 -0.9619
20003TIP3   OH281499   0.573   4.120   4.797  0.3425  0.1797 -0.1566
20003TIP3    H181500   0.663   4.115   4.829 -0.0786 -2.4447  0.8425
20003TIP3    H281501   0.519   4.104   4.875 -0.9518  0.4831 -0.9598
20004TIP3   OH281502   1.800   3.074   3.203 -0.2569 -0.4198 -0.0388
20004TIP3    H181503   1.764   3.157   3.171  0.4533 -0.1687 -0.1892
20004TIP3    H281504   1.740   3.008   3.168 -0.6205  0.0000 -0.2212
20005TIP3   OH281505   0.687   5.725  12.009  0.0339  0.1158  0.0421
20005TIP3    H181506   0.633   5.692  12.080 -0.9870 -0.2401 -0.8653
20005TIP3    H281507   0.663   5.818  12.001  0.2442  0.1873  0.2506
20006TIP3   OH281508   6.868   2.212  14.699 -0.2490  0.8060  0.2168
20006TIP3    H181509   6.915   2.182  14.778 -0.6710 -0.3953  0.0314
20006TIP3    H281510   6.777   2.188  14.715  0.1736 -3.3966 -2.3266
20007TIP3   OH281511   3.810   6.867  12.603 -0.5552  0.2363  0.3437
20007TIP3    H181512   3.785   6.791  12.657 -0.5266 -0.0895 -0.0973
20007TIP3    H281513   3.731   6.887  12.553  0.1651 -1.1185 -1.4445
20008TIP3   OH281514   1.241   6.729  15.195  0.4234  0.2046 -0.0367
20008TIP3    H181515   1.188   6.683  15.260  1.0975  1.3985  1.4212
20008TIP3    H281516   1.196   6.813  15.183  1.8795  1.2227  1.1930
20009TIP3   OH281517   5.563   0.663  15.608 -0.1922  0.3216 -0.3685
20009TIP3    H181518   5.504   0.589  15.626  0.6203 -0.1660  0.4084
20009TIP3    H281519   5.646   0.636  15.648 -0.2420  2.2457  1.1913
20010TIP3   OH281520   2.014   1.017  13.384  0.0292 -0.0219  0.0238
20010TIP3    H181521   1.932   0.985  13.345 -0.7833 -0.2587  1.8218
20010TIP3    H281522   2.065   0.938  13.400  0.8166  0.1545 -1.4530
20011TIP3   OH281523   6.482   2.568   0.265 -0.1414  0.0298  0.0588
20011TIP3    H181524   6.393   2.536   0.252  0.0480 -0.5491  0.1431
20011TIP3    H281525   6.482   2.657   0.229 -0.7987  0.0998  0.2226
20012TIP3   OH281526   5.585   4.237  14.924 -0.4132  0.2804 -0.2005
20012TIP3    H181527   5.552   4.326  14.937  0.0166  0.1643  2.0196
20012TIP3    H281528   5.673   4.249  14.888 -0.1766  0.7893  0.5164
20013TIP3   OH281529   1.842   5.494  13.688  0.0508 -0.1411  0.3881
20013TIP3    H181530   1.866   5.408  13.724  0.1478  0.4770  1.8725
20013TIP3    H281531   1.776   5.527  13.749  1.4655  1.6877  0.9824
20014TIP3   OH281532   3.380   6.485  11.799  0.6585  0.6020  0.2079
20014TIP3    H181533   3.422   6.557  11.847 -0.2248 -0.3765  2.5942
20014TIP3    H281534   3.297   6.521  11.769 -0.4385  0.2808  2.6303
20015TIP3   OH281535   2.249   2.335   2.572 -0.3512 -0.1287  0.3691
20015TIP3    H181536   2.337   2.367   2.549 -0.4688  0.0840  0.2124
20015TIP3    H281537   2.197   2.350   2.493 -0.2295 -1.4307  0.0068
20016TIP3   OH281538   5.058   1.487   2.370  0.0131 -0.2375 -0.3251
20016TIP3    H181539   5.087   1.577   2.354 -0.5892 -0.1558 -0.9700
20016TIP3    H281540   5.080   1.472   2.462  0.7390  0.3288 -0.3884
20017TIP3   OH281541   5.719   0.616   5.338 -0.3034 -0.4820 -0.4611
20017TIP3    H181542   5.743   0.707   5.319 -0.6468 -0.5029 -1.0321
20017TIP3    H281543   5.716   0.574   5.252 -2.4212 -0.4669 -0.4512
20018TIP3   OH281544   0.918   6.499   3.952 -0.2924 -0.7996  0.0614
20018TIP3    H181545   0.914   6.404   3.956 -1.7234 -0.8556 -1.5558
20018TIP3    H281546   0.870   6.522   3.872 -1.1098  1.3558  1.0957
20019TIP3   OH281547   0.245   2.467  14.822 -0.1633 -0.1006  0.0836
20019TIP3    H181548   0.321   2.417  14.854  0.2491  1.0450  0.9620
20019TIP3    H281549   0.282   2.547  14.785 -0.9315  0.4556  0.4798
20020TIP3   OH281550   3.859   4.725  13.813  0.0116  0.0667  0.5934
20020TIP3    H181551   3.851   4.768  13.728  1.1402 -1.7197 -0.4801
20020TIP3    H281552   3.952   4.733  13.834  0.3016 -1.9001  0.2712
20021TIP3   OH281553   5.073   5.675   2.242  0.1077  0.3720  0.5113
20021TIP3    H181554   5.035   5.596   2.202 -0.3524  0.3231  1.0292
20021TIP3    H281555   5.165   5.673   2.216 -0.4485  1.1576 -1.8394
20022TIP3   OH281556   5.872   1.042  11.283  0.1158  0.1670  0.2161
20022TIP3    H181557   5.801   1.014  11.340  1.8528 -2.0542  1.4759
20022TIP3    H281558   5.882   0.971  11.219  1.3072  0.3238  0.1934
20023TIP3   OH281559   4.477   6.631   2.461 -0.0721 -0.7243 -0.0825
20023TIP3    H181560   4.544   6.617   2.529 -0.8350 -0.0737  0.8280
20023TIP3    H281561   4.418   6.695   2.499 -2.1675 -2.4875 -0.1908
20024TIP3   OH281562   1.329   6.395  13.928 -0.0432  0.1099  0.2808
20024TIP3    H181563   1.382   6.320  13.953 -1.3260 -1.4723 -1.4729
20024TIP3    H281564   1.270   6.408  14.002 -0.4156 -1.2239  0.2435
20025TIP3   OH281565   2.411   3.606  14.933  0.0368  0.0999  0.2727
20025TIP3    H181566   2.457   3.629  15.014 -1.6270 -1.5008  1.7621
20025TIP3    H281567   2.321   3.634  14.949 -0.2178  0.2540 -1.2948
20026TIP3   OH281568   5.511   4.542  14.649  0.4280  0.2533  0.0948
20026TIP3    H181569   5.432   4.537  14.596  0.3725  0.0549  0.1960
20026TIP3    H281570   5.480   4.539  14.740  0.5884 -0.4301  0.1318
20027TIP3   OH281571   0.154   1.258  10.734 -0.6593 -0.2166  0.0836
20027TIP3    H181572   0.078   1.222  10.688  0.9327 -0.7553 -2.3289
20027TIP3    H281573   0.171   1.341  10.689  0.4764 -0.3700  0.2143
20028TIP3   OH281574   1.535   0.914  10.937  0.2698 -0.1668 -0.2300
20028TIP3    H181575   1.572   0.984  10.992  1.9031  0.1864 -1.6564
20028TIP3    H281576   1.444   0.939  10.924  0.2795  0.5863  0.9751
20029TIP3   OH281577   2.880   3.439   6.330  0.3025  0.1180  0.2900
20029TIP3    H181578   2.901   3.530   6.350 -0.5875  0.3745  0.1095
20029TIP3    H281579   2.803   3.444   6.274 -1.0723 -0.7997  1.9951
20030TIP3   OH281580   2.988   4.974  16.284  0.4032  0.2346  0.3761
20030TIP3    H181581   2.929   5.007  16.217 -3.0383 -3.3171  1.3006
20030TIP3    H281582   3.035   4.902  16.242  1.4901  0.7633  0.6473
20031TIP3   OH281583   5.576   5.054  13.393  0.0710  0.0219 -0.6732
20031TIP3    H181584   5.546   4.978  13.443  1.9348 -0.1550  0.2619
20031TIP3    H281585   5.671   5.051  13.399  0.2280  1.8811 -1.4803
20032TIP3   OH281586   3.008   3.707  15.050 -0.4483  0.0676 -0.3672
20032TIP3    H181587   3.061   3.711  14.971 -0.9919  0.2103 -0.7347
20032TIP3    H281588   3.067   3.674  15.118 -0.7611 -3.3494 -1.5340
20033TIP3   OH281589   2.589   0.605   5.120 -0.4694 -0.0530  0.1045
20033TIP3    H181590   2.632   0.580   5.039 -1.9307  0.2926 -0.8090
20033TIP3    H281591   2.583   0.523   5.170 -0.8967 -0.5707 -0.7766
20034TIP3   OH281592   2.880   1.650  13.868  0.0627 -0.4614 -0.5138
20034TIP3    H181593   2.902   1.560  13.892 -0.1799 -0.3419  0.2051
20034TIP3    H281594   2.811   1.675  13.930  0.1291  0.2188 -0.7025
20035TIP3   OH281595   0.917   6.571   3.562 -0.4515  0.2583  0.4417
20035TIP3    H181596   0.892   6.480   3.582 -0.2379  0.1529  0.2394
20035TIP3    H281597   0.919   6.574   3.466 -1.8940  0.8714  0.3977
20036TIP3   OH281598   4.031   4.647   1.144 -0.4297 -0.1927 -0.4292
20036TIP3    H181599   4.100   4.595   1.186  0.9335  1.0990 -0.9574
20036TIP3    H281600   3.972   4.582   1.106 -0.7545 -1.3705  1.9108
20037TIP3   OH281601   5.549   5.491  15.721  0.3044 -0.0569  0.4560
20037TIP3    H181602   5.513   5.410  15.756  0.0811 -0.9118 -1.6480
20037TIP3    H281603   5.473   5.544  15.697  0.4434 -0.0862 -0.0597
20038TIP3   OH281604   0.523   0.120   2.871  0.0250 -0.4849 -0.1285
20038TIP3    H181605   0.458   0.189   2.877  0.7438  0.1269  0.8991
20038TIP3    H281606   0.478   0.041   2.902  0.0538  0.1479  1.6134
20039TIP3   OH281607   1.697   2.542   5.183 -0.4019 -0.1546 -0.2526
20039TIP3    H181608   1.776   2.490   5.164  0.5541  0.5668  1.5031
20039TIP3    H281609   1.631   2.478   5.208 -0.0624 -0.7026 -0.7392
20040TIP3   OH281610   1.980   1.416  11.873 -0.4621 -0.3194 -0.3197
20040TIP3    H181611   1.970   1.485  11.807 -0.5607 -0.1606 -0.1392
20040TIP3    H281612   1.894   1.374  11.876 -0.8000  0.3915  0.5026
20041TIP3   OH281613   0.875   6.462   2.933  0.1904 -0.7020 -0.6562
20041TIP3    H181614   0.938   6.511   2.880 -1.2917 -0.2985 -2.1232
20041TIP3    H281615   0.921   6.381   2.956  1.8143  0.2789 -0.2595
20042TIP3   OH281616   4.644   1.815   3.502  0.6008 -0.4984  0.1552
20042TIP3    H181617   4.672   1.723   3.501  1.4284 -0.2574  0.4548
20042TIP3    H281618   4.715   1.861   3.457 -0.1269 -0.0869 -0.5900
20043TIP3   OH281619   4.848   0.246   3.245 -0.1092  0.8255 -1.3769
20043TIP3    H181620   4.753   0.232   3.244 -0.0314  0.2811 -1.8198
20043TIP3    H281621   4.859   0.340   3.254 -0.6886  0.8129 -0.4662
20044TIP3   OH281622   5.203   3.411   5.921 -0.0184 -0.2982 -0.3460
20044TIP3    H181623   5.182   3.500   5.949  3.1238  0.5516 -0.2314
20044TIP3    H281624   5.191   3.357   5.999 -1.0803  0.1573 -0.1777
20045TIP3   OH281625   1.041   0.540  15.586  0.1271  0.2459 -0.3712
20045TIP3    H181626   1.047   0.603  15.514  2.2885  1.2687  0.6046
20045TIP3    H281627   1.033   0.455  15.543  1.8768  0.7702 -1.8923
20046TIP3   OH281628   5.972   4.093   4.054  0.1652  0.1425 -0.2407
20046TIP3    H181629   5.903   4.069   4.116  0.2072 -0.8039 -0.5416
20046TIP3    H281630   5.926   4.143   3.986 -0.3625 -0.9718 -0.7420
20047TIP3   OH281631   1.374   3.669   5.229  0.0208 -0.1302  0.3188
20047TIP3    H181632   1.374   3.605   5.158  2.2195  2.0984 -1.9097
20047TIP3    H281633   1.439   3.636   5.292 -0.1427 -0.9339  0.0663
20048TIP3   OH281634   4.852   1.154   3.654 -0.0796 -0.0280 -0.2427
20048TIP3    H181635   4.904   1.231   3.629 -0.2522 -0.0426 -0.6579
20048TIP3    H281636   4.767   1.168   3.613  0.4768 -1.3519 -1.9777
20049TIP3   OH281637   4.834   2.463  15.616 -0.6469 -0.1690 -0.0151
20049TIP3    H181638   4.906   2.513  15.577 -1.6484  0.3834 -1.2606
20049TIP3    H281639   4.806   2.516  15.691  0.2663 -0.4249  0.5241
20050TIP3   OH281640   3.174   4.436  15.291  0.1762  0.1736  0.3588
20050TIP3    H181641   3.104   4.449  15.355  0.6878  0.9831  0.7814
20050TIP3    H281642   3.253   4.427  15.345  0.2253 -2.2243 -0.0422
20051TIP3   OH281643   6.665   2.816   0.867  0.1395  0.5349  0.0350
20051TIP3    H181644   6.638   2.820   0.959  2.2841  0.3710  0.7264
20051TIP3    H281645   6.585   2.792   0.820 -0.4895 -2.2673  2.1972
20052TIP3   OH281646   1.575   3.568  15.720 -0.3935  0.0358 -0.1942
20052TIP3    H181647   1.611   3.656  15.731  0.8647 -0.2444 -1.6584
20052TIP3    H281648   1.575   3.555  15.625 -0.7743 -1.4620 -0.0041
20053TIP3   OH281649   6.683   5.906  11.756 -0.2384 -0.7461  0.0795
20053TIP3    H181650   6.588   5.898  11.763 -0.3876  1.5788  2.5046
20053TIP3    H281651   6.715   5.906  11.847  1.8768  0.1281 -0.5799
20054TIP3   OH281652   5.126   6.732  12.128  0.0120  0.0499 -0.0735
20054TIP3    H181653   5.065   6.667  12.092 -0.3203  1.2422 -1.7579
20054TIP3    H281654   5.203   6.681  12.154 -0.1421 -1.0022 -1.5865
20055TIP3   OH281655   1.604   6.444   3.942 -0.0666 -0.0458  0.0130
20055TIP3    H181656   1.642   6.414   4.025  0.5110 -0.1493 -0.2780
20055TIP3    H281657   1.542   6.513   3.966  0.0842 -0.0913  0.5309
20056TIP3   OH281658   0.052   1.285   2.200  0.1968 -0.4321 -0.4388
20056TIP3    H181659   0.081   1.293   2.109  0.2600  1.5630 -0.2839
20056TIP3    H281660  -0.036   1.324   2.201 -0.5023 -1.9429  0.0543
20057TIP3   OH281661   1.763   6.178  13.001 -0.3241 -0.0376  0.0989
20057TIP3    H181662   1.671   6.197  13.020  0.0609  1.1114  0.9384
20057TIP3    H281663   1.812   6.241  13.055  0.9439 -0.3142 -0.6934
20058TIP3   OH281664   4.591   2.149  16.029 -0.7539 -0.0101  0.1980
20058TIP3    H181665   4.596   2.065  16.074 -0.9381 -1.1147 -1.7289
20058TIP3    H281666   4.561   2.127  15.941  0.4553  1.9312 -0.7685
20059TIP3   OH281667   3.337   1.326  12.468 -0.1743  0.1976 -0.1551
20059TIP3    H181668   3.339   1.308  12.374 -0.7629 -0.4237 -0.0543
20059TIP3    H281669   3.405   1.393  12.481  1.4241 -1.2348 -0.7043
20060TIP3   OH281670   2.191   6.042   2.842 -0.3515 -0.0785 -0.1967
20060TIP3    H181671   2.223   6.104   2.907 -0.2263  0.7268 -1.0096
20060TIP3    H281672   2.150   5.973   2.894  0.5239  0.0911  0.7731
20061TIP3   OH281673   0.537   0.772   2.517 -0.1144 -0.2858  0.4715
20061TIP3    H181674   0.575   0.826   2.587  1.8744  0.5255 -1.1208
20061TIP3    H281675   0.605   0.769   2.450 -1.4583 -2.0954 -0.9048
20062TIP3   OH281676   2.307   5.707  10.532  0.0838  0.3733  0.3684
20062TIP3    H181677   2.379   5.656  10.495 -1.2242 -2.3547  1.2641
20062TIP3    H281678   2.308   5.790  10.485  2.0705 -0.6663 -1.5581
20063TIP3   OH281679   0.406   5.851  13.387 -0.2462 -0.0890 -0.3825
20063TIP3    H181680   0.464   5.775  13.378 -1.5954 -1.1453 -0.3143
20063TIP3    H281681   0.383   5.852  13.480 -1.6710 -0.6914 -0.7159
20064TIP3   OH281682   1.217   5.841   0.652 -0.3952  0.2015  0.4054
20064TIP3    H181683   1.251   5.930   0.647 -0.9141  0.3448 -1.4095
20064TIP3    H281684   1.182   5.824   0.565 -2.2488 -1.0095  1.3179
20065TIP3   OH281685   5.109   4.914   3.096 -0.2998 -0.0217 -0.0706
20065TIP3    H181686   5.092   4.845   3.160  0.8465  1.0868  1.5006
20065TIP3    H281687   5.186   4.884   3.048  1.8212  1.2160  2.3497
20066TIP3   OH281688   0.326   2.772  13.811  0.2758 -0.1647  0.0057
20066TIP3    H181689   0.255   2.812  13.862  1.5310  3.1938 -0.6075
20066TIP3    H281690   0.393   2.751  13.876 -0.2935 -1.0389  0.3177
20067TIP3   OH281691   0.912   4.981  10.918  0.3949  0.5190  0.3152
20067TIP3    H181692   0.865   4.995  10.836  0.5649 -0.5281  0.0207
20067TIP3    H281693   0.968   5.059  10.927  1.7285 -0.1435 -1.5223
20068TIP3   OH281694   6.032   5.025   0.628 -0.0911  0.0098  0.3522
20068TIP3    H181695   6.054   5.115   0.654  0.7690 -0.6836  2.1544
20068TIP3    H281696   5.940   5.015   0.654  0.2281 -0.0783  1.4927
20069TIP3   OH281697   2.349   0.891  14.958 -0.1752  0.4780 -0.0223
20069TIP3    H181698   2.309   0.809  14.930  1.3158 -0.1866 -0.3347
20069TIP3    H281699   2.325   0.954  14.890 -1.0570  0.2159  0.0409
20070TIP3   OH281700   1.504   6.499  10.673 -0.2036  0.0700 -0.3779
20070TIP3    H181701   1.518   6.523  10.764 -0.4485  0.7288 -0.5135
20070TIP3    H281702   1.413   6.470  10.670 -0.6372  1.4200 -0.6989
20071TIP3   OH281703   6.895   3.467  15.036 -0.4758 -0.0991  0.0619
20071TIP3    H181704   6.898   3.559  15.061  0.1611 -0.0848 -0.0519
20071TIP3    H281705   6.806   3.453  15.003 -1.0003  0.1404  1.3393
20072TIP3   OH281706   1.709   5.415  14.735 -0.0092  0.1604 -0.0237
20072TIP3    H181707   1.700   5.451  14.823  2.1991  2.1884 -0.5074
20072TIP3    H281708   1.799   5.439  14.709 -1.1064  1.1429 -3.4243
20073TIP3   OH281709   2.541   6.159   3.198  0.4130 -0.3778 -0.3078
20073TIP3    H181710   2.494   6.138   3.278  0.3072  0.4941 -0.1269
20073TIP3    H281711   2.624   6.196   3.228  0.0969  0.5863 -0.5777
20074TIP3   OH281712   1.440   4.111  12.884  0.2648  0.1428 -0.3204
20074TIP3    H181713   1.374   4.135  12.820  0.9984  1.6121 -0.5771
20074TIP3    H281714   1.523   4.132  12.842  0.7708  0.9610  1.0191
20075TIP3   OH281715   1.454   3.118  13.082 -0.1189 -0.0802 -1.0249
20075TIP3    H181716   1.466   3.210  13.059  1.5135 -0.4996 -2.0308
20075TIP3    H281717   1.373   3.092  13.039 -0.9260  1.0362 -0.2137
20076TIP3   OH281718   0.434   1.998   5.539 -0.4858 -0.5038 -0.1769
20076TIP3    H181719   0.475   2.084   5.544 -0.6180 -0.3452 -1.4792
20076TIP3    H281720   0.441   1.973   5.447 -1.3667 -1.4286 -0.0173
20077TIP3   OH281721   1.458   4.170  15.527  0.1164 -0.8832  0.1742
20077TIP3    H181722   1.439   4.108  15.597  0.3020 -1.3250 -0.1608
20077TIP3    H281723   1.474   4.115  15.450  1.3039 -0.4706  0.1060
20078TIP3   OH281724   6.022   1.976  16.109 -0.0292  0.3413  0.0719
20078TIP3    H181725   5.953   2.016  16.160  1.6089  2.4627  0.7723
20078TIP3    H281726   5.983   1.962  16.022 -1.8056 -0.1646  0.9068
20079TIP3   OH281727   1.644   4.909   2.732 -0.0991  0.2256 -0.0854
20079TIP3    H181728   1.613   4.844   2.669 -1.7513  0.9646 -0.0704
20079TIP3    H281729   1.647   4.991   2.683 -0.4719  0.6187  0.5420
20080TIP3   OH281730   5.729   1.427   5.375  0.0248  0.1542  0.3414
20080TIP3    H181731   5.733   1.432   5.470  0.7332 -0.8807  0.3826
20080TIP3    H281732   5.722   1.334   5.356  0.6828  0.2880 -0.6461
20081TIP3   OH281733   6.583   2.471  13.624 -0.3493 -0.0173  0.3137
20081TIP3    H181734   6.606   2.398  13.683 -0.2386 -0.9084 -0.7963
20081TIP3    H281735   6.625   2.449  13.541  0.8928  2.0430  0.3197
20082TIP3   OH281736   5.512   1.026   0.158 -0.0837 -0.2391 -0.4686
20082TIP3    H181737   5.607   1.024   0.143 -0.3489 -1.1706 -2.4367
20082TIP3    H281738   5.499   1.100   0.217  1.9988 -1.0453  1.1588
20083TIP3   OH281739   2.596   0.651  14.354  0.3685 -0.2265 -0.0038
20083TIP3    H181740   2.652   0.573  14.356  1.6282  0.6187 -1.1821
20083TIP3    H281741   2.642   0.715  14.408 -1.4271 -0.7238  2.2762
20084TIP3   OH281742   1.654   1.226   5.319  0.2677  0.6928  0.2166
20084TIP3    H181743   1.577   1.280   5.339 -0.8956 -1.2487  1.2437
20084TIP3    H281744   1.682   1.193   5.404 -0.0178 -1.5458 -0.5030
20085TIP3   OH281745   4.920   3.527   4.659  0.0905  0.1504 -0.1013
20085TIP3    H181746   5.000   3.505   4.707  0.5120  0.2635 -0.7441
20085TIP3    H281747   4.849   3.497   4.716  0.6044 -1.5822 -0.3085
20086TIP3   OH281748   0.747   1.323   4.824  0.3500 -0.3045  0.6276
20086TIP3    H181749   0.716   1.305   4.913 -2.4614  0.2681 -0.1549
20086TIP3    H281750   0.818   1.259   4.811 -1.2313 -2.5402  2.1949
20087TIP3   OH281751   6.631   1.379  15.192  0.2569  0.6005 -0.1592
20087TIP3    H181752   6.582   1.297  15.198  1.3825 -0.0108  3.0137
20087TIP3    H281753   6.666   1.381  15.103 -2.7581 -0.5206 -1.4661
20088TIP3   OH281754   1.304   1.435   3.632 -0.1007 -0.0093 -0.0532
20088TIP3    H181755   1.261   1.349   3.636  1.6355 -0.8929  0.9422
20088TIP3    H281756   1.397   1.415   3.630  0.3968  1.8606  1.3922
20089TIP3   OH281757   2.608   3.912   4.516 -0.3171  0.0701  0.2430
20089TIP3    H181758   2.540   3.978   4.508 -0.2580  0.0366 -0.6003
20089TIP3    H281759   2.627   3.909   4.610 -1.8399 -0.3070  0.5625
20090TIP3   OH281760   3.364   2.077  13.904  0.2739 -0.1620  0.4975
20090TIP3    H181761   3.323   2.135  13.840  1.8045  1.3982  0.8383
20090TIP3    H281762   3.447   2.051  13.863  1.4020  1.0814  1.8725
20091TIP3   OH281763   2.076   2.315   0.254 -0.0756  0.2341 -0.9135
20091TIP3    H181764   2.122   2.399   0.254 -0.7997  0.6849 -2.7240
20091TIP3    H281765   2.129   2.259   0.197  0.8129 -0.8182  0.8788
20092TIP3   OH281766   3.366   4.814  13.121 -0.0150 -0.1346 -0.0719
20092TIP3    H181767   3.278   4.785  13.146 -0.0755  0.8528  0.9117
20092TIP3    H281768   3.413   4.733  13.102 -0.8777 -0.7307  0.2499
20093TIP3   OH281769   4.321   6.702   2.756  0.0238 -0.2070 -0.3142
20093TIP3    H181770   4.387   6.641   2.789  0.5806  0.8528  0.5909
20093TIP3    H281771   4.243   6.648   2.742  0.7246 -1.2607 -0.2771
20094TIP3   OH281772   0.586   3.506   3.768 -1.2286 -0.2681 -0.4085
20094TIP3    H181773   0.581   3.602   3.764  0.5734 -0.0625  0.8138
20094TIP3    H281774   0.558   3.477   3.682 -0.9222  1.4246 -1.1191
20095TIP3   OH281775   4.945   0.426   2.242  0.3632 -0.4664 -0.2392
20095TIP3    H181776   5.033   0.446   2.274 -0.2327 -0.2374  1.3488
20095TIP3    H281777   4.905   0.512   2.228 -0.1979 -0.5358  0.8188
20096TIP3   OH281778   2.878   0.710   3.713  0.0436 -0.3638 -0.1016
20096TIP3    H181779   2.840   0.667   3.636 -0.7108  0.1866 -0.0476
20096TIP3    H281780   2.803   0.728   3.770  0.6520 -1.2750  1.0372
20097TIP3   OH281781   3.047   2.112   2.058  0.9918 -0.0367 -0.1453
20097TIP3    H181782   3.067   2.158   1.976  2.1525 -0.0146  0.1269
20097TIP3    H281783   3.120   2.133   2.116 -0.0292  0.3083  1.0624
20098TIP3   OH281784   1.229   0.701   4.398 -0.2326 -0.4322 -0.1991
20098TIP3    H181785   1.188   0.786   4.388  0.4692 -0.2859 -2.4740
20098TIP3    H281786   1.180   0.643   4.339  1.7963 -0.5772 -1.8936
20099TIP3   OH281787   1.988   1.910   0.806 -0.1634 -0.1677  0.1720
20099TIP3    H181788   1.951   1.822   0.798  0.7614 -0.5260 -0.2891
20099TIP3    H281789   2.073   1.905   0.763 -0.1675  1.0075 -0.0153
20100TIP3   OH281790   2.778   3.397   0.215 -0.7125  0.3599 -0.4228
20100TIP3    H181791   2.697   3.401   0.164  0.0504 -0.0963 -1.7333
20100TIP3    H281792   2.757   3.342   0.290 -1.8348  0.9286 -0.2969
20101TIP3   OH281793   5.606   0.490  10.227  0.2385  0.5357 -0.6407
20101TIP3    H181794   5.547   0.418  10.245  0.0299  0.5442 -1.2617
20101TIP3    H281795   5.658   0.461  10.152  1.3863  0.3182  0.2182
20102TIP3   OH281796   1.131   3.100   6.499 -0.2611  0.0609  0.0067
20102TIP3    H181797   1.212   3.067   6.459  0.3482  0.0787  1.1740
20102TIP3    H281798   1.067   3.030   6.487  0.5376 -0.8678  0.9518
20103TIP3   OH281799   6.425   1.024   3.166 -0.3574 -0.1787  0.6258
20103TIP3    H181800   6.331   1.039   3.176 -0.4497 -0.0893 -0.3048
20103TIP3    H281801   6.465   1.108   3.189 -0.5981  0.1920 -0.2580
20104TIP3   OH281802   6.290   2.491   2.179  0.5042 -0.1150 -0.2962
20104TIP3    H181803   6.251   2.566   2.135  0.6817 -0.7498 -1.6042
20104TIP3    H281804   6.362   2.527   2.230 -1.1371  0.9461  1.3864
20105TIP3   OH281805   0.015   6.082  10.803 -0.4048 -0.5527  0.2974
20105TIP3    H181806  -0.019   6.013  10.859 -0.3743 -0.2740  0.6674
20105TIP3    H281807   0.096   6.110  10.846 -0.9539  0.4216  0.7109
20106TIP3   OH281808   5.211   0.406   3.147  0.0082  0.3541  0.0399
20106TIP3    H181809   5.164   0.373   3.224 -2.1072  0.8165 -0.9951
20106TIP3    H281810   5.220   0.500   3.162  1.5787  0.1333  0.6897
20107TIP3   OH281811   1.893   6.474   5.471  0.2641  0.4380  0.4612
20107TIP3    H181812   1.799   6.461   5.474  0.1828  0.7623 -0.4012
20107TIP3    H281813   1.904   6.565   5.443  0.8359  0.7718  1.7029
20108TIP3   OH281814   3.220   2.872  12.598 -0.8867  0.1832 -0.6418
20108TIP3    H181815   3.250   2.923  12.522 -0.2025  0.6564 -0.0665
20108TIP3    H281816   3.145   2.920  12.632 -0.5681  0.5230 -0.4166
20109TIP3   OH281817   5.897   5.907   2.503 -0.1013  0.2941  0.1067
20109TIP3    H181818   5.964   5.911   2.435 -0.0730  0.1106  0.1241
20109TIP3    H281819   5.826   5.856   2.463  0.0585 -0.1166  0.3383
20110TIP3   OH281820   4.559   4.636  15.970 -0.1356  0.3483 -0.3836
20110TIP3    H181821   4.546   4.548  16.003  2.0440 -0.3386 -1.1730
20110TIP3    H281822   4.619   4.625  15.896 -0.4271  2.4121 -0.9891
20111TIP3   OH281823   5.027   0.706   0.106 -0.4091 -0.4295 -0.2759
20111TIP3    H181824   5.044   0.621   0.146  3.7081 -0.0116 -0.7045
20111TIP3    H281825   4.987   0.758   0.175 -0.5334 -1.9279  0.8252
20112TIP3   OH281826   4.134   6.147   1.053 -0.5163  0.0346  0.5003
20112TIP3    H181827   4.157   6.239   1.061 -2.9938  0.6766  1.1312
20112TIP3    H281828   4.166   6.107   1.134  0.2790  0.3931  0.3713
20113TIP3   OH281829   0.138   5.686  15.658 -0.0244  0.2834 -0.4089
20113TIP3    H181830   0.048   5.680  15.689  0.0797  0.0160 -0.1551
20113TIP3    H281831   0.151   5.779  15.641  0.0796  0.5159  0.8626
20114TIP3   OH281832   1.124   6.013  11.936  0.3725 -0.7533 -0.1424
20114TIP3    H181833   1.185   6.076  11.975  0.1135  0.7467 -2.0478
20114TIP3    H281834   1.044   6.024  11.986  0.1394  0.9257 -0.8163
20115TIP3   OH281835   5.760   5.826   0.395 -0.3185  0.2343  0.7756
20115TIP3    H181836   5.846   5.785   0.388  0.0918  1.2400 -0.2042
20115TIP3    H281837   5.756   5.887   0.322 -1.5942  0.7122  1.2225
20116TIP3   OH281838   4.876   1.064   4.782  0.6360 -0.1278 -0.5219
20116TIP3    H181839   4.892   1.055   4.876 -0.3382 -2.6365 -0.5134
20116TIP3    H281840   4.848   1.155   4.770  0.7116  0.2124  1.6146
20117TIP3   OH281841   5.906   6.387   1.624  0.2148 -0.2065  0.0231
20117TIP3    H181842   5.959   6.386   1.544  1.7964  0.2403  1.0192
20117TIP3    H281843   5.950   6.326   1.682 -1.1184 -0.7901  0.4543
20118TIP3   OH281844   1.357   4.665   3.471  0.0988  0.2050 -0.0961
20118TIP3    H181845   1.433   4.720   3.452 -0.1963  0.4543 -0.5919
20118TIP3    H281846   1.394   4.582   3.501  0.6005 -0.2587 -1.9108
20119TIP3   OH281847   6.168   3.721  12.037 -0.5508 -0.3494 -0.3969
20119TIP3    H181848   6.244   3.668  12.015 -0.1185 -0.4626  1.2551
20119TIP3    H281849   6.095   3.678  11.992  0.1533 -0.9753 -0.9646
20120TIP3   OH281850   1.751   1.071  12.298  0.1583  0.1431  0.1201
20120TIP3    H181851   1.839   1.086  12.331 -0.2269 -0.4603  1.5350
20120TIP3    H281852   1.737   0.976  12.309 -0.5838  0.1924 -0.3049
20121TIP3   OH281853   1.259   4.172   0.185 -0.0439  0.2660  0.2373
20121TIP3    H181854   1.257   4.175   0.281  2.1085 -0.6076  0.3531
20121TIP3    H281855   1.295   4.256   0.159 -1.2373  0.7643  0.1284
20122TIP3   OH281856   4.077   0.152  12.105 -0.7943 -0.0337 -0.2200
20122TIP3    H181857   4.026   0.169  12.025 -0.6098  1.2962 -0.0803
20122TIP3    H281858   4.046   0.067  12.136  0.3398 -1.4373 -2.6428
20123TIP3   OH281859   0.220   6.473   1.133  0.3420  0.2380  0.1170
20123TIP3    H181860   0.287   6.527   1.091 -1.3658  2.4947  0.1070
20123TIP3    H281861   0.146   6.533   1.148 -1.7286 -2.1247  0.0459
20124TIP3   OH281862   6.687   2.798  12.913 -0.2985  0.0339 -0.4394
20124TIP3    H181863   6.622   2.806  12.983 -1.3336  0.5977 -1.4315
20124TIP3    H281864   6.710   2.705  12.913 -0.2045  0.0397  0.6991
20125TIP3   OH281865   6.694   2.443  15.436 -0.2857  0.0968  0.0556
20125TIP3    H181866   6.668   2.520  15.486 -0.7982  0.4659 -0.7505
20125TIP3    H281867   6.739   2.478  15.360 -4.4274  0.0285 -2.7815
20126TIP3   OH281868   1.827   4.519  12.330 -0.4532  0.1637 -0.0446
20126TIP3    H181869   1.755   4.456  12.323  0.1267 -0.4421 -0.5625
20126TIP3    H281870   1.903   4.467  12.352 -0.1408  0.7971  0.3935
20127TIP3   OH281871   0.194   0.900   2.899  0.1861 -0.1195  0.0424
20127TIP3    H181872   0.244   0.957   2.841  0.8515 -1.3448 -0.6454
20127TIP3    H281873   0.127   0.956   2.937  0.0196  0.8259 -1.5714
20128TIP3   OH281874   5.252   0.679   3.055 -0.1480  0.3954  0.2694
20128TIP3    H181875   5.214   0.654   2.971  0.1201  1.5540 -0.2087
20128TIP3    H281876   5.341   0.706   3.034  1.3349 -2.9456  1.4533
20129TIP3   OH281877   0.846   3.638   4.049 -0.7761  0.6074 -0.4892
20129TIP3    H181878   0.792   3.613   4.124  1.3425 -1.2151  0.5367
20129TIP3    H281879   0.857   3.557   3.999  0.4263  1.0844 -1.0402
20130TIP3   OH281880   4.512   1.878  16.498  1.0064  0.2024 -0.3500
20130TIP3    H181881   4.570   1.836  16.562 -0.3299  0.0025  0.7729
20130TIP3    H281882   4.431   1.827  16.501 -0.3399  2.2417  0.3967
20131TIP3   OH281883   0.643   4.254  16.559 -0.2434 -0.9056  0.4087
20131TIP3    H181884   0.712   4.234  16.496 -1.5378 -0.0402 -1.3934
20131TIP3    H281885   0.583   4.179  16.553 -2.0485  0.5722 -1.9483
20132TIP3   OH281886   6.834   2.480   2.917 -0.4942 -0.7951  0.1012
20132TIP3    H181887   6.762   2.542   2.930 -0.9410 -1.2093 -0.3575
20132TIP3    H281888   6.791   2.395   2.909 -0.0769 -0.8846 -1.5601
20133TIP3   OH281889   1.290   4.381  10.353 -0.0038  0.6254 -0.1024
20133TIP3    H181890   1.262   4.421  10.271  0.2493 -1.0777 -1.0724
20133TIP3    H281891   1.381   4.354  10.337  0.0704  0.3248  0.7562
20134TIP3   OH281892   1.643   5.568  10.889  0.5535  0.1918 -0.0721
20134TIP3    H181893   1.712   5.539  10.949  0.5178  0.1947 -0.0296
20134TIP3    H281894   1.688   5.577  10.804  0.8229  1.1402  0.1601
20135TIP3   OH281895   4.639   4.215  15.505 -0.4995 -0.2612 -0.2989
20135TIP3    H181896   4.649   4.280  15.436 -0.3199 -1.2552 -1.2324
20135TIP3    H281897   4.551   4.230  15.539 -0.2057  0.9138 -0.0179
20136TIP3   OH281898   4.845   4.087  15.899  0.5624  0.6573 -0.4453
20136TIP3    H181899   4.828   4.070  15.991  0.5315  0.9712 -0.3918
20136TIP3    H281900   4.769   4.137  15.869 -0.3994 -1.1443 -1.1542
20137TIP3   OH281901   4.422   5.286  11.061  0.4382 -0.0220  0.0044
20137TIP3    H181902   4.449   5.344  10.990 -1.0818  0.4014 -0.2572
20137TIP3    H281903   4.467   5.203  11.042  0.2596  0.1551 -1.3104
20138TIP3   OH281904   5.392   2.913  14.172 -0.3505  0.1232  0.7754
20138TIP3    H181905   5.467   2.971  14.160  0.5633 -1.1401  0.1178
20138TIP3    H281906   5.333   2.933  14.099  0.4310 -0.4387 -0.0377
20139TIP3   OH281907   4.563   3.935  13.173  0.8203  0.1145 -0.5694
20139TIP3    H181908   4.516   3.853  13.185  0.4059  0.1704 -1.6649
20139TIP3    H281909   4.495   3.999  13.152  0.8400  1.2863  2.3794
20140TIP3   OH281910   4.739   6.084   5.818 -0.7782 -0.3140  0.3549
20140TIP3    H181911   4.783   6.002   5.796  0.7611  0.6766 -0.4615
20140TIP3    H281912   4.646   6.064   5.812 -0.4294 -1.8318 -0.4935
20141TIP3   OH281913   5.378   6.428   2.104 -0.6398 -0.5475 -0.1923
20141TIP3    H181914   5.306   6.480   2.139 -0.5389 -2.2469  2.9222
20141TIP3    H281915   5.445   6.429   2.173  1.2230 -1.2251 -1.8633
20142TIP3   OH281916   1.959   6.552   3.688  0.2498 -0.1704  0.0029
20142TIP3    H181917   1.912   6.614   3.631  0.5542 -0.3733 -0.4791
20142TIP3    H281918   1.916   6.560   3.773  1.6737  2.3242  0.5999
20143TIP3   OH281919   4.177   2.055  14.806  0.0490 -0.1140 -0.0823
20143TIP3    H181920   4.266   2.083  14.827  0.0032  0.4682 -0.6146
20143TIP3    H281921   4.165   2.083  14.715 -0.7174 -0.0948  0.0253
20144TIP3   OH281922   1.556   5.476   0.544 -0.5539 -0.0902  0.0092
20144TIP3    H181923   1.474   5.488   0.591 -0.5417 -0.3010  0.0846
20144TIP3    H281924   1.552   5.540   0.472 -0.1897  0.8420  0.7962
20145TIP3   OH281925   2.619   5.424   2.116 -0.1310  0.0420 -0.2987
20145TIP3    H181926   2.551   5.367   2.081 -0.8038  0.7430 -0.1801
20145TIP3    H281927   2.692   5.366   2.137 -0.8558 -0.7863 -0.0346
20146TIP3   OH281928   5.989   0.411  14.158 -0.3429 -0.3511  0.0109
20146TIP3    H181929   5.973   0.459  14.077  1.1743  0.6109  0.2481
20146TIP3    H281930   6.049   0.466  14.208  0.9172 -2.1403  0.6095
20147TIP3   OH281931   2.395   6.082   5.358  0.0772 -0.5295  0.1973
20147TIP3    H181932   2.341   6.089   5.437 -0.0163 -2.2616  0.3216
20147TIP3    H281933   2.332   6.080   5.286  0.1933  2.9522 -0.1944
20148TIP3   OH281934   1.163   3.598   0.458  0.3412  0.5633  0.1778
20148TIP3    H181935   1.173   3.512   0.418  1.2066  0.6635  0.1716
20148TIP3    H281936   1.092   3.639   0.408  0.7311  0.3072 -0.6066
20149TIP3   OH281937   0.561   6.009  11.716  0.4914 -0.3718 -0.5058
20149TIP3    H181938   0.497   5.988  11.784  0.6523  0.7216 -0.0035
20149TIP3    H281939   0.585   6.100  11.733  1.9417 -0.6660 -0.8881
20150TIP3   OH281940   4.565   4.503  10.960  0.3044 -0.0075 -0.5641
20150TIP3    H181941   4.527   4.552  10.887 -3.1466 -1.0054  0.3814
20150TIP3    H281942   4.561   4.411  10.932 -2.4984 -0.5614  1.3006
20151TIP3   OH281943   2.670   0.586   2.888 -0.2355  0.1177 -0.2068
20151TIP3    H181944   2.606   0.563   2.820 -0.3540 -3.7309  0.9500
20151TIP3    H281945   2.625   0.569   2.970  1.0073  1.3086  0.7493
20152TIP3   OH281946   6.812   4.329  13.444  0.3616  0.5505  0.0839
20152TIP3    H181947   6.865   4.406  13.467  0.0347  0.8300 -0.0834
20152TIP3    H281948   6.750   4.362  13.379  0.4641  0.0548 -0.2685
20153TIP3   OH281949   2.520   3.694  10.892  0.5983  0.3884 -0.0479
20153TIP3    H181950   2.455   3.725  10.955  0.5127  0.1115  0.0003
20153TIP3    H281951   2.571   3.629  10.940 -0.8676 -1.4914 -0.8681
20154TIP3   OH281952   2.074   5.022  11.662  0.0397 -0.7662 -0.5193
20154TIP3    H181953   2.162   4.986  11.669  0.1866 -0.4752 -0.8274
20154TIP3    H281954   2.034   5.007  11.748  0.3283 -1.0533 -0.4359
20155TIP3   OH281955   1.643   3.653   5.027  0.3356  0.1452 -0.1180
20155TIP3    H181956   1.612   3.721   5.087 -1.6911  1.2590 -2.2717
20155TIP3    H281957   1.638   3.572   5.078 -2.5324  0.8494  0.9287
20156TIP3   OH281958   0.625   0.196  11.399  0.3229  0.0338  0.1352
20156TIP3    H181959   0.571   0.273  11.382  1.0361  0.5035 -0.0831
20156TIP3    H281960   0.604   0.135  11.328  0.6459  0.5324 -0.4016
20157TIP3   OH281961   1.568   3.638  12.503  0.1351  0.9397 -0.6544
20157TIP3    H181962   1.518   3.702  12.553 -0.4672 -0.2617  0.3686
20157TIP3    H281963   1.575   3.675  12.415 -2.4031  1.2764 -0.8008
20158TIP3   OH281964   3.604   4.693  10.909  0.7299 -0.7484  0.1081
20158TIP3    H181965   3.610   4.597  10.900 -0.2303 -0.8213  0.1409
20158TIP3    H281966   3.634   4.727  10.825 -0.8458 -1.1647 -0.6693
20159TIP3   OH281967   2.304   6.626   3.572  0.0178 -0.1464 -0.0715
20159TIP3    H181968   2.263   6.564   3.512  0.1580 -1.1808  0.8647
20159TIP3    H281969   2.379   6.579   3.608  1.1587  1.1877 -0.6197
20160TIP3   OH281970   2.846   2.868   6.401  0.1824  0.0135  0.5657
20160TIP3    H181971   2.758   2.845   6.373  0.9661 -0.1500 -2.1047
20160TIP3    H281972   2.880   2.789   6.442 -0.8384  0.0473  1.5188
20161TIP3   OH281973   2.562   1.220   4.944  0.5743  0.6433 -0.6350
20161TIP3    H181974   2.483   1.171   4.920 -0.6847  1.4830  1.4945
20161TIP3    H281975   2.618   1.155   4.988  0.4229  0.3731 -0.8390
20162TIP3   OH281976   2.794   3.478  16.488  0.1975  0.1644  0.2479
20162TIP3    H181977   2.770   3.445  16.402 -1.2934  1.1482  0.2553
20162TIP3    H281978   2.860   3.416  16.520  0.1588 -0.6826 -1.2364
20163TIP3   OH281979   3.745   2.449  15.853 -0.4327  0.2515 -0.0710
20163TIP3    H181980   3.811   2.450  15.922  1.0397 -0.7079 -1.4020
20163TIP3    H281981   3.717   2.540  15.847  2.1726  1.1153 -0.6956
20164TIP3   OH281982   1.258   5.306  11.901 -0.1299 -0.2253  0.3180
20164TIP3    H181983   1.175   5.352  11.891 -0.1177 -0.0902  0.7848
20164TIP3    H281984   1.299   5.310  11.815 -0.2148  0.4780  0.3054
20165TIP3   OH281985   4.147   1.159  13.742 -0.4796 -0.0948 -0.5148
20165TIP3    H181986   4.143   1.178  13.836  2.3729  0.3734 -0.4005
20165TIP3    H281987   4.075   1.210  13.704  1.0015  3.4104  0.9438
20166TIP3   OH281988   0.012   2.515   3.460 -0.4917 -0.4657  0.1508
20166TIP3    H181989   0.031   2.555   3.545  1.6854 -1.9720  0.4421
20166TIP3    H281990   0.088   2.535   3.406 -1.1969 -0.7607 -1.0028
20167TIP3   OH281991   6.414   6.400  14.936  0.0375 -0.5440  0.7989
20167TIP3    H181992   6.324   6.371  14.951  0.1365 -1.4485 -0.2573
20167TIP3    H281993   6.408   6.496  14.935 -0.6116 -0.5428  2.4158
20168TIP3   OH281994   6.332   3.528   2.851 -0.4211 -0.7478  0.2447
20168TIP3    H181995   6.280   3.452   2.874  1.4056 -1.9919  0.4925
20168TIP3    H281996   6.279   3.576   2.787 -1.4104 -2.4812 -0.2887
20169TIP3   OH281997   0.287   6.806   0.945  0.2234  0.0752 -0.0874
20169TIP3    H181998   0.353   6.738   0.957  0.3455  0.4750  1.7995
20169TIP3    H281999   0.263   6.800   0.853  0.8287 -1.9656 -0.1528
20170TIP3   OH282000   3.638   1.405   1.372  0.0386  0.0051 -0.5715
20170TIP3    H182001   3.628   1.436   1.281  0.8153  1.0891 -0.3057
20170TIP3    H282002   3.555   1.361   1.391 -1.2779  2.1848 -0.8999
20171TIP3   OH282003   3.753   5.441  15.317 -0.0083 -0.2027 -0.2380
20171TIP3    H182004   3.802   5.366  15.282 -1.1086 -1.0157 -0.1041
20171TIP3    H282005   3.697   5.468  15.245  1.2853  1.3485 -0.7149
20172TIP3   OH282006   0.450   6.841  10.364 -0.1515  0.7448 -0.2904
20172TIP3    H182007   0.511   6.771  10.342 -0.3295  0.3567  0.4321
20172TIP3    H282008   0.406   6.811  10.443  0.2789  1.9801  0.4459
20173TIP3   OH282009   6.683   2.399   2.628  0.0200  0.2468  0.0404
20173TIP3    H182010   6.674   2.495   2.623 -0.7056  0.2191  0.5638
20173TIP3    H282011   6.773   2.382   2.603  0.0638  1.0479 -0.3850
20174TIP3   OH282012   6.356   0.606  15.947  0.3622  0.3365  0.1061
20174TIP3    H182013   6.376   0.584  15.856 -0.7360  2.8848 -0.8728
20174TIP3    H282014   6.441   0.607  15.991  1.0857  0.3949 -1.2436
20175TIP3   OH282015   4.942   1.612  14.285 -0.2793  0.0036 -0.3155
20175TIP3    H182016   4.896   1.664  14.351 -2.4569 -1.6556 -0.4179
20175TIP3    H282017   5.017   1.575  14.332 -0.4466  0.7610  0.5752
20176TIP3   OH282018   4.472   5.269   2.291 -0.6573 -0.0749 -0.3973
20176TIP3    H182019   4.437   5.325   2.221 -1.8929 -0.6977 -0.3152
20176TIP3    H282020   4.404   5.203   2.304 -1.5110  1.2798  2.8984
20177TIP3   OH282021   6.171   4.995  14.103 -0.4848 -0.3240  0.3751
20177TIP3    H182022   6.203   4.933  14.169  0.9884 -0.3107 -0.2840
20177TIP3    H282023   6.192   5.081  14.139 -2.5077 -0.1629  1.2790
20178TIP3   OH282024   2.610   4.416  15.983 -0.6207  0.2582  0.2019
20178TIP3    H182025   2.687   4.360  15.994 -0.7927 -0.1591 -0.6518
20178TIP3    H282026   2.561   4.377  15.911 -1.4207  0.7638  0.4510
20179TIP3   OH282027   0.895   5.714   1.507 -0.0591  0.0361 -0.0429
20179TIP3    H182028   0.933   5.801   1.519  0.8060 -0.4717  1.0455
20179TIP3    H282029   0.967   5.654   1.522 -1.0580 -0.9247  1.2096
20180TIP3   OH282030   1.938   3.877  11.169  0.1005  0.1258  0.2514
20180TIP3    H182031   1.866   3.837  11.219  1.1775 -1.5892  0.5102
20180TIP3    H282032   1.932   3.837  11.082  1.4971 -1.0665  0.6620
20181TIP3   OH282033   5.874   0.359  10.853 -0.2548 -0.4758 -0.4704
20181TIP3    H182034   5.875   0.454  10.863 -1.5084 -0.3532 -1.2588
20181TIP3    H282035   5.801   0.330  10.907 -0.0320 -0.9651 -0.4314
20182TIP3   OH282036   2.462   1.554  12.122 -0.3076  0.1989 -0.1846
20182TIP3    H182037   2.510   1.540  12.204 -1.8262 -2.3177  0.3788
20182TIP3    H282038   2.506   1.499  12.059 -0.0557  0.9862 -0.7131
20183TIP3   OH282039   4.847   3.609   0.265 -0.3835 -0.5832 -0.1765
20183TIP3    H182040   4.852   3.704   0.261 -1.0021 -0.4793  1.0667
20183TIP3    H282041   4.788   3.591   0.338  1.7190 -1.9447  1.2900
20184TIP3   OH282042   5.321   1.244   3.401  0.3499 -0.1749  0.0013
20184TIP3    H182043   5.233   1.210   3.419 -0.4661  2.1262  0.8163
20184TIP3    H282044   5.369   1.229   3.482 -0.2889  1.3064  0.6964
20185TIP3   OH282045   1.813   5.627   1.456  0.2819 -0.0737 -0.0682
20185TIP3    H182046   1.758   5.687   1.405 -2.0195 -2.4646 -0.6359
20185TIP3    H282047   1.887   5.608   1.399 -0.7088 -0.3494 -1.3200
20186TIP3   OH282048   3.258   5.032   4.140 -0.1504  0.1952 -0.0533
20186TIP3    H182049   3.229   5.068   4.056 -0.0668  1.2161  0.3471
20186TIP3    H282050   3.284   4.942   4.120  1.0360  0.7999 -1.3752
20187TIP3   OH282051   1.034   6.305   4.692 -0.7079  0.4197 -0.4355
20187TIP3    H182052   1.058   6.391   4.657  0.3905 -0.3156 -1.5801
20187TIP3    H282053   1.021   6.320   4.786 -0.3900  1.8050 -0.5941
20188TIP3   OH282054   5.502   5.751   4.906  0.0786  0.4442  0.1116
20188TIP3    H182055   5.578   5.761   4.849 -0.7842 -0.5804 -1.2897
20188TIP3    H282056   5.433   5.718   4.849 -1.2421  0.7177  1.4779
20189TIP3   OH282057   2.489   2.530   3.727 -0.0658 -0.5825  0.0329
20189TIP3    H182058   2.419   2.471   3.698 -0.9924  0.4953  0.0228
20189TIP3    H282059   2.538   2.551   3.647  1.5411 -2.8754  0.3120
20190TIP3   OH282060   0.733   6.348   1.920  0.1812 -0.6045 -0.4094
20190TIP3    H182061   0.821   6.363   1.886 -0.5217  1.3158 -1.5523
20190TIP3    H282062   0.690   6.433   1.915 -0.2851 -0.2323  4.7465
20191TIP3   OH282063   2.178   5.498  13.557 -0.2401 -0.2437 -0.6197
20191TIP3    H182064   2.180   5.460  13.644  1.0712  0.4156 -0.3410
20191TIP3    H282065   2.162   5.591  13.572  1.1349  0.0687 -0.9994
20192TIP3   OH282066   3.587   3.882  12.874 -0.4661  0.5600  0.3056
20192TIP3    H182067   3.519   3.892  12.940 -0.2784 -2.0431  0.9846
20192TIP3    H282068   3.667   3.915  12.915 -0.8836  1.5835  0.3085
20193TIP3   OH282069   3.033   5.845  10.724 -0.3564  0.8618 -0.2829
20193TIP3    H182070   2.942   5.831  10.697 -0.1052  0.6589 -1.0271
20193TIP3    H282071   3.063   5.918  10.671  0.1027  0.5393 -0.4767
20194TIP3   OH282072   3.903   6.033   3.726 -0.0695 -0.1123 -0.0153
20194TIP3    H182073   3.907   6.120   3.688 -0.1662  0.2900  0.8725
20194TIP3    H282074   3.871   5.977   3.655  0.6938  0.4319 -0.8057
20195TIP3   OH282075   0.671   4.875  11.365 -0.4154  0.6042 -0.6781
20195TIP3    H182076   0.693   4.790  11.326  0.2520  0.7544 -0.6304
20195TIP3    H282077   0.703   4.939  11.303 -0.5473  0.8303 -0.5143
20196TIP3   OH282078   1.617   1.503   5.623  0.1929 -0.0938 -0.2062
20196TIP3    H182079   1.570   1.586   5.617  1.3290  0.5442 -0.6469
20196TIP3    H282080   1.549   1.436   5.620 -0.8005  0.8328  0.8193
20197TIP3   OH282081   4.605   6.098   4.311  0.2260 -0.0039  0.4761
20197TIP3    H182082   4.673   6.034   4.292  0.7199  0.0275  1.9693
20197TIP3    H282083   4.630   6.134   4.397  0.0523  2.2885 -0.3549
20198TIP3   OH282084   0.301   2.077   6.245 -0.6301 -0.1126  0.4730
20198TIP3    H182085   0.311   1.984   6.264 -1.4132 -0.5428 -1.0721
20198TIP3    H282086   0.244   2.109   6.315 -0.1307 -0.7174  1.1751
20199TIP3   OH282087   4.477   3.934   6.088 -0.1164  0.9585 -0.2104
20199TIP3    H182088   4.386   3.955   6.067 -0.6933 -1.1101  0.0314
20199TIP3    H282089   4.484   3.948   6.183 -0.5106  0.0949 -0.0423
20200TIP3   OH282090   6.410   5.943   2.151 -0.0549  0.2407  0.2908
20200TIP3    H182091   6.392   6.013   2.214  0.2800  0.8041 -0.2273
20200TIP3    H282092   6.485   5.975   2.100 -0.0286 -0.4046 -0.0874
20201TIP3   OH282093   5.631   2.676  15.203 -0.0580  0.6939 -0.0587
20201TIP3    H182094   5.723   2.647  15.201 -0.6643 -1.4569  0.3542
20201TIP3    H282095   5.634   2.760  15.248  1.6664  0.4144  0.4375
20202TIP3   OH282096   4.417   6.162   1.110  0.5843 -0.1628 -0.2035
20202TIP3    H182097   4.505   6.197   1.097  1.8783 -3.5307 -1.5053
20202TIP3    H282098   4.371   6.182   1.028  0.3154  0.9441  0.1937
20203TIP3   OH282099   5.798   6.473   2.010  0.2569 -0.1208  0.0642
20203TIP3    H182100   5.760   6.403   2.064  0.5036  0.0612  0.4814
20203TIP3    H282101   5.778   6.553   2.058  1.4639 -0.0479  0.4886
20204TIP3   OH282102   5.646   5.841  11.029  0.1768 -0.5204 -0.3709
20204TIP3    H182103   5.720   5.789  10.999  0.0309 -0.9559  0.0074
20204TIP3    H282104   5.661   5.929  10.994 -1.1833 -1.4921 -3.7661
20205TIP3   OH282105   0.750   4.909   5.238 -0.6466  0.2366  0.3208
20205TIP3    H182106   0.685   4.839   5.248 -0.3265 -0.2606 -0.9247
20205TIP3    H282107   0.827   4.877   5.284  0.2418 -1.2648 -2.0366
20206TIP3   OH282108   2.706   5.047   2.211  0.3493  0.3029  0.0490
20206TIP3    H182109   2.764   5.110   2.169 -0.6168  0.8912 -0.4440
20206TIP3    H282110   2.643   5.023   2.143 -0.7801  0.6904  0.9031
20207TIP3   OH282111   2.425   2.774   0.802 -0.5629  0.4176  0.3327
20207TIP3    H182112   2.430   2.775   0.706  1.8689  1.4761  0.3838
20207TIP3    H282113   2.347   2.723   0.822 -2.4370  2.0976 -2.2215
20208TIP3   OH282114   3.404   5.849   4.437  0.4967  0.4910  0.0693
20208TIP3    H182115   3.383   5.809   4.353  1.9701 -0.6429  0.1925
20208TIP3    H282116   3.490   5.888   4.423  1.6053 -1.2665  1.4826
20209TIP3   OH282117   0.804   6.453  12.636 -0.5285  0.3021  0.3784
20209TIP3    H182118   0.898   6.469  12.626 -0.8123  1.7562 -0.1069
20209TIP3    H282119   0.783   6.488  12.722 -0.4924 -0.8130  0.8676
20210TIP3   OH282120   0.037   1.615   2.386  0.0425  0.8394 -0.6826
20210TIP3    H182121   0.008   1.524   2.372 -0.2841  0.4215  2.1601
20210TIP3    H282122  -0.042   1.667   2.371 -0.2240  0.4762 -0.5695
20211TIP3   OH282123   5.756   6.414   3.837 -0.1506 -0.1198  0.3002
20211TIP3    H182124   5.686   6.451   3.890 -0.1502 -0.7617  0.7725
20211TIP3    H282125   5.829   6.476   3.847 -0.2257 -0.1176  0.8759
20212TIP3   OH282126   1.993   0.773  11.458  0.3471 -0.0603 -0.0162
20212TIP3    H182127   2.067   0.756  11.399  0.7967 -2.1928  1.0512
20212TIP3    H282128   2.012   0.860  11.494  1.2871  0.2787 -1.2157
20213TIP3   OH282129   2.750   5.418  12.623  0.1845 -0.3346 -0.2382
20213TIP3    H182130   2.821   5.441  12.682 -0.3624  0.7149  0.0336
20213TIP3    H282131   2.794   5.389  12.543  0.9188 -0.8517  0.3410
20214TIP3   OH282132   4.023   0.878   5.028  0.0508 -0.2696 -0.0356
20214TIP3    H182133   4.069   0.962   5.033  0.2695 -0.3916  0.0101
20214TIP3    H282134   4.058   0.827   5.101  0.6121 -0.7394 -0.6209
20215TIP3   OH282135   2.306   3.358   2.265 -0.7384 -0.6894 -0.1696
20215TIP3    H182136   2.310   3.449   2.294 -1.3667 -0.4795 -0.7090
20215TIP3    H282137   2.397   3.328   2.268 -0.7280 -0.5890  1.6900
20216TIP3   OH282138   5.549   4.446   0.347  0.2666  0.4232 -0.5247
20216TIP3    H182139   5.569   4.526   0.394 -0.5312  1.1213 -1.3431
20216TIP3    H282140   5.453   4.439   0.350  0.3355 -0.6910 -0.1568
20217TIP3   OH282141   1.966   4.927  15.084  0.3299  0.0574 -0.1245
20217TIP3    H182142   1.940   4.858  15.145  0.0987 -1.1748 -1.5478
20217TIP3    H282143   2.061   4.918  15.078  0.1025 -2.2007 -2.4959
20218TIP3   OH282144   5.950   4.472  11.653  0.5505 -0.2118 -0.4359
20218TIP3    H182145   5.996   4.462  11.570 -0.4018 -0.9415 -0.8966
20218TIP3    H282146   5.943   4.566  11.667 -0.5753 -0.0509 -1.9282
20219TIP3   OH282147   1.902   2.512  14.253  0.0508  0.2521 -0.1952
20219TIP3    H182148   1.962   2.516  14.178  0.0687  0.0597 -0.1926
20219TIP3    H282149   1.858   2.596  14.253 -0.6768 -0.1091 -1.0296
20220TIP3   OH282150   1.805   3.428   1.008 -0.2374 -0.0496  0.6662
20220TIP3    H182151   1.833   3.356   0.952  0.5419  0.4494  0.4056
20220TIP3    H282152   1.730   3.466   0.962 -1.1953 -1.2046  1.2231
20221TIP3   OH282153   5.248   3.356   0.361 -0.0898  0.7657  0.3307
20221TIP3    H182154   5.199   3.382   0.439  1.1979  2.5443  0.6307
20221TIP3    H282155   5.218   3.416   0.292 -0.3055  0.0479 -0.2110
20222TIP3   OH282156   4.705   5.791   4.761 -0.4458 -0.3921 -0.0128
20222TIP3    H182157   4.637   5.858   4.768  1.1887  1.3153  0.1481
20222TIP3    H282158   4.714   5.756   4.849 -1.8668 -1.4705 -0.2510
20223TIP3   OH282159   5.719   4.799   3.402  0.6241 -0.2289 -0.1879
20223TIP3    H182160   5.726   4.743   3.325 -0.3014  0.8303 -1.0653
20223TIP3    H282161   5.642   4.766   3.449 -0.6052  0.9552 -1.2921
20224TIP3   OH282162   5.940   3.772  12.383 -0.3695 -0.6305 -0.3637
20224TIP3    H182163   5.914   3.682  12.407  1.7555 -0.7644  1.8706
20224TIP3    H282164   6.028   3.762  12.347 -1.5011  0.2459 -3.7487
20225TIP3   OH282165   4.981   4.376   3.457  0.3635 -0.5739 -0.3702
20225TIP3    H182166   5.012   4.336   3.538 -0.1133  0.4244  0.3227
20225TIP3    H282167   5.052   4.434   3.430  0.7516 -1.3184 -0.9772
20226TIP3   OH282168   2.099   1.261   5.810  0.0511 -0.6311 -0.2170
20226TIP3    H182169   2.100   1.304   5.896  0.1139  0.9148 -0.9536
20226TIP3    H282170   2.007   1.263   5.784  0.3261  1.1392 -1.2126
20227TIP3   OH282171   0.124   2.933   5.707 -0.2649 -0.0130 -0.3162
20227TIP3    H182172   0.045   2.919   5.760 -0.0861  1.1416  0.2860
20227TIP3    H282173   0.165   3.011   5.745  1.4605 -0.8936 -0.2872
20228TIP3   OH282174   1.304   0.853  15.628  0.2637  0.3918  0.2884
20228TIP3    H182175   1.371   0.921  15.638  1.3604 -0.8851  2.4225
20228TIP3    H282176   1.273   0.837  15.718 -1.6242 -0.3375 -0.4416
20229TIP3   OH282177   1.514   2.385  14.631  0.4569 -0.0228  0.1076
20229TIP3    H182178   1.554   2.467  14.602 -1.2044  1.1272  0.8816
20229TIP3    H282179   1.475   2.347  14.552  0.9353  0.1138 -0.1932
20230TIP3   OH282180   5.599   3.982   2.403  1.0605 -0.3687 -0.2562
20230TIP3    H182181   5.513   3.958   2.367  1.1021  0.7814 -1.1978
20230TIP3    H282182   5.659   3.973   2.329  1.6624 -0.6363  0.2580
20231TIP3   OH282183   1.519   2.003   5.236  0.2614 -0.0334 -0.0563
20231TIP3    H182184   1.525   2.079   5.294  0.7254  0.4087 -0.6870
20231TIP3    H282185   1.586   1.943   5.268  1.0420  0.5358 -0.6158
20232TIP3   OH282186   0.465   3.241  12.369 -0.0516 -0.1913  0.6553
20232TIP3    H182187   0.547   3.205  12.335  0.0809  0.6302  0.0744
20232TIP3    H282188   0.491   3.321  12.415 -0.4865 -0.1558  0.8450
20233TIP3   OH282189   0.017   1.505  11.336 -0.3022 -0.1686 -0.7110
20233TIP3    H182190  -0.067   1.469  11.361  0.0490 -0.4873  0.0394
20233TIP3    H282191   0.054   1.539  11.417  0.2735  0.0012 -1.0363
20234TIP3   OH282192   5.678   0.131  12.886 -0.1764  0.1253 -0.1749
20234TIP3    H182193   5.685   0.078  12.807 -1.6588 -1.6111  0.7895
20234TIP3    H282194   5.730   0.085  12.951  0.2168  1.0046  0.1517
20235TIP3   OH282195   4.021   4.480  11.078  0.3744 -0.1528 -0.0372
20235TIP3    H182196   3.956   4.500  11.146  0.5321 -1.2450  0.4489
20235TIP3    H282197   4.050   4.392  11.097  0.9363 -0.2275 -1.1306
20236TIP3   OH282198   2.858   4.702  10.220 -0.3817  0.3458 -0.6281
20236TIP3    H182199   2.868   4.796  10.230  1.5555  0.1881 -0.8257
20236TIP3    H282200   2.844   4.670  10.309 -3.6383  0.9947 -0.7516
20237TIP3   OH282201   3.500   3.356   2.826 -0.2923 -0.2085  0.1660
20237TIP3    H182202   3.559   3.428   2.804 -0.7398  0.4713  1.1354
20237TIP3    H282203   3.544   3.310   2.898 -0.4854 -0.2965  0.2285
20238TIP3   OH282204   3.831   5.450   4.583 -0.3847 -0.7058  0.0918
20238TIP3    H182205   3.797   5.366   4.550  1.3001 -0.9664 -1.1168
20238TIP3    H282206   3.850   5.500   4.504  0.6689 -0.0293  0.7560
20239TIP3   OH282207   3.298   1.299  10.798  0.3066 -0.3371 -0.7646
20239TIP3    H182208   3.292   1.376  10.742 -2.6032  0.1385  0.0695
20239TIP3    H282209   3.281   1.226  10.740 -0.6229 -0.0190 -0.9036
20240TIP3   OH282210   6.270   6.210  10.872 -0.3710 -0.3903  0.3705
20240TIP3    H182211   6.348   6.231  10.821  0.2814 -0.1766  1.4301
20240TIP3    H282212   6.260   6.115  10.863 -1.6709 -0.0981 -2.0960
20241TIP3   OH282213   1.379   6.257   9.977 -0.8466  0.7113  0.0021
20241TIP3    H182214   1.283   6.260   9.985 -0.9641 -2.2565  1.0281
20241TIP3    H282215   1.394   6.218   9.891 -0.6469 -0.4692  0.5551
20242TIP3   OH282216   4.278   6.450   3.191  0.5717  0.1616  0.1834
20242TIP3    H182217   4.279   6.437   3.096 -0.7371 -0.5855  0.2539
20242TIP3    H282218   4.317   6.537   3.204  2.0910 -0.3214 -0.9131
20243TIP3   OH282219   3.964   3.472   0.414  0.2885  0.0072  0.2126
20243TIP3    H182220   3.917   3.472   0.331  0.4762  0.9925  0.0908
20243TIP3    H282221   3.954   3.562   0.448  1.3485  0.0029  0.5902
20244TIP3   OH282222   5.070   4.814  16.520  0.0134  0.0955  0.4616
20244TIP3    H182223   4.983   4.843  16.549 -0.2173  2.8425 -2.4369
20244TIP3    H282224   5.131   4.868  16.571 -0.1584  0.7882 -0.0504
20245TIP3   OH282225   0.549   0.674  12.996 -0.1720  0.0374  0.2970
20245TIP3    H182226   0.481   0.644  13.056  1.2520 -0.2587  1.8539
20245TIP3    H282227   0.605   0.730  13.050 -0.1457  1.7414 -1.3819
20246TIP3   OH282228   4.967   5.974   3.566  0.4652 -0.0736  0.1053
20246TIP3    H182229   5.052   6.008   3.537  0.2948  0.2754  0.0083
20246TIP3    H282230   4.907   5.997   3.495  0.3753 -0.7113 -0.0301
20247TIP3   OH282231   1.667   4.534  12.772  0.3195 -0.3104 -0.3029
20247TIP3    H182232   1.649   4.545  12.679  1.2703 -1.2134 -0.6203
20247TIP3    H282233   1.720   4.610  12.795  2.8219 -1.6337 -1.3152
20248TIP3   OH282234   3.592   2.212   1.257 -0.0557  0.0055 -0.6395
20248TIP3    H182235   3.589   2.150   1.330 -0.1941  0.0426 -0.6135
20248TIP3    H282236   3.505   2.207   1.218  0.2052 -0.4541 -1.1704
20249TIP3   OH282237   6.453   5.193  16.775 -0.1660 -0.0395  0.6400
20249TIP3    H182238   6.465   5.120  16.714 -0.9944  0.5275 -0.2296
20249TIP3    H282239   6.392   5.159  16.841 -1.1510  0.0978 -0.1873
20250LIG     O182240   3.469   3.025  16.353 -0.0868  0.2206  0.0231
20250LIG     O282241   3.464   3.265  16.450  0.3294  0.1398 -0.3525
20250LIG     O382242   3.172   3.054  16.341 -0.9371 -0.3995  0.9935
20250LIG     O482243   3.551   3.461  16.375 -0.5438 -0.3093 -0.4100
20250LIG     O582244   3.282   3.423  16.180 -0.5764 -0.7196  0.5527
20250LIG     O682245   3.313   3.530  16.535  0.0000  0.4592  0.2123
20250LIG     O782246   3.349   3.737  16.236  0.0484  0.2427  0.3989
20250LIG     O882247   3.676   3.756  16.205  0.1666  0.0682 -0.2583
20250LIG     O982248   3.708   3.682  16.420 -0.1046  0.0364 -0.4371
20250LIG      N82249   3.656   2.746  16.717  0.1438 -0.1704  0.8342
20250LIG     C182250   3.577   2.953  16.534 -0.3685 -0.0220 -0.4816
20250LIG     C282251   3.641   2.989  16.667 -0.1275 -0.6506 -0.2188
20250LIG     C382252   3.593   3.054  16.418  0.6138 -0.0499 -0.0943
20250LIG     C482253   3.603   2.884  16.766 -0.1711  0.3633 -0.7799
20250LIG     C582254   3.614   2.802  16.491 -0.2733  0.5863  0.0745
20250LIG     C682255   3.429   2.933  16.560  0.7742  0.3585  0.0219
20250LIG     C782256   3.443   2.888  16.803 -0.9733  0.5322  0.5045
20250LIG     C882257   3.580   2.701  16.596 -0.5215  0.1619  0.0275
20250LIG     C982258   3.590   3.204  16.462 -0.2031 -0.4984  1.1356
20250LIG    C1082259   3.364   2.911  16.677  0.3899  0.0417  0.3556
20250LIG    C1182260   3.616   3.131  16.707  0.2029 -0.2813 -0.4599
20250LIG    C1282261   3.366   2.987  16.447 -0.8129 -0.3270  0.1048
20250LIG    C1382262   3.587   3.225  16.613 -0.0397  0.2127 -0.4285
20250LIG    C1482263   3.800   2.726  16.710  1.0524 -0.1110 -0.6520
20250LIG    C1582264   3.226   2.913  16.675  0.0949  0.7933  0.2058
20250LIG    C1682265   3.232   2.992  16.445  0.4835 -0.1705 -0.0311
20250LIG    C1782266   3.154   2.952  16.555  0.3486  0.5719 -0.1711
20250LIG    C1882267   3.460   3.354  16.339  0.9017 -0.4221  0.2535
20250LIG    C1982268   3.318   3.405  16.321 -0.0789 -0.3269  0.0171
20250LIG    C2082269   3.298   3.539  16.391 -0.4670 -0.5743  0.7216
20250LIG    C2182270   3.399   3.649  16.341  0.0489  0.1112  0.3127
20250LIG    C2282271   3.532   3.579  16.294  0.6736 -0.4084  0.2374
20250LIG    C2382272   3.648   3.676  16.318  0.3487  0.0327  0.2671
20250LIG     H182273   3.751   2.987  16.653  0.2496  1.3673  1.8231
20250LIG     H282274   3.673   3.029  16.345 -1.2472  0.3374 -2.4205
20250LIG     H382275   3.656   2.905  16.861 -0.5198  1.7240 -0.8659
20250LIG     H482276   3.722   2.809  16.463  0.2440 -0.7421  1.5500
20250LIG     H582277   3.560   2.775  16.398  0.1696  0.2714 -0.0986
20250LIG     H682278   3.419   2.966  16.878  0.9036 -0.1913  1.9404
20250LIG     H782279   3.414   2.789  16.844 -2.6742  0.9847  0.4866
20250LIG     H882280   3.474   2.689  16.627 -0.3123  0.8495  1.0598
20250LIG     H982281   3.620   2.604  16.561 -1.7688  0.0773 -1.2659
20250LIG    H1082282   3.672   3.253  16.404  0.0108 -0.6335  1.3229
20250LIG    H1182283   3.617   3.150  16.815  0.7051 -1.0280 -0.3232
20250LIG    H1282284   3.605   3.332  16.633 -2.1261  0.3665  0.9115
20250LIG    H1382285   3.822   2.639  16.645 -2.3914 -3.2286  1.9018
20250LIG    H1482286   3.835   2.696  16.811 -0.9674  0.9180  0.4262
20250LIG    H1582287   3.853   2.819  16.678  1.3639  0.5411  1.5872
20250LIG    H1682288   3.167   2.901  16.764 -0.8838 -0.8541 -0.6039
20250LIG    H1782289   3.046   2.947  16.555  0.3036  0.5864  2.0991
20250LIG    H1882290   3.494   3.308  16.244 -3.0980  2.2077 -2.7805
20250LIG    H1982291   3.246   3.331  16.363 -1.1044  1.6559  1.9702
20250LIG    H2082292   3.194   3.566  16.365 -1.0896 -2.3493  1.2353
20250LIG    H2182293   3.077   3.051  16.354 -0.9521  1.1469  1.4056
20250LIG    H2282294   3.427   3.715  16.427 -2.2004  0.5285  0.7868
20250LIG    H2382295   3.523   3.538  16.191  3.3680 -2.8148  0.8151
20250LIG    H2482296   3.188   3.408  16.177 -1.4185  3.3321 -1.0826
20250LIG    H2582297   3.246   3.588  16.573  1.0693  1.2583  0.9289
20250LIG    H2682298   3.283   3.787  16.284  2.1267  0.2429  3.5545
20250LIG    H2782299   3.750   3.814  16.223  0.8911 -0.2136 -2.1170
   6.90265   6.90265  16.88792
